G3.5ncore-PETIM in water
110245
    1aaa     N1    1   0.320   9.951   5.865  0.5747 -0.3845 -0.1499
    1aaa     C1    2   0.263   9.803   5.842 -0.6031 -0.3494 -0.3155
    1aaa     H1    3   0.282   9.772   5.739  0.7724 -1.6324  0.2947
    1aaa     H2    4   0.315   9.734   5.909  0.5071 -0.1368 -0.9318
    1aaa     C2    5   0.464   9.946   5.902 -0.2634 -0.2906 -0.4886
    1aaa     H3    6   0.460   9.892   5.996 -0.9969  0.0409 -0.3183
    1aaa     H4    7   0.519   9.889   5.827  1.0107  2.2846 -1.6744
    1aaa     C3    8   0.290  10.034   5.736 -0.3011 -0.4301 -0.3468
    1aaa     H5    9   0.372  10.014   5.667  0.1151  1.0239 -0.2979
    1aaa     H6   10   0.193   9.988   5.715 -2.0454  1.4512  2.7510
    1aaa     C4   11   0.270  10.188   5.766 -0.6097 -0.5253  0.1275
    1aaa     H7   12   0.353  10.232   5.825 -0.1535 -2.1113  0.7155
    1aaa     H8   13   0.271  10.237   5.668  0.5773 -0.6958  0.0370
    1aaa     C5   14   0.113   9.790   5.878  0.0933  0.2774 -0.5628
    1aaa     H9   15   0.107   9.818   5.984  1.5949  0.4546 -0.5115
    1aaa    H10   16   0.053   9.871   5.835 -1.2604  0.0069  0.7195
    1aaa     C6   17   0.539  10.087   5.919 -0.1608  0.2366  0.0247
    1aaa    H11   18   0.551  10.135   5.821 -1.7389  1.1663  0.2588
    1aaa    H12   19   0.481  10.146   5.991  1.9544  0.8807  1.3008
    1aaa     C7   20   0.678  10.072   5.983 -0.2737  0.3569  0.1714
    1aaa    H13   21   0.711  10.174   6.008 -0.3362  0.7922 -1.3833
    1aaa    H14   22   0.664  10.016   6.076 -0.2967 -2.5414 -1.4667
    1aaa     C8   23   0.135  10.213   5.841  0.0110 -0.4781 -0.5183
    1aaa    H15   24   0.137  10.179   5.945 -0.8164  1.4712  0.1671
    1aaa    H16   25   0.124  10.321   5.852 -2.3091 -0.6076 -1.0663
    1aaa     C9   26   0.052   9.650   5.849  0.1028  0.9607 -0.1393
    1aaa    H17   27  -0.051   9.665   5.813 -0.6486 -0.1391  1.4756
    1aaa    H18   28   0.102   9.607   5.762  1.4751  0.7824  0.7180
    1aaa    H19   29   0.278  10.000   5.946  1.4815  1.2582 -0.6212
    2bbb     N1   30   1.137  10.080   5.604 -0.2311  0.5638 -0.1020
    2bbb     C1   31   1.157  10.206   5.520 -0.4465  0.4798  0.7716
    2bbb     H1   32   1.261  10.222   5.489 -0.4953 -3.2707 -2.0150
    2bbb     H2   33   1.124  10.282   5.590 -0.5018  0.1176  1.1430
    2bbb     C2   34   1.272  10.036   5.655 -0.6576  0.2169  0.1516
    2bbb     H3   35   1.257   9.966   5.737 -0.2371 -0.9082 -0.7038
    2bbb     H4   36   1.312  10.123   5.706 -0.4910 -0.0805  0.5293
    2bbb     C3   37   1.038  10.100   5.715 -0.0157 -0.6947 -0.2438
    2bbb     H5   38   0.952  10.143   5.663  0.1702 -0.3301 -0.2527
    2bbb     H6   39   1.073  10.175   5.785  0.4241 -1.2647  0.1511
    2bbb     C4   40   1.000   9.977   5.803 -0.1517  0.6046 -0.8965
    2bbb     H7   41   1.098   9.933   5.824  0.5722  3.3282  2.2016
    2bbb     H8   42   0.944   9.906   5.741 -1.3586 -0.0955  0.9361
    2bbb     C5   43   1.062  10.208   5.398 -0.5263 -0.4282 -0.7712
    2bbb     H9   44   0.959  10.212   5.434 -0.4909  2.4211 -0.7453
    2bbb    H10   45   1.090  10.120   5.339  0.0935 -1.4585  0.9774
    2bbb     C6   46   1.376   9.980   5.556  0.6179  0.3980  0.6307
    2bbb    H11   47   1.401  10.062   5.488 -1.7414  1.3764  0.8377
    2bbb    H12   48   1.326   9.903   5.497  0.2367  1.2533 -0.1873
    2bbb     C7   49   0.909  10.014   5.928  0.2382 -0.5983 -0.5223
    2bbb    H13   50   0.925  10.118   5.962 -0.7152 -0.1524 -1.3843
    2bbb    H14   51   0.916   9.947   6.014  0.7369  0.3982  0.2420
    2bbb     C8   52   1.489   9.926   5.642  0.0052  0.0538  0.6590
    2bbb    H15   53   1.515  10.008   5.710  1.9082 -0.1855  0.2660
    2bbb    H16   54   1.450   9.838   5.694 -2.3086 -0.4200 -1.6757
    2bbb     C9   55   1.076  10.334   5.312  0.0309  0.2094  0.7253
    2bbb    H17   56   0.997  10.334   5.236 -0.3197  2.8265  0.9996
    2bbb    H18   57   1.171  10.338   5.259 -0.7098 -0.8658 -0.7469
    2bbb     O1   58   0.770  10.015   5.888 -0.1233  0.2010  0.1367
    2bbb    H19   59   1.117  10.006   5.536  2.5224 -0.5683  0.2008
    3bbb     N1   60  -0.354  10.031   5.551 -0.1524  0.6771  0.0037
    3bbb     C1   61  -0.483  10.042   5.630 -0.7472  0.1382 -0.1785
    3bbb     H1   62  -0.461  10.017   5.734 -1.8279  0.9243  0.2613
    3bbb     H2   63  -0.557   9.970   5.593 -0.7169  0.2483 -0.4517
    3bbb     C2   64  -0.370  10.057   5.400 -0.2876  0.0681 -0.4754
    3bbb     H3   65  -0.271  10.058   5.356  1.0833  1.4980  2.3882
    3bbb     H4   66  -0.408  10.159   5.389 -0.4336  0.2289  1.2066
    3bbb     C3   67  -0.249  10.113   5.617 -0.5343 -0.4398  0.5937
    3bbb     H5   68  -0.286  10.215   5.612 -2.3064 -1.0911 -2.4396
    3bbb     H6   69  -0.157  10.109   5.558  0.4791 -2.4502  2.1908
    3bbb     C4   70  -0.191  10.065   5.753  0.9302 -0.0279 -0.1286
    3bbb     H7   71  -0.147   9.965   5.744 -0.4355 -0.6795  0.0381
    3bbb     H8   72  -0.276  10.044   5.819 -1.4713 -0.0771 -2.9673
    3bbb     C5   73  -0.546  10.175   5.643  0.3091 -0.1507  0.1663
    3bbb     H9   74  -0.597  10.198   5.548  1.2359  4.9881  0.5949
    3bbb    H10   75  -0.467  10.249   5.659  0.3827 -0.3223  0.5906
    3bbb     C6   76  -0.457   9.956   5.323 -0.0867 -0.1046 -0.1750
    3bbb    H11   77  -0.559   9.958   5.364 -0.6193  0.4892 -1.4878
    3bbb    H12   78  -0.422   9.853   5.340 -0.3287 -0.9333 -3.8302
    3bbb     C7   79  -0.103  10.170   5.821 -0.6524 -0.2357  0.5051
    3bbb    H13   80  -0.097  10.153   5.929 -3.3519 -1.7657  0.4911
    3bbb    H14   81  -0.134  10.274   5.805  3.7519  1.2706  0.3338
    3bbb     C8   82  -0.464   9.972   5.172  0.7456 -0.1868  0.0431
    3bbb    H15   83  -0.366   9.974   5.123  0.7507  1.1073  0.0781
    3bbb    H16   84  -0.510   9.882   5.130 -0.7448 -0.4662  2.0755
    3bbb     C9   85  -0.647  10.177   5.756  0.5805  0.5471 -0.5769
    3bbb    H17   86  -0.685  10.279   5.765 -0.5496  0.0416  0.7113
    3bbb    H18   87  -0.589  10.157   5.847 -0.0189  0.0240 -0.3048
    3bbb     O1   88   0.028  10.156   5.763 -0.0035 -0.0854 -0.5157
    3bbb    H19   89  -0.320   9.933   5.552 -1.1157  0.3190 -0.6628
    4bbb     N1   90   0.016   9.077   6.152 -1.3775 -0.1509  0.3269
    4bbb     C1   91  -0.045   9.122   6.287  0.5319  0.2347 -0.1878
    4bbb     H1   92  -0.110   9.041   6.323  0.7062  0.7517  1.3413
    4bbb     H2   93  -0.104   9.212   6.270 -0.7286 -0.2652  1.2808
    4bbb     C2   94  -0.036   8.945   6.113  0.1801 -0.6262  0.0326
    4bbb     H3   95  -0.087   8.955   6.017  1.8201  1.4225 -0.6818
    4bbb     H4   96  -0.106   8.905   6.187 -0.4647  1.2911  0.5222
    4bbb     C3   97  -0.004   9.191   6.042 -0.1794 -0.2245 -0.8447
    4bbb     H5   98  -0.109   9.192   6.013 -0.4962  0.5772  0.2732
    4bbb     H6   99   0.046   9.159   5.951  1.5248 -0.6865  0.2119
    4bbb     C4  100   0.035   9.339   6.078  0.4575  0.0988 -0.4724
    4bbb     H7  101   0.142   9.343   6.102 -0.2626 -0.4706  3.4288
    4bbb     H8  102  -0.020   9.379   6.163  1.6514  1.3631 -0.2576
    4bbb     C5  103   0.045   9.174   6.401  0.0116 -0.0797  0.4688
    4bbb     H9  104   0.118   9.252   6.375 -2.3190  2.2436  0.4140
    4bbb    H10  105   0.102   9.094   6.449  2.5279  2.2499  1.6911
    4bbb     C6  106   0.067   8.837   6.099  0.1003 -0.1475  0.2326
    4bbb    H11  107   0.007   8.745   6.096 -0.4972  0.2520 -0.1930
    4bbb    H12  108   0.139   8.830   6.181 -0.0773 -0.7112  0.3446
    4bbb     C7  109   0.008   9.426   5.958 -0.8599 -0.2167  1.1921
    4bbb    H13  110  -0.099   9.445   5.943 -0.5306  2.6011  1.8354
    4bbb    H14  111   0.049   9.380   5.868  2.5140  0.4167  2.2814
    4bbb     C8  112   0.150   8.857   5.968 -0.3019  0.5374 -0.2370
    4bbb    H15  113   0.187   8.758   5.938 -0.9094  0.0951  0.4408
    4bbb    H16  114   0.089   8.885   5.881  1.6369  1.2134 -1.4459
    4bbb     C9  115  -0.038   9.221   6.518  1.1753  0.2274 -0.2639
    4bbb    H17  116  -0.121   9.288   6.489 -0.4452 -1.6607 -0.2081
    4bbb    H18  117   0.020   9.287   6.583 -2.4834  2.6318  0.9041
    4bbb     O1  118   0.069   9.560   5.967 -0.5288 -0.2511  0.0587
    4bbb    H19  119   0.115   9.062   6.178 -0.9611 -1.0918 -1.6625
    5bbb     N1  120   2.038   9.678   5.514 -0.1732 -0.3648  0.6104
    5bbb     C1  121   2.072   9.790   5.412 -0.1740  0.0552 -1.1623
    5bbb     H1  122   2.124   9.865   5.473 -0.0236 -1.4705  0.6854
    5bbb     H2  123   1.978   9.838   5.386 -1.7709 -1.1171  1.8436
    5bbb     C2  124   2.167   9.629   5.590 -0.6733  0.3863  0.0732
    5bbb     H3  125   2.219   9.566   5.518 -2.4572 -0.2810 -0.7029
    5bbb     H4  126   2.139   9.557   5.667 -1.0915 -0.0320 -0.4625
    5bbb     C3  127   1.940   9.733   5.614  0.3492 -0.0306  0.4593
    5bbb     H5  128   1.974   9.832   5.647  1.6598  0.2261 -1.4594
    5bbb     H6  129   1.946   9.665   5.699 -1.1452 -0.0833  0.5512
    5bbb     C4  130   1.795   9.737   5.562  0.1220  0.0501 -0.5706
    5bbb     H7  131   1.739   9.643   5.572 -1.9906  1.4280  1.9224
    5bbb     H8  132   1.793   9.771   5.458  2.1020  0.4826 -0.4956
    5bbb     C5  133   2.160   9.749   5.292 -0.1020 -0.1542 -0.3432
    5bbb     H9  134   2.102   9.679   5.231  0.0684 -1.0839  0.5296
    5bbb    H10  135   2.246   9.690   5.325  0.0904  0.3161  0.0169
    5bbb     C6  136   2.257   9.730   5.664 -0.3274  0.7925  0.6716
    5bbb    H11  137   2.208   9.749   5.760 -1.4088 -0.7456  0.4640
    5bbb    H12  138   2.275   9.820   5.605  0.3121 -0.1777 -0.6857
    5bbb     C7  139   1.718   9.843   5.644 -0.0496 -0.8800 -0.0564
    5bbb    H13  140   1.778   9.933   5.660 -0.7094 -0.1035 -1.7740
    5bbb    H14  141   1.688   9.797   5.739 -2.1271  0.6169  0.0625
    5bbb     C8  142   2.391   9.659   5.686 -0.1611 -0.1179  0.1367
    5bbb    H15  143   2.368   9.567   5.741 -1.1223  0.4481  0.7001
    5bbb    H16  144   2.450   9.647   5.594  0.3334  0.6725  0.3369
    5bbb     C9  145   2.215   9.876   5.221  0.3960  0.2113 -1.4740
    5bbb    H17  146   2.271   9.936   5.294 -2.8837  1.1874  0.4492
    5bbb    H18  147   2.129   9.942   5.203  0.3664  0.0064 -2.1067
    5bbb     O1  148   1.599   9.882   5.563  0.4964 -0.3344  0.7165
    5bbb    H19  149   1.995   9.597   5.469 -1.6952  0.0427  1.2864
    6bbb     N1  150   1.270  10.761   5.639 -0.4429  0.2821  0.3685
    6bbb     C1  151   1.243  10.784   5.788 -0.8300  0.3158 -0.2971
    6bbb     H1  152   1.321  10.849   5.827 -1.2623 -0.6479  2.3401
    6bbb     H2  153   1.253  10.687   5.837 -1.2731 -0.6225 -1.9597
    6bbb     C2  154   1.408  10.689   5.619  0.3281 -0.3723  0.2575
    6bbb     H3  155   1.405  10.673   5.511  0.0157  1.2595  0.0098
    6bbb     H4  156   1.416  10.593   5.671  0.3499 -0.7594 -0.4287
    6bbb     C3  157   1.157  10.678   5.575 -0.7150 -0.6974 -0.7810
    6bbb     H5  158   1.065  10.729   5.600  0.0805 -0.9665  3.4460
    6bbb     H6  159   1.164  10.582   5.628  0.9499  0.1259  0.5907
    6bbb     C4  160   1.177  10.654   5.425 -0.1437 -0.3306 -0.0209
    6bbb     H7  161   1.275  10.608   5.410  0.4646  0.4385  1.3545
    6bbb     H8  162   1.179  10.752   5.375 -3.4698 -1.0807 -1.9288
    6bbb     C5  163   1.116  10.851   5.824  0.2951  0.3441  0.7632
    6bbb     H9  164   1.033  10.783   5.803  2.0839 -2.7319  2.7435
    6bbb    H10  165   1.108  10.937   5.757  1.5193 -0.0896  0.0164
    6bbb     C6  166   1.532  10.784   5.642  0.4109 -0.1507 -0.6615
    6bbb    H11  167   1.621  10.720   5.636  0.5118 -0.2057  1.0139
    6bbb    H12  168   1.533  10.829   5.742  1.0392  1.8677 -1.5219
    6bbb     C7  169   1.070  10.577   5.351  0.0741 -0.0456  0.0296
    6bbb    H13  170   1.097  10.575   5.245  0.5726 -0.1757  0.1564
    6bbb    H14  171   0.979  10.637   5.366  0.1461 -0.3158  1.7170
    6bbb     C8  172   1.541  10.892   5.540  0.2892 -0.3380 -0.3763
    6bbb    H15  173   1.455  10.958   5.558  0.6739 -0.3061  1.5412
    6bbb    H16  174   1.629  10.954   5.560 -0.7838  0.7674  1.0899
    6bbb     C9  175   1.113  10.903   5.973  0.6172 -0.4615 -0.1781
    6bbb    H17  176   1.177  10.848   6.043  1.2278  0.7811  0.2749
    6bbb    H18  177   1.011  10.894   6.012  0.0466  1.2774 -1.1702
    6bbb     O1  178   1.047  10.442   5.402  0.2626 -0.9421  0.3802
    6bbb    H19  179   1.276  10.857   5.603 -1.8511  0.0439 -0.6090
    7bbb     N1  180  -0.772  10.304   4.744  0.0781  0.2108  0.7875
    7bbb     C1  181  -0.850  10.282   4.612 -0.6443 -0.6621 -0.0949
    7bbb     H1  182  -0.953  10.252   4.633 -0.5017 -0.4057  1.0367
    7bbb     H2  183  -0.803  10.196   4.564 -0.1553 -0.2906 -0.2962
    7bbb     C2  184  -0.863  10.387   4.831  0.9734  0.4910 -0.3124
    7bbb     H3  185  -0.867  10.488   4.790 -0.0867  0.4131 -0.4134
    7bbb     H4  186  -0.820  10.400   4.930 -1.8519 -1.3412  1.3095
    7bbb     C3  187  -0.741  10.179   4.825 -0.0638 -0.4274  0.5245
    7bbb     H5  188  -0.689  10.116   4.752  0.2230  0.4323 -0.0339
    7bbb     H6  189  -0.834  10.128   4.848 -2.6797  2.8992 -1.6709
    7bbb     C4  190  -0.652  10.202   4.957 -0.2537  0.8240 -0.0637
    7bbb     H7  191  -0.711  10.243   5.040 -1.0883 -1.2264  0.4277
    7bbb     H8  192  -0.570  10.272   4.937  1.4940 -1.0753  0.1768
    7bbb     C5  193  -0.829  10.405   4.514  0.1354 -0.6385 -0.4743
    7bbb     H9  194  -0.721  10.422   4.504  0.4198 -2.1553 -0.3447
    7bbb    H10  195  -0.891  10.488   4.551  0.4377  0.4152 -2.2260
    7bbb     C6  196  -1.015  10.344   4.864 -0.2095 -0.1741  0.1869
    7bbb    H11  197  -1.016  10.239   4.893  0.4273 -0.0358  0.7520
    7bbb    H12  198  -1.071  10.367   4.772  1.2899  4.4904  0.1782
    7bbb     C7  199  -0.575  10.074   4.996  0.3777 -0.1855  0.2810
    7bbb    H13  200  -0.484  10.056   4.937  0.1609  0.6884 -0.3432
    7bbb    H14  201  -0.647   9.992   4.978 -1.7412  1.8205 -0.9309
    7bbb     C8  202  -1.070  10.442   4.979  0.8887 -0.1878 -0.0547
    7bbb    H15  203  -1.178  10.427   4.989  0.5377  1.8102 -0.4989
    7bbb    H16  204  -1.024  10.409   5.073 -0.5942  0.0653  0.7914
    7bbb     C9  205  -0.891  10.357   4.376 -0.8773  0.1034 -0.4676
    7bbb    H17  206  -1.000  10.363   4.389 -0.6893  1.9400  0.6007
    7bbb    H18  207  -0.865  10.251   4.367 -3.0780 -0.4498 -0.9978
    7bbb     O1  208  -0.547  10.083   5.134  0.3547 -0.3698 -0.2731
    7bbb    H19  209  -0.683  10.354   4.726  0.1042  0.1046  0.6183
    8bbb     N1  210  -1.130   9.858   5.700  0.5023 -0.1116 -0.2267
    8bbb     C1  211  -1.257   9.919   5.648  0.3431  0.4280 -0.4478
    8bbb     H1  212  -1.279   9.994   5.725 -0.7314 -1.9647  1.7600
    8bbb     H2  213  -1.329   9.837   5.660 -1.2003  1.9303  1.1473
    8bbb     C2  214  -1.086   9.739   5.625  0.6666  0.4159  0.1132
    8bbb     H3  215  -0.989   9.753   5.577  0.8948 -0.4252  0.3091
    8bbb     H4  216  -1.162   9.713   5.551  2.2642 -0.6993 -1.2092
    8bbb     C3  217  -1.026   9.971   5.712  0.6944  0.3366 -0.0207
    8bbb     H5  218  -1.085  10.061   5.731 -0.0724  0.0358 -0.9043
    8bbb     H6  219  -0.968   9.972   5.620 -0.8781 -3.6435 -1.2687
    8bbb     C4  220  -0.936   9.952   5.832  0.2091 -0.2991 -0.7696
    8bbb     H7  221  -0.894   9.851   5.837 -1.3728 -0.9418  0.1033
    8bbb     H8  222  -1.001   9.962   5.920 -0.1502  2.3977 -1.2416
    8bbb     C5  223  -1.260   9.986   5.509  0.8712  0.1188 -0.0806
    8bbb     H9  224  -1.217   9.914   5.439 -0.0357  0.0762 -0.6092
    8bbb    H10  225  -1.202  10.079   5.513 -0.8558  1.2037  1.1255
    8bbb     C6  226  -1.077   9.608   5.717  0.3671 -0.5956 -0.0822
    8bbb    H11  227  -0.998   9.624   5.791  0.0633 -0.3532  0.1936
    8bbb    H12  228  -1.046   9.526   5.651 -0.6988 -1.2197  0.1796
    8bbb     C7  229  -0.828  10.058   5.851  0.4113 -0.3407 -0.2078
    8bbb    H13  230  -0.765  10.039   5.939 -0.6102 -0.7928  0.4601
    8bbb    H14  231  -0.875  10.155   5.873  0.4863 -0.0040 -1.4590
    8bbb     C8  232  -1.212   9.570   5.785  0.3394 -0.5900  0.2464
    8bbb    H15  233  -1.297   9.564   5.716  1.4992 -0.8941 -1.2309
    8bbb    H16  234  -1.190   9.476   5.836  1.8690 -0.3466  0.0942
    8bbb     C9  235  -1.407  10.019   5.476  0.2800  1.0394 -0.5122
    8bbb    H17  236  -1.407  10.078   5.384 -1.6880 -1.1906 -2.0776
    8bbb    H18  237  -1.449  10.087   5.550 -1.5145  0.9652 -1.3833
    8bbb     O1  238  -0.741  10.078   5.737 -0.3156  0.5796  1.0156
    8bbb    H19  239  -1.146   9.831   5.798  3.6298 -0.2629  0.3317
    9bbb     N1  240   0.717   8.776   5.910  0.2039 -0.3427 -0.2433
    9bbb     C1  241   0.732   8.686   5.791 -0.0112 -0.4803 -0.1536
    9bbb     H1  242   0.638   8.635   5.769  0.4724 -0.0031 -3.8662
    9bbb     H2  243   0.804   8.607   5.815  1.1619 -0.3173 -2.8329
    9bbb     C2  244   0.844   8.839   5.952 -0.4702  0.4527  0.1470
    9bbb     H3  245   0.856   8.916   5.875  0.8555  0.8249  0.6995
    9bbb     H4  246   0.922   8.763   5.941 -2.0310 -1.0777 -0.8761
    9bbb     C3  247   0.616   8.883   5.870  0.9766  0.2539 -0.1176
    9bbb     H5  248   0.601   8.870   5.763  0.7335  1.1076 -0.1888
    9bbb     H6  249   0.662   8.978   5.895 -0.7551  1.4006 -1.1127
    9bbb     C4  250   0.482   8.864   5.945  1.1396 -0.0038 -0.2304
    9bbb     H7  251   0.481   8.874   6.054 -2.5836 -0.5643 -0.0804
    9bbb     H8  252   0.453   8.760   5.922 -0.4474  0.5911 -1.1273
    9bbb     C5  253   0.788   8.739   5.653  0.4001 -0.1037  0.1261
    9bbb     H9  254   0.887   8.779   5.677  0.4233 -0.1701  0.1427
    9bbb    H10  255   0.727   8.819   5.609  0.0111  0.5542  1.7952
    9bbb     C6  256   0.846   8.909   6.091  0.0522  0.4200 -1.2549
    9bbb    H11  257   0.811   8.830   6.159  1.2374  2.1916  1.6009
    9bbb    H12  258   0.772   8.988   6.104 -0.7369 -0.5401  0.3488
    9bbb     C7  259   0.370   8.951   5.893  0.0587 -0.4228 -0.8555
    9bbb    H13  260   0.346   8.929   5.788  1.6727  2.0038 -1.8202
    9bbb    H14  261   0.407   9.054   5.901 -1.0848 -0.1676  3.9276
    9bbb     C8  262   0.985   8.958   6.141 -1.3259 -0.1367  0.6903
    9bbb    H15  263   0.993   9.057   6.094  0.9166  0.2066  1.6572
    9bbb    H16  264   0.980   8.971   6.250  2.8188 -1.7351  1.2901
    9bbb     C9  265   0.808   8.627   5.549  0.9096  0.6034 -0.8540
    9bbb    H17  266   0.874   8.550   5.590 -0.3207  0.2164  0.4635
    9bbb    H18  267   0.859   8.664   5.459  0.5365  1.8873 -0.5570
    9bbb     O1  268   0.260   8.955   5.986 -0.0305 -0.2792 -0.5350
    9bbb    H19  269   0.681   8.717   5.987 -1.4867  0.3980 -0.4069
   10bbb     N1  270  -0.302   8.822   6.893 -0.1582 -0.1318  0.3452
   10bbb     C1  271  -0.216   8.742   6.997  0.9517  0.3068 -0.0127
   10bbb     H1  272  -0.275   8.655   7.025  1.4920  0.2680  1.0389
   10bbb     H2  273  -0.200   8.799   7.089  1.1619 -1.6516  1.2019
   10bbb     C2  274  -0.432   8.859   6.953  0.1788 -0.2858 -0.8036
   10bbb     H3  275  -0.489   8.769   6.979 -2.3030  1.4962  0.3309
   10bbb     H4  276  -0.489   8.916   6.880 -0.8674  1.4125  1.2389
   10bbb     C3  277  -0.214   8.940   6.838  0.7193  0.0211 -0.0033
   10bbb     H5  278  -0.124   8.905   6.789  0.9695 -0.7450  0.9872
   10bbb     H6  279  -0.185   9.000   6.925 -0.5837 -0.4934  0.8231
   10bbb     C4  280  -0.288   9.023   6.731 -0.2151  0.0801 -0.6360
   10bbb     H7  281  -0.376   9.063   6.784 -1.2383  0.5048 -2.5837
   10bbb     H8  282  -0.322   8.955   6.652 -1.7583 -0.0435  0.0959
   10bbb     C5  283  -0.087   8.690   6.940  0.3369  0.0176  0.7590
   10bbb     H9  284  -0.018   8.669   7.023  1.0680  1.0154  0.4180
   10bbb    H10  285  -0.032   8.777   6.902 -2.2899  1.2003 -0.5188
   10bbb     C6  286  -0.422   8.944   7.089  0.3153  0.0832  0.4263
   10bbb    H11  287  -0.382   9.045   7.075  0.9706 -0.0442  1.3165
   10bbb    H12  288  -0.356   8.907   7.169  0.6657 -3.0186 -1.1511
   10bbb     C7  289  -0.203   9.146   6.686 -0.0558 -0.3116 -0.1942
   10bbb    H13  290  -0.159   9.194   6.774 -2.5911  2.3273 -0.1859
   10bbb    H14  291  -0.269   9.225   6.648  1.5494  0.9105 -0.5577
   10bbb     C8  292  -0.563   8.958   7.141 -0.3646 -0.7145 -0.1149
   10bbb    H15  293  -0.567   9.044   7.209 -0.8373  0.5707 -1.7154
   10bbb    H16  294  -0.631   8.976   7.057  2.5295 -0.4743 -2.5522
   10bbb     C9  295  -0.084   8.561   6.850 -0.3297 -0.3576 -0.7073
   10bbb    H17  296   0.020   8.550   6.816  0.3164  1.2984  0.6160
   10bbb    H18  297  -0.141   8.577   6.757  0.0400  1.8978 -0.6042
   10bbb     O1  298  -0.099   9.102   6.579  0.1577  0.7958  0.6385
   10bbb    H19  299  -0.326   8.767   6.809 -2.2009 -0.1316  0.8729
   11bbb     N1  300   2.873   9.820   6.088  0.4514 -0.2698  0.2899
   11bbb     C1  301   2.908   9.741   6.208  0.4391  0.0759 -0.3274
   11bbb     H1  302   3.011   9.773   6.231  1.2758 -2.9205  0.4543
   11bbb     H2  303   2.918   9.639   6.172  0.9071 -0.8628  2.2776
   11bbb     C2  304   2.991   9.837   5.988  0.2523  0.2652  0.4185
   11bbb     H3  305   2.952   9.860   5.889 -0.0719  2.8132  1.0731
   11bbb     H4  306   3.036   9.738   5.985 -3.1082 -1.3845 -2.2379
   11bbb     C3  307   2.778   9.733   6.009  0.1139  0.2146  0.4639
   11bbb     H5  308   2.702   9.720   6.085 -0.8653 -0.4547 -0.6064
   11bbb     H6  309   2.834   9.652   5.962  1.3369  0.8946  0.7119
   11bbb     C4  310   2.680   9.792   5.902 -0.1619  0.1249 -0.3238
   11bbb     H7  311   2.743   9.839   5.825  0.4767  2.1773  1.3284
   11bbb     H8  312   2.620   9.871   5.950 -0.8178 -0.5629  0.0068
   11bbb     C5  313   2.803   9.758   6.324  0.0714 -0.1085  0.4891
   11bbb     H9  314   2.705   9.716   6.298  0.7930 -0.4892 -1.8467
   11bbb    H10  315   2.777   9.860   6.356 -3.1602 -0.7632  0.2516
   11bbb     C6  316   3.091   9.950   6.034 -0.0616 -0.4029  0.3187
   11bbb    H11  317   3.161   9.904   6.104 -1.6498  1.7864  3.5992
   11bbb    H12  318   3.039  10.033   6.083 -0.7465  0.6844 -2.0945
   11bbb     C7  319   2.591   9.680   5.839  0.6136 -0.0216  0.0152
   11bbb    H13  320   2.549   9.622   5.922 -0.6565  0.5252 -0.2244
   11bbb    H14  321   2.653   9.620   5.773 -1.0607 -0.8458 -0.8704
   11bbb     C8  322   3.148  10.003   5.905 -0.9266  0.3347 -0.4684
   11bbb    H15  323   3.074  10.020   5.826 -0.3007  0.4578 -1.0410
   11bbb    H16  324   3.204  10.098   5.905  0.7607 -0.6058 -1.7721
   11bbb     C9  325   2.847   9.677   6.448 -0.1723 -0.4898 -0.0496
   11bbb    H17  326   2.784   9.699   6.535  0.8379  2.2167  0.1047
   11bbb    H18  327   2.948   9.712   6.470 -0.3122  0.6366 -1.0594
   11bbb     O1  328   2.474   9.740   5.771 -0.4125  0.2727  0.3074
   11bbb    H19  329   2.821   9.906   6.108  0.9481 -0.0485  0.6489
   12bbb     N1  330   2.573   9.771   4.763 -0.7065  0.0697 -0.2438
   12bbb     C1  331   2.714   9.727   4.785  0.2013  0.4126  0.3486
   12bbb     H1  332   2.735   9.669   4.694 -1.0819 -1.7949  1.3621
   12bbb     H2  333   2.704   9.660   4.871  0.5141 -1.1791 -0.7905
   12bbb     C2  334   2.492   9.660   4.700  0.4222  0.2060  0.3855
   12bbb     H3  335   2.394   9.708   4.690  1.0603  1.2122 -2.0655
   12bbb     H4  336   2.501   9.576   4.768  0.9971 -0.0246  0.0368
   12bbb     C3  337   2.519   9.813   4.898 -0.7026 -0.7007 -0.4125
   12bbb     H5  338   2.590   9.880   4.946 -1.6530  0.1884 -0.2111
   12bbb     H6  339   2.504   9.720   4.954  0.0393 -1.7378 -1.8622
   12bbb     C4  340   2.392   9.899   4.897 -0.0397 -0.1491 -0.2902
   12bbb     H7  341   2.303   9.847   4.858 -0.5130  0.0377  0.5272
   12bbb     H8  342   2.401   9.993   4.841  0.7180  0.9937  1.6401
   12bbb     C5  343   2.827   9.828   4.812  0.0917 -0.0721 -0.1656
   12bbb     H9  344   2.788   9.903   4.880 -0.1357 -0.8595  0.5898
   12bbb    H10  345   2.830   9.887   4.719 -0.9852  1.1955  0.5724
   12bbb     C6  346   2.533   9.613   4.556  0.1964 -0.1285 -0.3093
   12bbb    H11  347   2.447   9.565   4.508  1.4904 -1.5320 -1.3264
   12bbb    H12  348   2.608   9.533   4.556 -0.9444 -1.3776 -4.1755
   12bbb     C7  349   2.342   9.954   5.031  0.3380  0.2644 -0.3404
   12bbb    H13  350   2.254  10.016   5.008 -0.9488 -1.4124 -0.1164
   12bbb    H14  351   2.418  10.011   5.086  0.7355 -0.4248 -0.1596
   12bbb     C8  352   2.587   9.729   4.463 -0.4600  0.3202 -0.6911
   12bbb    H15  353   2.583   9.695   4.359 -0.9284 -2.7432  0.2078
   12bbb    H16  354   2.523   9.817   4.477  2.0935  2.3679 -1.1459
   12bbb     C9  355   2.957   9.776   4.863 -0.7307 -0.0615 -0.0964
   12bbb    H17  356   3.034   9.852   4.844 -0.4832  0.0184  1.1606
   12bbb    H18  357   2.990   9.687   4.807 -2.6178 -0.3556 -0.8253
   12bbb     O1  358   2.295   9.839   5.108 -0.1207  0.2250 -0.4391
   12bbb    H19  359   2.577   9.854   4.702  1.2629  0.3666  0.2511
   13bbb     N1  360   1.715  10.829   4.981  0.5987 -0.0952  0.1134
   13bbb     C1  361   1.861  10.781   4.948  0.4142 -0.2665  0.4278
   13bbb     H1  362   1.870  10.783   4.839  1.4277 -0.0002  0.5148
   13bbb     H2  363   1.857  10.676   4.978 -0.4529  0.0842  1.6056
   13bbb     C2  364   1.614  10.745   4.895  0.1774  0.1799  0.3602
   13bbb     H3  365   1.518  10.744   4.948  1.3423 -1.8471  2.6655
   13bbb     H4  366   1.644  10.640   4.895 -0.1487  0.0805 -0.6724
   13bbb     C3  367   1.689  10.821   5.133  0.5405  0.3739  0.0684
   13bbb     H5  368   1.760  10.893   5.174 -0.1009 -0.1551  2.2421
   13bbb     H6  369   1.712  10.724   5.177 -0.4750  0.8378  1.7075
   13bbb     C4  370   1.540  10.856   5.166 -0.1199 -0.4794 -0.3019
   13bbb     H7  371   1.469  10.773   5.155 -0.5130 -0.0366 -1.2883
   13bbb     H8  372   1.500  10.922   5.087  0.8152  0.8114  0.2691
   13bbb     C5  373   1.970  10.864   5.012 -0.6430  0.6427  0.2950
   13bbb     H9  374   1.960  10.877   5.121  2.8616 -1.4732  1.0522
   13bbb    H10  375   1.967  10.969   4.981 -4.9972  0.4175 -0.5702
   13bbb     C6  376   1.587  10.798   4.751  0.6556 -0.3745 -0.4084
   13bbb    H11  377   1.671  10.767   4.687  1.1473 -0.9153  0.4761
   13bbb    H12  378   1.564  10.905   4.743 -0.5511 -0.6301 -0.5484
   13bbb     C7  379   1.539  10.936   5.299  0.5954 -0.5383  0.1839
   13bbb    H13  380   1.454  11.005   5.299  0.0415 -1.1922 -0.7546
   13bbb    H14  381   1.628  11.001   5.306 -0.4972  1.1917 -1.1336
   13bbb     C8  382   1.461  10.727   4.703 -0.0700 -0.0539  0.1157
   13bbb    H15  383   1.377  10.769   4.759  0.6632  0.0815  1.1287
   13bbb    H16  384   1.432  10.763   4.603  0.1149 -1.3313 -0.4204
   13bbb     C9  385   2.106  10.787   4.997 -0.3997  0.0160 -0.2123
   13bbb    H17  386   2.102  10.679   5.013 -1.5525  0.2697  1.4720
   13bbb    H18  387   2.178  10.816   5.075  0.1702 -1.6167 -0.0976
   13bbb     O1  388   1.536  10.836   5.407  0.0991  0.2791  0.2428
   13bbb    H19  389   1.707  10.926   4.947 -1.8355 -0.2760  0.0340
   14bbb     N1  390   1.343  11.427   6.088 -0.1508  0.3785 -0.3297
   14bbb     C1  391   1.475  11.436   6.156 -0.4845 -0.0094  0.4229
   14bbb     H1  392   1.549  11.407   6.081  0.9526  0.4415  1.6154
   14bbb     H2  393   1.488  11.364   6.237 -0.0978  0.0854  0.4471
   14bbb     C2  394   1.364  11.486   5.950  0.3840 -0.4523  0.2920
   14bbb     H3  395   1.431  11.413   5.903  0.4597 -0.0568 -0.2277
   14bbb     H4  396   1.435  11.568   5.961  1.3585 -1.4045  1.3400
   14bbb     C3  397   1.319  11.282   6.076  0.5338 -0.4203 -0.2738
   14bbb     H5  398   1.342  11.228   6.167 -0.7991 -0.3867  0.1086
   14bbb     H6  399   1.384  11.249   5.995  1.3184 -3.7390  1.5345
   14bbb     C4  400   1.168  11.249   6.076 -0.1670  0.2751 -0.0501
   14bbb     H7  401   1.114  11.285   5.987 -0.8959 -1.2832 -0.2728
   14bbb     H8  402   1.133  11.305   6.164 -3.0868  2.1589 -2.2223
   14bbb     C5  403   1.512  11.572   6.219  0.1324  0.6678 -0.6087
   14bbb     H9  404   1.510  11.648   6.140  0.0884  0.4263 -0.8420
   14bbb    H10  405   1.616  11.561   6.251 -0.1817  0.0413  0.2425
   14bbb     C6  406   1.238  11.524   5.867 -0.3142 -0.1115 -0.0074
   14bbb    H11  407   1.161  11.573   5.928  0.6891 -1.9258  2.8813
   14bbb    H12  408   1.183  11.436   5.833 -1.2363 -0.4363  2.1385
   14bbb     C7  409   1.145  11.099   6.096 -0.2990 -0.9358 -0.0893
   14bbb    H13  410   1.042  11.083   6.130 -0.4788 -0.5161 -0.4407
   14bbb    H14  411   1.215  11.047   6.164 -0.5342 -1.7027 -0.4208
   14bbb     C8  412   1.278  11.617   5.747  0.6559 -0.0420  0.0232
   14bbb    H15  413   1.333  11.564   5.669  1.5328 -2.2252  2.0166
   14bbb    H16  414   1.194  11.663   5.693  1.3875  2.0544  0.5387
   14bbb     C9  415   1.446  11.609   6.355 -0.2256 -0.3693 -0.3928
   14bbb    H17  416   1.338  11.615   6.337 -0.0962  0.4010 -0.9684
   14bbb    H18  417   1.485  11.709   6.377  1.2994 -0.5355 -2.0739
   14bbb     O1  418   1.150  11.042   5.968 -0.5111  0.4031  0.0277
   14bbb    H19  419   1.283  11.482   6.152  0.9203  0.9644  0.1970
   15bbb     N1  420  -1.061  11.017   4.880  0.1660  0.0219  0.0266
   15bbb     C1  421  -0.958  11.012   4.771  1.0616  0.3129  0.6943
   15bbb     H1  422  -1.010  10.982   4.680  3.1029 -0.5194 -0.2766
   15bbb     H2  423  -0.905  10.920   4.797 -2.4698 -2.3963 -0.7812
   15bbb     C2  424  -1.171  11.107   4.832  0.0635  0.1938 -0.2537
   15bbb     H3  425  -1.234  11.047   4.765 -2.2440  1.6026  0.5317
   15bbb     H4  426  -1.131  11.193   4.779  1.9418  0.2193  1.1252
   15bbb     C3  427  -1.090  10.875   4.915  0.5060 -0.4094 -0.4004
   15bbb     H5  428  -1.084  10.807   4.829 -0.5767 -2.7408  1.2442
   15bbb     H6  429  -1.189  10.863   4.959  1.8095 -0.9530  2.6145
   15bbb     C4  430  -1.011  10.817   5.027  0.9303 -0.6332 -0.1233
   15bbb     H7  431  -1.023  10.891   5.107 -0.5414  0.0697 -0.9290
   15bbb     H8  432  -0.904  10.805   5.009  0.6859 -2.4772 -0.5480
   15bbb     C5  433  -0.879  11.148   4.763 -0.6586 -0.1486  0.0723
   15bbb     H9  434  -0.937  11.242   4.758  0.0569  0.2504 -3.9146
   15bbb    H10  435  -0.828  11.151   4.667 -0.0615 -0.7102  0.3684
   15bbb     C6  436  -1.276  11.174   4.927  0.4335 -0.4143 -0.5206
   15bbb    H11  437  -1.228  11.235   5.005 -0.4042  0.2434 -0.5027
   15bbb    H12  438  -1.326  11.097   4.987  2.6786 -3.5110 -2.3363
   15bbb     C7  439  -1.080  10.680   5.061 -0.1532  0.0586  0.0830
   15bbb    H13  440  -1.189  10.684   5.068 -0.2626  0.9260 -1.5810
   15bbb    H14  441  -1.045  10.651   5.160 -2.5401 -0.7758  0.7469
   15bbb     C8  442  -1.370  11.262   4.860  0.7511 -0.3024  0.1322
   15bbb    H15  443  -1.443  11.307   4.929 -0.8449 -0.8933 -1.0986
   15bbb    H16  444  -1.315  11.344   4.814 -1.1690  1.8808  1.5271
   15bbb     C9  445  -0.780  11.161   4.884  0.4164  0.4722  0.1020
   15bbb    H17  446  -0.722  11.254   4.872 -0.5255  1.1790  0.8949
   15bbb    H18  447  -0.715  11.073   4.876  0.2168  0.3945 -0.7865
   15bbb     O1  448  -1.041  10.582   4.958  0.3395 -0.4200  0.3675
   15bbb    H19  449  -1.014  11.062   4.959 -1.3624 -0.5177  1.3013
   16bbb     N1  450  -0.588  10.205   4.062 -0.0785 -0.3507  0.5961
   16bbb     C1  451  -0.594  10.149   3.921  0.6633  0.0315 -0.4825
   16bbb     H1  452  -0.698  10.144   3.889  0.8638 -0.1882 -1.1193
   16bbb     H2  453  -0.556  10.047   3.932  0.7925  0.3125  2.2703
   16bbb     C2  454  -0.444  10.236   4.098 -0.5597 -0.2522 -0.1295
   16bbb     H3  455  -0.406  10.317   4.036 -0.2227 -0.4285 -0.1545
   16bbb     H4  456  -0.387  10.144   4.079 -1.3989 -0.9248  0.5282
   16bbb     C3  457  -0.668  10.334   4.066  0.8762 -0.1565  0.0048
   16bbb     H5  458  -0.642  10.404   3.986 -0.8839  0.0896 -0.3811
   16bbb     H6  459  -0.650  10.390   4.159 -1.6316  1.5585 -0.4271
   16bbb     C4  460  -0.819  10.304   4.076  0.1320 -0.2785  0.5411
   16bbb     H7  461  -0.855  10.217   4.131  0.1863 -0.9512 -0.4606
   16bbb     H8  462  -0.859  10.288   3.975 -0.9848  1.4304  0.6660
   16bbb     C5  463  -0.514  10.223   3.809  0.4092  0.3797  0.1348
   16bbb     H9  464  -0.406  10.226   3.831  0.7004  0.0641 -1.1933
   16bbb    H10  465  -0.548  10.327   3.807 -0.8050  0.0095 -2.9273
   16bbb     C6  466  -0.414  10.285   4.247  0.3347  0.3155  0.7307
   16bbb    H11  467  -0.404  10.194   4.308  2.3189  0.0344  0.0655
   16bbb    H12  468  -0.483  10.350   4.301 -1.2016 -0.9962  0.4019
   16bbb     C7  469  -0.903  10.422   4.130 -0.1598  0.5404  0.2839
   16bbb    H13  470  -1.011  10.402   4.125 -0.5884  2.4308  1.3151
   16bbb    H14  471  -0.884  10.509   4.066  0.6212 -1.4558 -2.4009
   16bbb     C8  472  -0.280  10.349   4.250  0.3214 -0.8338 -0.4742
   16bbb    H15  473  -0.251  10.382   4.351  1.7972 -2.6075 -0.2630
   16bbb    H16  474  -0.204  10.271   4.234  1.0046 -0.1471 -0.6644
   16bbb     C9  475  -0.542  10.165   3.664  0.6116  0.2903  0.9361
   16bbb    H17  476  -0.502  10.237   3.592 -2.2182  0.6182 -0.4315
   16bbb    H18  477  -0.650  10.153   3.649  1.0647 -3.0981 -0.4025
   16bbb     O1  478  -0.859  10.446   4.264 -0.5282  0.2567  0.7014
   16bbb    H19  479  -0.623  10.134   4.128 -2.2530 -0.7243 -0.8818
   17bbb     N1  480  -1.537   9.955   6.103  0.0786  0.1842 -0.5899
   17bbb     C1  481  -1.662   9.883   6.149  0.2768 -0.8004  0.1324
   17bbb     H1  482  -1.700   9.928   6.241  0.5479 -0.8448  0.2649
   17bbb     H2  483  -1.630   9.783   6.180 -0.6789 -1.1137  0.1488
   17bbb     C2  484  -1.459  10.007   6.223  0.2954 -0.1717  0.2181
   17bbb     H3  485  -1.354  10.020   6.193  1.1695 -1.0231  2.6264
   17bbb     H4  486  -1.455   9.934   6.304 -0.1623 -2.3302 -1.6025
   17bbb     C3  487  -1.453   9.860   6.022 -0.3481 -0.0107  0.0103
   17bbb     H5  488  -1.360   9.907   5.988  0.5374 -0.6885  1.4057
   17bbb     H6  489  -1.515   9.831   5.937  0.1503 -2.5284  0.4168
   17bbb     C4  490  -1.389   9.731   6.091  0.0061  0.1338  0.5459
   17bbb     H7  491  -1.474   9.687   6.144  1.3073 -0.6709  2.0440
   17bbb     H8  492  -1.311   9.749   6.165  0.9107 -0.6110 -0.1995
   17bbb     C5  493  -1.784   9.874   6.056  0.0800 -0.2072  0.0594
   17bbb     H9  494  -1.747   9.857   5.954 -1.6116  1.3372 -0.8453
   17bbb    H10  495  -1.837   9.969   6.049 -0.3334 -0.5565 -2.2774
   17bbb     C6  496  -1.504  10.144   6.279  0.1368 -0.7176 -0.2455
   17bbb    H11  497  -1.452  10.160   6.374 -2.0899  0.7912  0.8312
   17bbb    H12  498  -1.609  10.150   6.311  0.1843  0.6919 -0.2774
   17bbb     C7  499  -1.350   9.629   5.982 -0.3816 -0.0594  0.4028
   17bbb    H13  500  -1.438   9.613   5.919 -0.2234  1.2344 -0.1848
   17bbb    H14  501  -1.329   9.532   6.028  0.1363 -0.2097 -0.1344
   17bbb     C8  502  -1.476  10.266   6.192 -0.0068  0.3623 -0.3489
   17bbb    H15  503  -1.372  10.253   6.160  0.3128 -0.2052  0.8404
   17bbb    H16  504  -1.542  10.266   6.105  2.4196 -0.6089 -2.2910
   17bbb     C9  505  -1.885   9.771   6.103 -0.0264  0.3325 -0.0240
   17bbb    H17  506  -1.840   9.671   6.096 -2.3121 -0.8578  1.0056
   17bbb    H18  507  -1.979   9.785   6.047 -0.9546  1.6882  1.7658
   17bbb     O1  508  -1.245   9.675   5.892 -0.1220  0.4231  0.0476
   17bbb    H19  509  -1.556  10.034   6.040  1.8258  0.8193 -0.4018
   18bbb     N1  510  -1.961   9.736   5.319  0.0393  0.5564  0.2519
   18bbb     C1  511  -2.103   9.787   5.326 -0.2782  0.9551 -0.1072
   18bbb     H1  512  -2.166   9.709   5.285 -1.8162  1.4109  1.3121
   18bbb     H2  513  -2.115   9.875   5.262 -2.4037  0.0337 -1.0464
   18bbb     C2  514  -1.931   9.724   5.171  0.0211  0.7753  0.2344
   18bbb     H3  515  -1.824   9.713   5.152 -0.2102 -0.5312 -0.4231
   18bbb     H4  516  -1.963   9.813   5.117 -0.3202  0.7933  0.4640
   18bbb     C3  517  -1.871   9.847   5.377  0.6336  0.3627 -0.0228
   18bbb     H5  518  -1.907   9.863   5.478  1.0027 -1.1446  0.3765
   18bbb     H6  519  -1.895   9.934   5.316 -0.7686  1.9252  2.6110
   18bbb     C4  520  -1.715   9.821   5.376  0.6955  0.3996  0.4280
   18bbb     H7  521  -1.674   9.780   5.283 -1.1060 -0.0190 -0.2165
   18bbb     H8  522  -1.709   9.745   5.455 -0.2306 -1.9565 -1.6435
   18bbb     C5  523  -2.176   9.816   5.453 -0.8967 -0.1846 -0.9222
   18bbb     H9  524  -2.122   9.886   5.518 -3.1825 -0.8644  1.9086
   18bbb    H10  525  -2.174   9.725   5.514 -0.4356 -0.4233 -1.2876
   18bbb     C6  526  -1.997   9.597   5.106 -0.5724 -0.4080  0.2236
   18bbb    H11  527  -2.102   9.585   5.133 -0.4550  0.0802  0.9509
   18bbb    H12  528  -1.946   9.504   5.136 -0.5250 -0.5983 -0.4410
   18bbb     C7  529  -1.633   9.946   5.416 -0.4038  0.0438 -0.0738
   18bbb    H13  530  -1.682  10.001   5.497 -2.9188 -0.7779 -0.9563
   18bbb    H14  531  -1.626  10.001   5.322  0.1138  0.3912  0.1621
   18bbb     C8  532  -1.978   9.609   4.957  0.2057 -0.2169 -0.1924
   18bbb    H15  533  -2.027   9.699   4.917  0.8807 -0.1981 -0.9827
   18bbb    H16  534  -1.870   9.611   4.937  0.7731  0.3926  2.5208
   18bbb     C9  535  -2.321   9.861   5.432 -0.6575 -0.2918 -0.7195
   18bbb    H17  536  -2.331   9.943   5.360 -1.5826 -1.8381 -2.3962
   18bbb    H18  537  -2.358   9.897   5.529 -0.2930 -1.8629  0.0437
   18bbb     O1  538  -1.498   9.906   5.455  0.4615 -0.3042  0.2423
   18bbb    H19  539  -1.954   9.643   5.364 -1.2398 -0.0379 -0.7220
   19bbb     N1  540   1.457   8.627   6.127 -0.1972  0.0251 -0.6731
   19bbb     C1  541   1.397   8.540   6.016 -0.1706 -0.3429 -0.5740
   19bbb     H1  542   1.384   8.599   5.925 -1.3462 -0.3924 -0.4489
   19bbb     H2  543   1.295   8.517   6.045  0.4115 -1.7417  0.4990
   19bbb     C2  544   1.584   8.691   6.073  0.2567 -0.6879 -0.2741
   19bbb     H3  545   1.554   8.771   6.004  1.6886  1.8915  1.8961
   19bbb     H4  546   1.641   8.616   6.019  0.4843 -1.2026  0.6652
   19bbb     C3  547   1.356   8.740   6.171  0.4007 -0.0452  0.2371
   19bbb     H5  548   1.377   8.772   6.273  1.7615 -1.9431  0.6050
   19bbb     H6  549   1.258   8.692   6.181  0.4232  0.1724  1.8394
   19bbb     C4  550   1.348   8.857   6.069 -0.1380  0.4110  0.5694
   19bbb     H7  551   1.333   8.806   5.973  0.8434 -0.1489  0.6920
   19bbb     H8  552   1.442   8.914   6.069  0.3740 -0.2686 -2.4193
   19bbb     C5  553   1.476   8.407   5.989 -0.2339 -0.4866 -0.4560
   19bbb     H9  554   1.575   8.424   5.945  0.2166 -1.4444  0.1445
   19bbb    H10  555   1.415   8.361   5.910 -0.4429  0.8472 -1.0960
   19bbb     C6  556   1.670   8.756   6.189 -1.0097  0.7246 -0.1577
   19bbb    H11  557   1.666   8.695   6.280 -0.2494 -1.1053 -1.2969
   19bbb    H12  558   1.624   8.851   6.218  0.1552  1.7307 -1.5151
   19bbb     C7  559   1.228   8.953   6.099 -0.0339 -0.3822  0.0732
   19bbb    H13  560   1.223   9.028   6.020 -0.6662 -1.1777 -0.6620
   19bbb    H14  561   1.238   9.012   6.191  0.3000  0.8178 -0.7127
   19bbb     C8  562   1.815   8.762   6.129  0.5347  0.0099 -0.9079
   19bbb    H15  563   1.825   8.825   6.040 -0.3540 -0.4614 -1.3523
   19bbb    H16  564   1.886   8.797   6.206  0.8521 -0.8289 -0.8015
   19bbb     C9  565   1.467   8.319   6.117  0.0591 -0.2075  0.8432
   19bbb    H17  566   1.478   8.215   6.082 -2.6533 -0.1333 -0.4727
   19bbb    H18  567   1.369   8.312   6.165  0.5968  0.5399  2.0791
   19bbb     O1  568   1.102   8.875   6.099 -0.5288 -0.9392 -0.3731
   19bbb    H19  569   1.477   8.572   6.212 -0.8671  0.0932 -0.4681
   20bbb     N1  570   0.320   8.326   5.540 -0.9374 -0.4256 -0.2933
   20bbb     C1  571   0.244   8.434   5.465  0.7758  0.6595 -0.6686
   20bbb     H1  572   0.271   8.415   5.361  1.4936  0.3782 -0.4376
   20bbb     H2  573   0.285   8.525   5.509 -0.4753  0.1815  1.6064
   20bbb     C2  574   0.298   8.185   5.478  0.5678 -0.4644 -0.0520
   20bbb     H3  575   0.310   8.191   5.370 -0.1238  1.1598 -0.0559
   20bbb     H4  576   0.197   8.154   5.504  0.0940  0.9058 -0.2285
   20bbb     C3  577   0.470   8.363   5.548  0.6218 -0.6956  0.2342
   20bbb     H5  578   0.528   8.304   5.618 -0.3104 -0.1005  1.5627
   20bbb     H6  579   0.459   8.454   5.607 -1.3408 -2.3398  2.5974
   20bbb     C4  580   0.543   8.397   5.418 -0.0975  0.1902 -0.2255
   20bbb     H7  581   0.482   8.469   5.362  0.4105  0.7040 -0.1193
   20bbb     H8  582   0.548   8.313   5.349  1.1619  0.1577 -0.1137
   20bbb     C5  583   0.083   8.439   5.483 -0.3308 -0.5996 -1.0779
   20bbb     H9  584   0.058   8.422   5.588 -0.6765  1.6267 -0.7687
   20bbb    H10  585   0.044   8.354   5.424  0.8877 -0.4514 -2.1474
   20bbb     C6  586   0.395   8.073   5.532  0.3736 -0.0764  0.5737
   20bbb    H11  587   0.499   8.102   5.509 -0.1059  0.1031 -1.5524
   20bbb    H12  588   0.371   7.984   5.473  2.5777  0.4815 -1.3245
   20bbb     C7  589   0.685   8.443   5.452 -0.3231 -0.0341 -0.8497
   20bbb    H13  590   0.743   8.458   5.360 -0.1068  2.2475 -0.4169
   20bbb    H14  591   0.729   8.361   5.509 -1.3175 -0.2176 -0.3271
   20bbb     C8  592   0.396   8.042   5.680 -0.2104  0.0385  0.1183
   20bbb    H15  593   0.449   7.948   5.696 -0.7065 -0.3703 -0.5999
   20bbb    H16  594   0.459   8.117   5.729  1.5340 -0.2577 -1.5802
   20bbb     C9  595   0.013   8.571   5.449  0.3072 -0.4743  0.0936
   20bbb    H17  596   0.049   8.650   5.516  2.4812  0.0315 -1.5779
   20bbb    H18  597  -0.092   8.548   5.473 -0.4978  1.7150 -1.0186
   20bbb     O1  598   0.677   8.570   5.523 -0.2205 -0.6152  0.5718
   20bbb    H19  599   0.283   8.324   5.637  0.4650 -4.2988  0.3634
   21bbb     N1  600  -0.612   8.958   7.634 -0.0071  0.2719  0.3731
   21bbb     C1  601  -0.696   8.906   7.745  1.2465  0.3038  0.4912
   21bbb     H1  602  -0.665   8.947   7.841  0.8504  2.3122 -0.1862
   21bbb     H2  603  -0.664   8.802   7.751 -1.1117 -0.5274 -0.2297
   21bbb     C2  604  -0.465   8.927   7.666 -0.0462  0.1761 -0.1117
   21bbb     H3  605  -0.447   8.822   7.641  0.4695  0.1087  0.4904
   21bbb     H4  606  -0.442   8.953   7.770  1.9589 -0.1032 -0.4339
   21bbb     C3  607  -0.629   8.882   7.500 -0.0378 -0.3792  0.1888
   21bbb     H5  608  -0.652   8.776   7.506  0.9605 -0.6428 -0.4624
   21bbb     H6  609  -0.535   8.886   7.444 -0.9702 -1.3136 -1.5122
   21bbb     C4  610  -0.736   8.933   7.404  0.5009  0.1199  0.4460
   21bbb     H7  611  -0.721   9.040   7.388 -0.0420  0.4045  1.7306
   21bbb     H8  612  -0.830   8.933   7.459  0.4642  0.8431  0.3944
   21bbb     C5  613  -0.847   8.926   7.749  0.8079  0.2072  0.0502
   21bbb     H9  614  -0.901   8.880   7.666  0.2995  0.2144  0.3727
   21bbb    H10  615  -0.863   9.035   7.741  0.7235  0.1877 -0.0313
   21bbb     C6  616  -0.362   9.021   7.602 -0.2338 -0.0239  0.7330
   21bbb    H11  617  -0.379   9.037   7.495 -0.6104  0.9915  0.9368
   21bbb    H12  618  -0.262   8.979   7.619 -0.7174 -1.4208  0.2954
   21bbb     C7  619  -0.737   8.859   7.265 -0.0167  0.5187 -0.5326
   21bbb    H13  620  -0.799   8.922   7.201  0.6289  1.2611 -0.4352
   21bbb    H14  621  -0.782   8.758   7.266  3.0881 -0.9776 -0.8849
   21bbb     C8  622  -0.355   9.160   7.673 -0.2727  0.0844  0.8441
   21bbb    H15  623  -0.319   9.153   7.776 -0.0134  3.6098  1.1070
   21bbb    H16  624  -0.286   9.223   7.616  0.4240 -2.5059 -1.3807
   21bbb     C9  625  -0.904   8.864   7.878  0.4944 -0.5157  0.0897
   21bbb    H17  626  -1.012   8.885   7.877  0.2428 -1.3080 -3.4361
   21bbb    H18  627  -0.864   8.903   7.972  0.7268 -0.9072  0.1536
   21bbb     O1  628  -0.601   8.842   7.210 -0.0996  0.0908 -0.0637
   21bbb    H19  629  -0.616   9.061   7.629  2.5380  0.4649  0.6228
   22bbb     N1  630  -0.094   8.126   7.233  0.1189  0.2505  0.0830
   22bbb     C1  631  -0.013   8.158   7.358  0.1143 -0.3158  0.5238
   22bbb     H1  632  -0.057   8.111   7.446  0.2188  2.3743  2.0888
   22bbb     H2  633  -0.021   8.266   7.368 -1.3951 -0.5855  2.9192
   22bbb     C2  634  -0.244   8.091   7.268 -0.3501  0.4226 -0.8190
   22bbb     H3  635  -0.315   8.144   7.204 -2.3425  0.0490  0.9743
   22bbb     H4  636  -0.260   8.129   7.369 -1.0216  0.2844 -0.8657
   22bbb     C3  637  -0.098   8.239   7.129 -0.2094  0.2029  0.0975
   22bbb     H5  638   0.006   8.269   7.125  0.6579 -1.9725  2.8520
   22bbb     H6  639  -0.140   8.333   7.165  1.2223  1.1307 -0.5963
   22bbb     C4  640  -0.147   8.212   6.980  0.4678 -0.6135  0.8097
   22bbb     H7  641  -0.253   8.187   6.991  0.8604 -2.0895  1.5579
   22bbb     H8  642  -0.094   8.129   6.931 -1.4340 -0.4478 -1.6747
   22bbb     C5  643   0.137   8.118   7.351 -0.8254  0.2347  0.5793
   22bbb     H9  644   0.191   8.143   7.443  0.4825 -1.6860  0.3966
   22bbb    H10  645   0.191   8.165   7.267  0.3307  1.1378  1.7863
   22bbb     C6  646  -0.280   7.942   7.265 -0.4316 -0.0235 -0.2145
   22bbb    H11  647  -0.374   7.931   7.321  0.4794 -2.7967  0.9738
   22bbb    H12  648  -0.203   7.886   7.320 -0.0193 -0.2821 -1.0461
   22bbb     C7  649  -0.122   8.325   6.880  0.3308 -0.5320 -0.0327
   22bbb    H13  650  -0.197   8.322   6.800 -0.6483  0.6877  0.7817
   22bbb    H14  651  -0.027   8.301   6.831 -0.0844 -0.9465 -0.6437
   22bbb     C8  652  -0.279   7.881   7.124 -0.2720 -0.2255 -0.3082
   22bbb    H15  653  -0.334   7.957   7.067 -0.3064  0.7863  1.0050
   22bbb    H16  654  -0.179   7.884   7.080 -1.2685  0.8553 -2.6766
   22bbb     C9  655   0.149   7.968   7.334  0.4199  0.2179 -0.0458
   22bbb    H17  656   0.080   7.924   7.406  1.4907 -0.9812  0.2877
   22bbb    H18  657   0.250   7.944   7.369  1.4687  2.5058 -1.2838
   22bbb     O1  658  -0.136   8.459   6.939  0.0194 -0.1079 -0.1280
   22bbb    H19  659  -0.049   8.043   7.192 -0.2816 -0.2130  0.5632
   23bbb     N1  660   3.660  10.149   5.688  0.0348 -0.6621  0.0369
   23bbb     C1  661   3.603  10.294   5.694 -0.1243  0.1464 -0.1272
   23bbb     H1  662   3.685  10.363   5.718  0.0410  0.3077 -1.1390
   23bbb     H2  663   3.542  10.306   5.784 -0.2567 -1.1029 -0.0345
   23bbb     C2  664   3.749  10.136   5.814 -0.2042 -0.5417  0.2255
   23bbb     H3  665   3.685  10.144   5.902 -1.5684  0.8140 -0.8362
   23bbb     H4  666   3.828  10.211   5.817  0.8839 -1.6751  1.6469
   23bbb     C3  667   3.545  10.044   5.666  0.1409 -0.6222  0.0204
   23bbb     H5  668   3.594   9.946   5.671  2.4819  0.5120  0.8474
   23bbb     H6  669   3.498  10.058   5.568 -1.3499  1.0107  0.9039
   23bbb     C4  670   3.438  10.043   5.774  0.4942  0.8740 -0.1860
   23bbb     H7  671   3.397  10.143   5.791  0.5676  0.7222  0.9487
   23bbb     H8  672   3.493  10.014   5.864  2.0284  0.8673 -1.0836
   23bbb     C5  673   3.536  10.346   5.563 -1.1419  0.0722  0.8165
   23bbb     H9  674   3.467  10.274   5.518 -1.7077  0.9208  0.2807
   23bbb    H10  675   3.624  10.363   5.499 -0.9472  0.4550  1.1821
   23bbb     C6  676   3.817   9.993   5.823  0.0246  0.2135  0.2048
   23bbb    H11  677   3.874   9.974   5.731 -1.5753  1.8193 -1.1759
   23bbb    H12  678   3.741   9.915   5.835 -0.1052  0.0929 -1.1747
   23bbb     C7  679   3.322   9.943   5.742  0.5501  0.1518 -0.3780
   23bbb    H13  680   3.365   9.847   5.709  0.0368 -0.4502  0.6318
   23bbb    H14  681   3.265   9.970   5.653  0.0801 -0.2948 -0.2176
   23bbb     C8  682   3.912   9.985   5.942 -0.3201 -0.8100 -0.3169
   23bbb    H15  683   3.855   9.984   6.036  0.7486  0.4752  0.3859
   23bbb    H16  684   3.969   9.891   5.944  0.9113 -0.0963 -1.1247
   23bbb     C9  685   3.470  10.483   5.581  0.0187  0.8875  0.0283
   23bbb    H17  686   3.393  10.484   5.659  1.2811 -1.6861  1.4340
   23bbb    H18  687   3.418  10.501   5.486 -0.4856  0.4914  0.2260
   23bbb     O1  688   3.242   9.906   5.860 -0.1941 -0.4634 -0.4290
   23bbb    H19  689   3.714  10.142   5.601 -1.6953 -0.6969 -1.0762
   24bbb     N1  690   2.794   9.269   6.667 -0.2394 -0.0073 -0.1556
   24bbb     C1  691   2.659   9.256   6.717 -0.3704 -0.4916 -0.5223
   24bbb     H1  692   2.684   9.240   6.822  0.4679  0.9574 -0.4755
   24bbb     H2  693   2.630   9.159   6.676 -0.0567  0.3900 -3.0331
   24bbb     C2  694   2.865   9.141   6.725 -0.2259 -0.0840 -0.2305
   24bbb     H3  695   2.934   9.103   6.649  1.1161  1.0230  0.3868
   24bbb     H4  696   2.792   9.065   6.752 -1.4110  0.7737 -0.9647
   24bbb     C3  697   2.795   9.257   6.515 -0.4016  0.1804  0.1696
   24bbb     H5  698   2.705   9.313   6.488  0.0201 -0.1053 -2.0871
   24bbb     H6  699   2.779   9.152   6.489  2.0596 -0.5241  1.2553
   24bbb     C4  700   2.918   9.309   6.432 -0.2707 -0.5105 -0.0149
   24bbb     H7  701   2.898   9.281   6.327 -1.4254 -1.1245  0.3489
   24bbb     H8  702   3.013   9.260   6.455  1.1561  1.6403 -1.1033
   24bbb     C5  703   2.552   9.368   6.681  0.0768  0.4313 -0.4912
   24bbb     H9  704   2.458   9.328   6.721  1.5345 -0.7764  1.9588
   24bbb    H10  705   2.528   9.384   6.576 -1.8706 -1.6290 -0.4239
   24bbb     C6  706   2.944   9.175   6.855  0.6328  0.1655 -0.3857
   24bbb    H11  707   2.889   9.247   6.916 -2.1679 -0.4762 -1.9704
   24bbb    H12  708   3.033   9.234   6.828  0.9193  0.0723  0.3271
   24bbb     C7  709   2.955   9.459   6.449  1.3132  0.3923 -0.1629
   24bbb    H13  710   3.036   9.476   6.378  0.4676 -2.5437 -2.0214
   24bbb    H14  711   2.979   9.479   6.554 -1.1534  0.5650  0.4413
   24bbb     C8  712   2.985   9.058   6.943 -0.3998  0.5292 -0.6108
   24bbb    H15  713   3.060   9.004   6.885 -0.8219 -0.2621 -0.4358
   24bbb    H16  714   3.032   9.088   7.037  1.9256 -2.2248 -0.7396
   24bbb     C9  715   2.581   9.498   6.758 -0.2089  0.2382 -0.8165
   24bbb    H17  716   2.494   9.560   6.777 -1.1552 -0.9515 -1.1166
   24bbb    H18  717   2.649   9.545   6.685 -2.3367  0.3648 -2.8491
   24bbb     O1  718   2.842   9.539   6.410  0.1992 -0.0821  0.0319
   24bbb    H19  719   2.833   9.361   6.695  2.9613 -1.4856  0.8409
   25bbb     N1  720   2.876   9.762   4.110  0.5448 -0.6553 -0.3234
   25bbb     C1  721   2.985   9.665   4.069  0.4904 -0.4660  0.6110
   25bbb     H1  722   2.950   9.600   3.989  0.8950  0.4527 -0.3389
   25bbb     H2  723   3.000   9.605   4.159  0.7546  0.8890  1.5094
   25bbb     C2  724   2.736   9.714   4.070 -0.6652  1.0550 -0.2539
   25bbb     H3  725   2.657   9.781   4.106 -0.6976  1.2125 -0.6093
   25bbb     H4  726   2.731   9.619   4.123 -2.2701  0.2135 -1.7969
   25bbb     C3  727   2.884   9.787   4.261 -0.4371 -0.2174 -0.5807
   25bbb     H5  728   2.991   9.801   4.279  0.0236 -2.4500 -1.2503
   25bbb     H6  729   2.855   9.688   4.297  0.7582 -0.3768  0.0150
   25bbb     C4  730   2.794   9.897   4.308 -0.1904  0.2390 -0.2730
   25bbb     H7  731   2.694   9.890   4.263 -0.3863  1.5150 -0.0852
   25bbb     H8  732   2.825   9.996   4.273  0.3745  0.1419 -0.0643
   25bbb     C5  733   3.123   9.730   4.034 -0.3206  0.7609 -0.1147
   25bbb     H9  734   3.157   9.782   4.124 -1.0655 -0.1227  0.6881
   25bbb    H10  735   3.120   9.787   3.940 -0.1187  2.0833  0.6688
   25bbb     C6  736   2.716   9.679   3.921  0.2902  0.3093  0.8828
   25bbb    H11  737   2.618   9.630   3.913  1.0202 -1.4876  2.1815
   25bbb    H12  738   2.775   9.590   3.896 -0.5812  0.2030 -0.9320
   25bbb     C7  739   2.782   9.889   4.462 -0.0262  0.5391 -0.2619
   25bbb    H13  740   2.721   9.973   4.498 -2.9856 -0.8661 -1.6266
   25bbb    H14  741   2.881   9.889   4.508 -0.6570  0.6879  1.1689
   25bbb     C8  742   2.731   9.796   3.817  0.5930 -0.1633 -0.1195
   25bbb    H15  743   2.838   9.816   3.805  0.5856  0.1665  0.3539
   25bbb    H16  744   2.682   9.757   3.727  0.2890  1.2729 -0.6008
   25bbb     C9  745   3.227   9.623   4.012  0.3093 -0.5771  0.4011
   25bbb    H17  746   3.331   9.657   4.027  0.7843 -0.8727 -1.8603
   25bbb    H18  747   3.204   9.597   3.908 -0.8802  3.6277 -0.5634
   25bbb     O1  748   2.720   9.759   4.498  0.0695 -0.0273 -0.1592
   25bbb    H19  749   2.889   9.849   4.056 -2.5303  0.3816  0.3933
   26bbb     N1  750   2.988   9.326   5.172 -0.6288  0.1911  0.8559
   26bbb     C1  751   2.876   9.328   5.277 -1.1308 -0.5468  0.5050
   26bbb     H1  752   2.789   9.280   5.232 -0.0637 -1.2802 -0.8494
   26bbb     H2  753   2.848   9.430   5.303 -0.2671 -0.5512  1.5246
   26bbb     C2  754   2.982   9.195   5.096 -0.9144 -1.0592  0.0238
   26bbb     H3  755   2.897   9.200   5.028  1.0124  2.1023 -2.4146
   26bbb     H4  756   2.971   9.124   5.178  1.8153  0.7236  2.1486
   26bbb     C3  757   3.001   9.453   5.084  0.5332  0.7689 -0.4152
   26bbb     H5  758   2.907   9.470   5.031  0.8087  1.6974 -0.6231
   26bbb     H6  759   3.078   9.441   5.008 -0.0763  0.1283 -0.9360
   26bbb     C4  760   3.035   9.579   5.167 -0.4263  0.0956 -0.8735
   26bbb     H7  761   3.123   9.568   5.231 -1.1312  0.4709  0.1920
   26bbb     H8  762   2.957   9.592   5.243  0.3787  0.2740 -0.0664
   26bbb     C5  763   2.913   9.252   5.406 -0.3711 -0.5219 -0.4157
   26bbb     H9  764   2.940   9.147   5.387  2.4352 -0.0381  0.5306
   26bbb    H10  765   2.827   9.239   5.473 -1.1221 -1.6590 -1.5451
   26bbb     C6  766   3.116   9.156   5.025  0.0933  0.0143 -0.2140
   26bbb    H11  767   3.197   9.155   5.099 -1.1289  2.1180  1.2667
   26bbb    H12  768   3.128   9.233   4.948  0.4098  0.0199 -0.1573
   26bbb     C7  769   3.060   9.698   5.075 -0.3671  0.2727 -0.5213
   26bbb    H13  770   3.134   9.664   5.003  0.6084 -1.5884  1.2697
   26bbb    H14  771   3.103   9.780   5.134  1.2201 -2.0025  1.6622
   26bbb     C8  772   3.103   9.018   4.965  0.0751 -0.0926 -0.6278
   26bbb    H15  773   3.002   8.992   4.930  0.3587 -1.9891 -0.1458
   26bbb    H16  774   3.171   9.016   4.878 -2.4277  0.3972 -2.7286
   26bbb     C9  775   3.022   9.315   5.486  0.1011 -0.2991 -0.0208
   26bbb    H17  776   3.029   9.273   5.587 -0.2457 -1.9396 -0.6504
   26bbb    H18  777   3.008   9.422   5.506  0.1159  0.0410 -1.7208
   26bbb     O1  778   2.942   9.740   5.004  0.2196 -0.1296 -0.3130
   26bbb    H19  779   3.072   9.323   5.233 -1.6669  0.7441  2.3612
   27bbb     N1  780   1.463  10.147   4.757  1.0311  0.3175 -0.2984
   27bbb     C1  781   1.340  10.052   4.715  0.6573  0.3265 -0.0489
   27bbb     H1  782   1.244  10.104   4.714  0.7524  0.4977 -0.3412
   27bbb     H2  783   1.342   9.973   4.791  0.9326  2.2472  2.0611
   27bbb     C2  784   1.600  10.094   4.738  0.4873  0.3176  0.2424
   27bbb     H3  785   1.676  10.165   4.772  0.4186 -0.0112  1.1177
   27bbb     H4  786   1.620  10.078   4.632  1.0982 -1.7277  0.6342
   27bbb     C3  787   1.461  10.279   4.681  0.5361 -0.5065 -0.8656
   27bbb     H5  788   1.466  10.262   4.573 -0.4392 -2.4081 -0.6378
   27bbb     H6  789   1.557  10.325   4.708 -1.0652  2.3944  0.3081
   27bbb     C4  790   1.347  10.371   4.722  0.1498  0.1385 -0.0463
   27bbb     H7  791   1.336  10.376   4.831 -0.7659 -0.6735 -0.0852
   27bbb     H8  792   1.258  10.320   4.684  2.3307 -2.5692 -1.9195
   27bbb     C5  793   1.351   9.989   4.581  0.1206 -0.0500  0.3388
   27bbb     H9  794   1.452   9.999   4.540  0.3364  1.8898  1.2540
   27bbb    H10  795   1.291  10.059   4.521  0.2179  1.7868  2.3107
   27bbb     C6  796   1.627   9.954   4.801 -0.2126 -0.7148  0.4430
   27bbb    H11  797   1.550   9.883   4.768 -1.7087  1.0981 -0.1491
   27bbb    H12  798   1.608   9.952   4.909  1.0317 -2.6782  0.6579
   27bbb     C7  799   1.354  10.511   4.660  0.6410 -0.0742 -0.4215
   27bbb    H13  800   1.259  10.565   4.665  0.5001 -0.3248 -0.3643
   27bbb    H14  801   1.372  10.501   4.553 -1.4404  1.1592 -0.9418
   27bbb     C8  802   1.779   9.914   4.784  0.2752 -0.0964  0.0649
   27bbb    H15  803   1.847   9.986   4.830  0.4686 -0.4406  0.3267
   27bbb    H16  804   1.793   9.820   4.839  1.6180  0.5039  0.8007
   27bbb     C9  805   1.284   9.848   4.582 -0.0313  0.0780 -0.5776
   27bbb    H17  806   1.259   9.820   4.479 -2.2740 -1.1076  0.2339
   27bbb    H18  807   1.187   9.861   4.630 -0.0072 -1.5651 -0.0439
   27bbb     O1  808   1.469  10.581   4.719  0.0174 -0.3866  0.3344
   27bbb    H19  809   1.454  10.169   4.857  1.0654 -2.6393  0.4595
   28bbb     N1  810   2.398  11.141   4.565 -0.5214 -0.2507 -0.0151
   28bbb     C1  811   2.476  11.273   4.577  0.4119 -0.8793  0.2584
   28bbb     H1  812   2.429  11.329   4.659  1.2290  0.1728  0.0303
   28bbb     H2  813   2.436  11.333   4.496  0.4264 -1.1190  0.0723
   28bbb     C2  814   2.447  11.044   4.455  0.8689  0.3113 -0.0051
   28bbb     H3  815   2.411  10.942   4.470  2.4193 -0.1495  0.8789
   28bbb     H4  816   2.556  11.037   4.463  0.8956  1.9385  1.4580
   28bbb     C3  817   2.396  11.066   4.691 -0.4736 -0.4771  0.6792
   28bbb     H5  818   2.380  11.138   4.771 -1.0998  0.3201 -0.1543
   28bbb     H6  819   2.494  11.019   4.702 -0.4312  0.0296  3.0243
   28bbb     C4  820   2.279  10.968   4.697 -0.8657 -0.3416 -0.1112
   28bbb     H7  821   2.288  10.884   4.628 -1.4638 -1.1822  0.8061
   28bbb     H8  822   2.188  11.021   4.666 -0.5874  0.2091 -0.0115
   28bbb     C5  823   2.630  11.256   4.587  0.5956 -0.3793 -0.0936
   28bbb     H9  824   2.669  11.231   4.488  0.4818 -1.2947  0.0796
   28bbb    H10  825   2.667  11.184   4.661  1.5654 -1.4695 -1.5810
   28bbb     C6  826   2.421  11.087   4.311  0.3954  0.2407  0.1954
   28bbb    H11  827   2.450  11.191   4.293  0.4240  0.0625 -0.8470
   28bbb    H12  828   2.314  11.078   4.289  0.2611  0.6990  0.6296
   28bbb     C7  829   2.257  10.923   4.848  0.2389  0.3060 -0.9517
   28bbb    H13  830   2.214  11.001   4.912  0.5850  0.7963 -1.3103
   28bbb    H14  831   2.349  10.888   4.896 -0.4782  2.7118  2.5318
   28bbb     C8  832   2.503  11.006   4.216  0.2596  0.1314  0.0972
   28bbb    H15  833   2.480  10.901   4.235 -1.1576  0.0158 -1.9514
   28bbb    H16  834   2.469  11.003   4.112  1.7091  0.1069 -0.3999
   28bbb     C9  835   2.686  11.389   4.632  0.0573 -0.1476  0.4717
   28bbb    H17  836   2.654  11.406   4.736  1.6682  0.7724  0.8517
   28bbb    H18  837   2.654  11.475   4.571 -2.3152 -1.5950 -0.4742
   28bbb     O1  838   2.163  10.818   4.859  0.3249 -0.3020  0.2101
   28bbb    H19  839   2.300  11.165   4.542 -0.6118 -0.4535  0.1601
   29bbb     N1  840   1.258  11.957   5.937 -0.0102 -0.0002 -0.3148
   29bbb     C1  841   1.281  12.012   6.076 -0.2652 -0.1489  0.0804
   29bbb     H1  842   1.205  11.969   6.141  0.4780 -0.5367  0.7129
   29bbb     H2  843   1.261  12.118   6.090 -1.3520 -0.3987  0.4766
   29bbb     C2  844   1.114  11.979   5.896 -0.7404  0.1575  0.0982
   29bbb     H3  845   1.101  11.946   5.793 -1.1801  0.2718  0.1165
   29bbb     H4  846   1.070  12.079   5.902 -1.7535 -0.2009 -1.0257
   29bbb     C3  847   1.340  12.013   5.823  0.3863 -0.4790  0.5766
   29bbb     H5  848   1.372  12.115   5.842 -0.6311  0.0079 -0.2600
   29bbb     H6  849   1.279  12.009   5.733  1.3538 -1.5264 -0.0615
   29bbb     C4  850   1.465  11.933   5.784 -0.5605  0.4576 -0.6569
   29bbb     H7  851   1.539  11.927   5.865 -0.2791  1.1393 -0.8483
   29bbb     H8  852   1.507  11.994   5.703  0.8959  0.7355  0.2712
   29bbb     C5  853   1.426  11.984   6.138  0.7338 -0.2611  0.3057
   29bbb     H9  854   1.493  12.043   6.075 -0.1257 -0.1119 -0.4903
   29bbb    H10  855   1.444  11.877   6.122  0.3512 -0.1039 -1.3217
   29bbb     C6  856   1.027  11.893   5.990  0.1343  0.2211 -0.2290
   29bbb    H11  857   0.995  11.947   6.079 -1.1529 -0.3238 -0.3398
   29bbb    H12  858   1.085  11.809   6.030 -0.7749  0.6618  2.1622
   29bbb     C7  859   1.437  11.791   5.719  0.3706  0.1308  0.1783
   29bbb    H13  860   1.526  11.728   5.705 -1.1828 -2.1111 -0.2951
   29bbb    H14  861   1.386  11.798   5.622 -0.1625 -1.7043  0.2855
   29bbb     C8  862   0.904  11.836   5.920 -0.5422  0.8933 -0.0282
   29bbb    H15  863   0.858  11.757   5.981  1.2647 -1.2652 -1.2704
   29bbb    H16  864   0.830  11.915   5.908 -2.2754 -0.8655 -1.6448
   29bbb     C9  865   1.450  12.042   6.280 -0.0410 -0.3898  0.1328
   29bbb    H17  866   1.554  12.016   6.301 -0.6297 -2.3096  0.9100
   29bbb    H18  867   1.386  11.978   6.343 -0.0712 -1.7277 -1.1828
   29bbb     O1  868   1.350  11.722   5.812 -0.5055  0.7511 -0.0465
   29bbb    H19  869   1.278  11.856   5.945 -0.0486  0.1431  2.3321
   30bbb     N1  870   1.495  11.420   6.899  0.4949  0.6986  0.4417
   30bbb     C1  871   1.494  11.268   6.882 -0.4215  0.2741  0.0473
   30bbb     H1  872   1.511  11.223   6.980  0.6596  3.4126  1.4376
   30bbb     H2  873   1.585  11.240   6.828 -0.3592 -0.8260  0.7043
   30bbb     C2  874   1.619  11.458   6.977 -0.4371  0.6883 -0.2946
   30bbb     H3  875   1.703  11.438   6.910 -1.4928 -3.0542 -0.7745
   30bbb     H4  876   1.635  11.394   7.065  0.9944  2.7927  1.0693
   30bbb     C3  877   1.495  11.489   6.758 -0.2174 -0.0068 -0.4053
   30bbb     H5  878   1.507  11.597   6.767 -0.3855  0.1798 -2.2008
   30bbb     H6  879   1.396  11.463   6.720 -0.3760 -4.6508  2.3938
   30bbb     C4  880   1.608  11.446   6.660  0.5768  0.0732  0.0622
   30bbb     H7  881   1.590  11.345   6.621 -1.8804  0.9406 -1.2681
   30bbb     H8  882   1.709  11.460   6.699  1.0205 -0.2334 -0.9527
   30bbb     C5  883   1.375  11.205   6.812  0.0078 -0.2347 -0.4217
   30bbb     H9  884   1.365  11.256   6.715  1.8333  0.8149 -0.1160
   30bbb    H10  885   1.290  11.215   6.881  0.5045 -2.6629  0.6294
   30bbb     C6  886   1.615  11.606   7.019 -0.6347  0.4886 -0.9475
   30bbb    H11  887   1.507  11.623   7.027 -0.7777 -0.8240  0.3294
   30bbb    H12  888   1.657  11.656   6.930  0.9097  0.5895 -0.1914
   30bbb     C7  889   1.600  11.545   6.539 -0.2464  0.3449 -0.3603
   30bbb    H13  890   1.691  11.526   6.479 -0.6374 -0.3380 -0.7438
   30bbb    H14  891   1.609  11.650   6.569 -1.7598  0.3904 -0.0319
   30bbb     C8  892   1.695  11.633   7.148  0.0169 -0.7911  0.8338
   30bbb    H15  893   1.798  11.596   7.150 -0.7805 -3.2452  1.2199
   30bbb    H16  894   1.709  11.741   7.156  1.0674 -0.7626 -0.9369
   30bbb     C9  895   1.396  11.053   6.789  1.0346  0.4199  0.1328
   30bbb    H17  896   1.314  11.011   6.730  1.1194  0.8783 -0.3182
   30bbb    H18  897   1.392  10.997   6.883 -1.3601  1.8487  0.9547
   30bbb     O1  898   1.484  11.510   6.459 -0.1264 -0.0096 -0.0680
   30bbb    H19  899   1.414  11.461   6.948  0.2457 -0.1443  0.7434
   31bbb     N1  900  -1.773  10.994   4.539 -0.4946  1.1005  0.4272
   31bbb     C1  901  -1.824  10.866   4.604 -0.3402  0.3387 -0.3787
   31bbb     H1  902  -1.907  10.833   4.541  0.5176 -1.3530 -0.6635
   31bbb     H2  903  -1.872  10.891   4.699 -2.0146 -0.4857 -0.9620
   31bbb     C2  904  -1.891  11.072   4.493  1.1591  0.2951  0.1381
   31bbb     H3  905  -1.858  11.166   4.448 -2.7879  1.6951 -0.2213
   31bbb     H4  906  -1.953  11.087   4.581 -0.2365  0.8460 -0.9048
   31bbb     C3  907  -1.689  11.073   4.636 -0.3424  0.3190  0.1754
   31bbb     H5  908  -1.626  11.005   4.694 -1.5161 -1.9777 -1.1449
   31bbb     H6  909  -1.763  11.125   4.698 -0.9981  0.3290 -0.6071
   31bbb     C4  910  -1.599  11.173   4.563  0.0032 -0.0431 -0.3087
   31bbb     H7  911  -1.669  11.249   4.526  0.4936  1.2349  1.2967
   31bbb     H8  912  -1.533  11.129   4.487 -0.8332  2.7113 -2.8390
   31bbb     C5  913  -1.733  10.746   4.620 -0.3850  0.2053 -0.4161
   31bbb     H9  914  -1.799  10.661   4.644 -0.8433  0.5969 -0.2787
   31bbb    H10  915  -1.670  10.766   4.708 -1.1637  0.5458  0.0798
   31bbb     C6  916  -1.988  11.004   4.392  0.5884 -0.7680 -0.6838
   31bbb    H11  917  -2.027  10.909   4.431 -0.6370 -0.5800 -1.4196
   31bbb    H12  918  -1.927  10.973   4.306  0.7870 -0.0286 -0.8124
   31bbb     C7  919  -1.522  11.263   4.656 -0.6982  0.1434 -0.2715
   31bbb    H13  920  -1.605  11.314   4.708 -1.2289 -1.0735  0.1000
   31bbb    H14  921  -1.450  11.327   4.604  0.9931 -2.1875 -0.9619
   31bbb     C8  922  -2.102  11.097   4.342  0.1844 -0.1902  0.2373
   31bbb    H15  923  -2.066  11.184   4.287  1.3727 -0.2339  0.9164
   31bbb    H16  924  -2.176  11.044   4.280 -0.6091  0.2798  0.7660
   31bbb     C9  925  -1.650  10.712   4.498 -0.4500  0.2057  0.4584
   31bbb    H17  926  -1.574  10.639   4.530 -2.3726 -2.3002 -0.2850
   31bbb    H18  927  -1.616  10.805   4.451 -1.3790  0.4985  0.3492
   31bbb     O1  928  -1.445  11.192   4.756  0.2680  0.0644 -0.4421
   31bbb    H19  929  -1.709  10.970   4.462 -0.0749 -1.5384  1.5082
   32bbb     N1  930  -1.052  11.358   5.340  0.0663  0.3073 -0.3603
   32bbb     C1  931  -1.016  11.331   5.484  0.7709 -0.4287 -0.2238
   32bbb     H1  932  -0.949  11.408   5.521  0.4717 -0.8782  1.3328
   32bbb     H2  933  -0.964  11.235   5.482  1.5740 -0.0033 -0.4071
   32bbb     C2  934  -1.087  11.503   5.332 -0.0483  0.8358  0.0912
   32bbb     H3  935  -0.993  11.557   5.343 -0.0735  0.7363  0.7982
   32bbb     H4  936  -1.148  11.526   5.419 -0.7420  1.2568 -0.4912
   32bbb     C3  937  -0.933  11.330   5.251  0.2382  0.3044  0.5743
   32bbb     H5  938  -0.846  11.393   5.272  0.2183  0.5690 -0.0907
   32bbb     H6  939  -0.979  11.337   5.152  1.7113  0.2855 -0.1356
   32bbb     C4  940  -0.866  11.197   5.250 -0.4348  0.4784 -0.8373
   32bbb     H7  941  -0.947  11.124   5.251 -0.9492  0.8849  3.1900
   32bbb     H8  942  -0.800  11.183   5.336  2.4084 -0.3404 -2.9853
   32bbb     C5  943  -1.140  11.325   5.579 -0.0607 -0.0280 -0.7359
   32bbb     H9  944  -1.218  11.257   5.542  0.0665 -0.7869  0.3417
   32bbb    H10  945  -1.193  11.421   5.583  0.6930  0.3605  1.2424
   32bbb     C6  946  -1.169  11.540   5.205  0.2435  0.3946  0.6456
   32bbb    H11  947  -1.271  11.500   5.211 -0.6863  1.7660 -2.9139
   32bbb    H12  948  -1.114  11.518   5.113 -3.5315  0.8335 -1.9746
   32bbb     C7  949  -0.781  11.182   5.123  0.1506  0.1813  0.1696
   32bbb    H13  950  -0.708  11.101   5.129  2.8470  2.5331  2.5408
   32bbb    H14  951  -0.716  11.270   5.123  0.7318 -0.2109  1.5714
   32bbb     C8  952  -1.184  11.694   5.211 -0.4790 -0.1315  0.1394
   32bbb    H15  953  -1.086  11.741   5.226 -0.1138 -1.5818  2.8507
   32bbb    H16  954  -1.222  11.726   5.113  2.5032  0.6732 -0.8526
   32bbb     C9  955  -1.097  11.291   5.724  0.0918  0.1526 -0.0272
   32bbb    H17  956  -1.022  11.211   5.721  0.6110  0.5743  1.0489
   32bbb    H18  957  -1.186  11.272   5.785 -0.6870  1.0256 -0.8605
   32bbb     O1  958  -0.867  11.175   5.007 -0.1424 -0.1381  0.5243
   32bbb    H19  959  -1.140  11.307   5.322  0.0963  0.7671 -1.9370
   33bbb     N1  960  -0.169  10.858   3.957  0.3051  0.1725 -0.4130
   33bbb     C1  961  -0.268  10.914   3.855  0.0635 -0.3601 -0.3059
   33bbb     H1  962  -0.370  10.931   3.889 -0.6378  1.0480 -2.8057
   33bbb     H2  963  -0.294  10.839   3.780 -0.8445 -1.9373  1.5268
   33bbb     C2  964  -0.148  10.954   4.075 -0.1603  0.0703 -0.3075
   33bbb     H3  965  -0.116  11.049   4.032  1.5377  0.1540  1.0690
   33bbb     H4  966  -0.070  10.918   4.141 -0.1516  0.0386 -0.3347
   33bbb     C3  967  -0.225  10.722   4.008 -0.8259 -0.4604  0.4968
   33bbb     H5  968  -0.249  10.659   3.922 -0.2870  0.7549 -0.5787
   33bbb     H6  969  -0.321  10.735   4.057 -0.5023 -1.7097  1.5268
   33bbb     C4  970  -0.127  10.646   4.096  0.0644 -0.0318  0.6126
   33bbb     H7  971  -0.124  10.697   4.193 -0.5629  0.8553  0.1767
   33bbb     H8  972  -0.026  10.659   4.056  0.5724 -2.8243  0.7377
   33bbb     C5  973  -0.223  11.047   3.782 -0.1599  0.2422  0.2243
   33bbb     H9  974  -0.164  11.026   3.693 -1.5731  1.4351 -1.0443
   33bbb    H10  975  -0.166  11.109   3.852 -0.8399  1.0843  0.0548
   33bbb     C6  976  -0.271  10.986   4.160  0.7054  0.2695 -0.3835
   33bbb    H11  977  -0.334  10.897   4.169  0.5063  0.2638 -1.6874
   33bbb    H12  978  -0.337  11.055   4.106  0.7885 -1.5162 -2.9483
   33bbb     C7  979  -0.152  10.492   4.104 -0.6420  0.5926  0.3720
   33bbb    H13  980  -0.069  10.441   4.154 -0.5621  1.6736  1.3981
   33bbb    H14  981  -0.156  10.451   4.003 -0.5558  1.6066 -0.0526
   33bbb     C8  982  -0.218  11.037   4.293 -0.3430  0.0006 -0.3388
   33bbb    H15  983  -0.147  11.117   4.268  0.6648 -0.6085  0.4755
   33bbb    H16  984  -0.297  11.088   4.350  0.9815  0.7433  0.8835
   33bbb     C9  985  -0.343  11.130   3.735 -0.4505  0.3163  0.4143
   33bbb    H17  986  -0.312  11.233   3.714 -0.6586  0.4635  0.8095
   33bbb    H18  987  -0.429  11.133   3.803 -1.7065 -1.0451 -1.0480
   33bbb     O1  988  -0.282  10.459   4.162 -0.3920 -0.1321  0.0853
   33bbb    H19  989  -0.081  10.836   3.907  0.1598 -1.8188  0.1091
   34bbb     N1  990  -0.087  10.064   3.429  0.2287 -0.1196 -0.2843
   34bbb     C1  991   0.028  10.098   3.532  0.6523  0.3368 -0.0238
   34bbb     H1  992  -0.019  10.173   3.597 -0.6072 -0.2299 -0.2539
   34bbb     H2  993   0.113  10.155   3.496  0.4269  0.8730  0.2714
   34bbb     C2  994  -0.040   9.953   3.340  0.3681  0.5975 -0.0370
   34bbb     H3  995  -0.077   9.860   3.384  0.6282  0.3211 -0.3880
   34bbb     H4  996   0.069   9.954   3.335  0.3236  0.0833 -3.1477
   34bbb     C3  997  -0.210  10.027   3.508 -0.7473  0.8590  0.8176
   34bbb     H5  998  -0.213  10.070   3.608  3.8110  1.0867  1.0806
   34bbb     H6  999  -0.198   9.920   3.525  0.6172  1.0720  1.3571
   34bbb     C4 1000  -0.349  10.061   3.434 -0.7430  0.1907 -0.7662
   34bbb     H7 1001  -0.357  10.023   3.332  0.3858 -2.5434  0.0846
   34bbb     H8 1002  -0.350  10.170   3.419  3.4844  0.5660  0.5281
   34bbb     C5 1003   0.082   9.978   3.614  0.9402  0.5579 -0.1779
   34bbb     H9 1004   0.147   9.915   3.552  1.8999  1.0564  0.2845
   34bbb    H10 1005  -0.005   9.924   3.652  1.7139 -0.6565 -0.0897
   34bbb     C6 1006  -0.079   9.968   3.189  0.2251 -0.3042  0.6455
   34bbb    H11 1007  -0.032  10.058   3.148  1.2628 -0.8804  0.5371
   34bbb    H12 1008  -0.188   9.978   3.187  0.1649 -0.8496 -1.3338
   34bbb     C7 1009  -0.464   9.996   3.510 -0.2201  0.1752 -0.3994
   34bbb    H13 1010  -0.447   9.889   3.526 -1.9805 -0.3367 -1.6988
   34bbb    H14 1011  -0.560  10.002   3.458  0.3671  0.4061 -1.4716
   34bbb     C8 1012  -0.035   9.846   3.097 -0.3434 -0.3589  0.3333
   34bbb    H15 1013  -0.073   9.758   3.150  1.8024 -1.3543  0.2993
   34bbb    H16 1014  -0.075   9.854   2.994  2.2721  0.4720 -0.6832
   34bbb     C9 1015   0.154  10.041   3.729 -0.3267  0.9304 -0.0638
   34bbb    H17 1016   0.163   9.967   3.809  1.1522 -0.9028 -1.8048
   34bbb    H18 1017   0.101  10.130   3.763  1.5162  1.8936  0.4540
   34bbb     O1 1018  -0.471  10.042   3.644  0.5634 -0.1446 -0.4497
   34bbb    H19 1019  -0.110  10.149   3.375  0.4176  0.3831  0.4199
   35bbb     N1 1020  -1.449  10.823   6.430 -0.0092  0.1973 -0.2339
   35bbb     C1 1021  -1.603  10.851   6.451 -0.0703 -0.0161  0.0472
   35bbb     H1 1022  -1.658  10.851   6.357  0.0826  1.8124 -0.0589
   35bbb     H2 1023  -1.613  10.950   6.495  3.6930 -0.6128  2.8219
   35bbb     C2 1024  -1.374  10.871   6.551  0.4426 -0.6393  0.0269
   35bbb     H3 1025  -1.374  10.802   6.635 -0.9151  0.2530  0.7967
   35bbb     H4 1026  -1.435  10.955   6.585  0.0137 -0.1551 -1.8124
   35bbb     C3 1027  -1.408  10.682   6.392 -0.1364  0.2297 -0.0743
   35bbb     H5 1028  -1.441  10.618   6.473 -1.2178  0.6251 -0.1900
   35bbb     H6 1029  -1.300  10.679   6.378 -0.3330 -0.3917 -1.6895
   35bbb     C4 1030  -1.463  10.616   6.266 -0.2390 -0.3701  0.1095
   35bbb     H7 1031  -1.431  10.685   6.188 -1.0537  1.0550  1.0003
   35bbb     H8 1032  -1.572  10.603   6.267 -0.3683  0.5963  1.4615
   35bbb     C5 1033  -1.676  10.743   6.535 -0.0292  0.0577  0.2314
   35bbb     H9 1034  -1.595  10.682   6.576  2.0785  1.0167 -2.2297
   35bbb    H10 1035  -1.736  10.685   6.463  2.2542  1.1796 -2.7985
   35bbb     C6 1036  -1.230  10.923   6.520 -0.4561 -0.1728 -0.0670
   35bbb    H11 1037  -1.189  10.987   6.600  0.3440 -0.8206  0.0626
   35bbb    H12 1038  -1.229  10.983   6.429 -0.6167  0.0906  0.1050
   35bbb     C7 1039  -1.395  10.488   6.233  0.1313 -1.0350  0.0183
   35bbb    H13 1040  -1.298  10.471   6.281 -0.5181 -0.7836  1.4769
   35bbb    H14 1041  -1.394  10.493   6.124  1.6609  3.0574  0.0565
   35bbb     C8 1042  -1.122  10.817   6.500  0.4161  0.3021  0.5320
   35bbb    H15 1043  -1.132  10.776   6.399 -1.1921  3.7372 -0.8630
   35bbb    H16 1044  -1.024  10.864   6.513  0.2753  0.7045  0.1627
   35bbb     C9 1045  -1.764  10.801   6.644 -0.2103 -0.3569  0.0739
   35bbb    H17 1046  -1.811  10.721   6.702  0.7640 -0.1686  1.1736
   35bbb    H18 1047  -1.838  10.858   6.586 -1.1275 -2.5582 -1.0022
   35bbb     O1 1048  -1.484  10.384   6.277 -0.0245 -0.2890 -0.8725
   35bbb    H19 1049  -1.433  10.879   6.345  0.5302  0.1611 -0.1529
   36bbb     N1 1050  -2.277   9.659   6.593 -0.3061 -0.5098 -0.3773
   36bbb     C1 1051  -2.206   9.740   6.700 -0.1790  0.0372  0.4440
   36bbb     H1 1052  -2.280   9.776   6.772 -0.7399 -1.7200  0.7873
   36bbb     H2 1053  -2.171   9.835   6.659  2.3604 -1.2544 -0.5853
   36bbb     C2 1054  -2.393   9.739   6.531  0.3395  0.2867  0.1585
   36bbb     H3 1055  -2.367   9.743   6.425  2.1105 -1.4387  0.4734
   36bbb     H4 1056  -2.390   9.839   6.576 -1.9896  1.4252 -1.9472
   36bbb     C3 1057  -2.182   9.619   6.486  0.2121 -0.7847 -0.1826
   36bbb     H5 1058  -2.241   9.564   6.413  0.2956 -2.0494  0.6695
   36bbb     H6 1059  -2.119   9.543   6.533  1.2991  0.5675  0.6385
   36bbb     C4 1060  -2.091   9.730   6.415 -0.5034 -0.5797 -0.1694
   36bbb     H7 1061  -2.012   9.771   6.480 -1.3025  0.1567  0.3496
   36bbb     H8 1062  -2.157   9.812   6.384  1.2756  0.0924 -2.4406
   36bbb     C5 1063  -2.095   9.666   6.770 -0.1986  0.0241 -0.7238
   36bbb     H9 1064  -2.006   9.660   6.707 -0.4047 -2.0110 -0.9092
   36bbb    H10 1065  -2.128   9.562   6.785 -2.5623  0.9616  1.2533
   36bbb     C6 1066  -2.533   9.682   6.546 -0.0718 -0.7902 -0.2762
   36bbb    H11 1067  -2.607   9.737   6.486  0.4596  3.0137  2.2316
   36bbb    H12 1068  -2.561   9.683   6.652  1.2918 -1.2547  0.1124
   36bbb     C7 1069  -2.026   9.686   6.280  0.2429 -0.4985 -0.5982
   36bbb    H13 1070  -2.105   9.688   6.204 -0.5518 -1.5694  0.1727
   36bbb    H14 1071  -1.983   9.585   6.282  0.2051 -0.5356 -1.2607
   36bbb     C8 1072  -2.533   9.536   6.497 -0.7288  0.2806  0.6666
   36bbb    H15 1073  -2.469   9.461   6.547 -1.4986 -0.6623  0.2745
   36bbb    H16 1074  -2.632   9.498   6.525 -1.6843  2.3420  0.2082
   36bbb     C9 1075  -2.066   9.728   6.904  0.0096  0.3445 -0.3314
   36bbb    H17 1076  -2.037   9.833   6.894  0.4829  0.5107  2.0356
   36bbb    H18 1077  -1.984   9.670   6.950  0.3501  1.4652  0.5223
   36bbb     O1 1078  -1.920   9.776   6.240 -0.5331  0.2768  0.0359
   36bbb    H19 1079  -2.323   9.581   6.643 -0.6505  1.0488  1.8981
   37bbb     N1 1080  -2.061   9.122   4.660 -0.1920 -0.2077  0.3122
   37bbb     C1 1081  -1.952   9.019   4.698 -0.0258  0.5293 -0.4088
   37bbb     H1 1082  -2.006   8.925   4.709  1.2251 -0.2157 -0.5105
   37bbb     H2 1083  -1.916   9.042   4.799  0.3000 -1.8340  0.0673
   37bbb     C2 1084  -2.196   9.072   4.713  0.8693  0.0862  0.3224
   37bbb     H3 1085  -2.274   9.148   4.723 -1.7283 -2.3057 -0.4020
   37bbb     H4 1086  -2.178   9.036   4.814 -0.1030 -0.7993  0.1949
   37bbb     C3 1087  -2.030   9.243   4.742 -0.5239 -0.6087 -0.1765
   37bbb     H5 1088  -1.922   9.258   4.738 -0.1109 -2.7734  1.2989
   37bbb     H6 1089  -2.056   9.232   4.847  0.9277  1.7054  0.5014
   37bbb     C4 1090  -2.092   9.375   4.685  1.0257  0.0878  0.5040
   37bbb     H7 1091  -2.201   9.384   4.700  0.5999 -0.4228 -1.9126
   37bbb     H8 1092  -2.080   9.383   4.577  1.1857  0.3345  0.5406
   37bbb     C5 1093  -1.833   8.993   4.600  0.5852  0.1986 -0.2504
   37bbb     H9 1094  -1.769   8.915   4.641  0.1599  0.3906  0.8117
   37bbb    H10 1095  -1.759   9.075   4.596  0.6894  0.1969  1.2469
   37bbb     C6 1096  -2.257   8.958   4.634  0.0804  0.7189  0.4008
   37bbb    H11 1097  -2.193   8.870   4.649 -0.3787  0.5809  1.7085
   37bbb    H12 1098  -2.248   8.980   4.527  0.3987 -0.4883  0.1668
   37bbb     C7 1099  -2.031   9.496   4.745  0.1162 -0.2621  0.2790
   37bbb    H13 1100  -2.072   9.583   4.693  0.0386 -0.8428 -0.6792
   37bbb    H14 1101  -1.925   9.490   4.717  1.1327 -0.8909  3.8519
   37bbb     C8 1102  -2.399   8.927   4.667  0.1819 -0.1682 -0.0766
   37bbb    H15 1103  -2.393   8.882   4.767  1.0730 -0.4297 -0.2447
   37bbb    H16 1104  -2.458   9.020   4.668 -0.8540 -0.7386 -2.2349
   37bbb     C9 1105  -1.883   8.955   4.457  0.0785 -0.7981 -0.1434
   37bbb    H17 1106  -1.805   8.939   4.381 -1.8514 -1.3502 -2.1047
   37bbb    H18 1107  -1.937   9.041   4.414 -1.2981 -0.2371  2.5414
   37bbb     O1 1108  -2.046   9.501   4.888  0.0315 -0.0009 -0.5881
   37bbb    H19 1109  -2.065   9.140   4.559  0.9115  2.1382  0.6075
   38bbb     N1 1110  -2.774   9.583   5.122 -0.4553 -0.5063 -0.2028
   38bbb     C1 1111  -2.847   9.609   4.993  0.4938  0.5297  0.7890
   38bbb     H1 1112  -2.942   9.556   5.003  1.1266 -1.2341 -1.7143
   38bbb     H2 1113  -2.794   9.560   4.912 -1.2218 -1.0053  0.5383
   38bbb     C2 1114  -2.745   9.435   5.121  0.3953 -0.7615  0.1457
   38bbb     H3 1115  -2.691   9.426   5.216 -0.9049  1.4974  1.1830
   38bbb     H4 1116  -2.690   9.414   5.029  0.5653  1.8682 -0.4229
   38bbb     C3 1117  -2.635   9.659   5.123  0.1415  0.5457  0.4396
   38bbb     H5 1118  -2.653   9.764   5.101 -1.4749  0.3898  0.9009
   38bbb     H6 1119  -2.572   9.616   5.045 -0.5098 -0.8100  0.6231
   38bbb     C4 1120  -2.558   9.646   5.252 -0.1609 -0.6024  0.0086
   38bbb     H7 1121  -2.493   9.558   5.255  1.6458  0.6258 -0.9222
   38bbb     H8 1122  -2.632   9.645   5.333  0.8359 -2.9498  0.9936
   38bbb     C5 1123  -2.866   9.760   4.959  0.0606  0.0397 -0.0599
   38bbb     H9 1124  -2.774   9.792   4.908 -0.2447 -2.3764 -2.3129
   38bbb    H10 1125  -2.881   9.815   5.053  1.9825  0.8866 -0.1830
   38bbb     C6 1126  -2.871   9.348   5.137  0.0681  0.0923 -0.1212
   38bbb    H11 1127  -2.906   9.320   5.037  1.6253  1.5790 -1.1318
   38bbb    H12 1128  -2.954   9.399   5.187  1.4250 -1.5950  4.3776
   38bbb     C7 1129  -2.448   9.754   5.263 -0.2338 -0.2747  0.9140
   38bbb    H13 1130  -2.482   9.858   5.260  0.2306 -0.1445 -0.0044
   38bbb    H14 1131  -2.367   9.741   5.190  0.3015 -1.6689  1.7165
   38bbb     C8 1132  -2.843   9.223   5.226 -0.0838  0.1323  0.4275
   38bbb    H15 1133  -2.806   9.246   5.327 -0.3771 -3.3728  1.4502
   38bbb    H16 1134  -2.938   9.170   5.243  0.0761 -1.0294 -1.9234
   38bbb     C9 1135  -2.987   9.788   4.879  0.2506  1.0618  0.1955
   38bbb    H17 1136  -3.000   9.896   4.871 -0.1890  1.1451  1.6082
   38bbb    H18 1137  -3.075   9.751   4.934  2.8600 -0.5675  3.7284
   38bbb     O1 1138  -2.392   9.742   5.393 -0.2438  0.0454 -0.0860
   38bbb    H19 1139  -2.829   9.608   5.206 -0.2771  2.4761 -0.8547
   39bbb     N1 1140   1.906   8.407   5.740  0.4606  0.6304 -0.3156
   39bbb     C1 1141   1.819   8.472   5.632  0.5934  0.2417 -0.8174
   39bbb     H1 1142   1.834   8.409   5.544 -1.1979  0.5848 -1.4018
   39bbb     H2 1143   1.861   8.571   5.613  1.3433 -0.1984 -1.5369
   39bbb     C2 1144   2.040   8.362   5.693 -0.4811 -0.5713  0.6266
   39bbb     H3 1145   2.094   8.329   5.782  0.9203  0.2711  0.1386
   39bbb     H4 1146   2.093   8.449   5.653 -1.2575  0.0959  1.0118
   39bbb     C3 1147   1.911   8.517   5.839  0.1931 -0.5505 -0.5928
   39bbb     H5 1148   1.812   8.542   5.877  0.5398 -0.2293  0.1314
   39bbb     H6 1149   1.950   8.608   5.794 -4.1997  1.7774 -0.2306
   39bbb     C4 1150   1.984   8.491   5.966 -0.3515 -0.3291  0.3804
   39bbb     H7 1151   2.087   8.463   5.938 -0.1523  2.8322 -2.8297
   39bbb     H8 1152   1.933   8.407   6.015 -0.7279 -0.7431 -0.6998
   39bbb     C5 1153   1.667   8.473   5.669 -0.1867 -0.6991  0.3885
   39bbb     H9 1154   1.656   8.544   5.752 -0.9512 -0.4354  0.0704
   39bbb    H10 1155   1.626   8.376   5.701  1.0037 -2.0182 -1.7972
   39bbb     C6 1156   2.047   8.259   5.585  0.2605  1.2000  0.8563
   39bbb    H11 1157   1.989   8.294   5.499 -1.2895 -1.3580  0.7634
   39bbb    H12 1158   1.987   8.171   5.612  0.6719  1.4719  2.7953
   39bbb     C7 1159   1.984   8.603   6.055 -0.1213  0.3525 -0.5344
   39bbb    H13 1160   2.031   8.687   6.001  1.7596  1.6266  2.7504
   39bbb    H14 1161   2.042   8.590   6.147  2.9708  2.5154 -1.9659
   39bbb     C8 1162   2.189   8.228   5.541 -0.1895 -0.3433 -0.3159
   39bbb    H15 1163   2.250   8.203   5.629  0.8338  1.5017 -0.4543
   39bbb    H16 1164   2.194   8.135   5.484  5.0531 -0.8976  0.5280
   39bbb     C9 1165   1.578   8.515   5.551  0.4418  0.2964  0.1807
   39bbb    H17 1166   1.476   8.537   5.587  0.3989 -1.0726  0.9994
   39bbb    H18 1167   1.573   8.433   5.478  0.2414  2.1529 -1.9782
   39bbb     O1 1168   1.853   8.633   6.097  0.0607 -0.5138 -0.3677
   39bbb    H19 1169   1.860   8.323   5.779  1.6267  0.2633  0.2877
   40bbb     N1 1170   1.882   8.284   6.537 -0.5429 -0.0538 -0.1339
   40bbb     C1 1171   1.820   8.339   6.667  0.5837  0.5297  0.1608
   40bbb     H1 1172   1.766   8.426   6.630  1.2754  0.2756 -1.5681
   40bbb     H2 1173   1.888   8.379   6.742 -1.3558  0.5565  1.9924
   40bbb     C2 1174   1.958   8.157   6.565 -0.3029 -0.1504 -0.2532
   40bbb     H3 1175   1.886   8.080   6.593  0.6241 -0.6040  0.9810
   40bbb     H4 1176   2.029   8.167   6.648 -0.6482 -2.2911  0.3672
   40bbb     C3 1177   1.784   8.262   6.422 -0.0401  0.0543  0.6748
   40bbb     H5 1178   1.685   8.252   6.469  0.7192 -2.0066  1.9677
   40bbb     H6 1179   1.805   8.162   6.384 -1.7451  0.0970 -0.4693
   40bbb     C4 1180   1.803   8.360   6.305 -0.1984 -0.5701 -0.7295
   40bbb     H7 1181   1.906   8.382   6.275 -0.0619 -0.2866 -0.0518
   40bbb     H8 1182   1.767   8.456   6.345  0.5152 -1.6232  2.7642
   40bbb     C5 1183   1.710   8.255   6.726 -0.4730  0.0553 -0.4574
   40bbb     H9 1184   1.734   8.149   6.735 -0.2193 -0.0279 -1.7980
   40bbb    H10 1185   1.613   8.261   6.674 -0.3734 -0.8099 -0.7584
   40bbb     C6 1186   2.044   8.114   6.446  0.2648 -0.3570  0.5668
   40bbb    H11 1187   2.127   8.185   6.440  1.3987 -1.5201  1.5706
   40bbb    H12 1188   1.995   8.117   6.348  0.1279  0.8850  0.6601
   40bbb     C7 1189   1.714   8.335   6.177 -0.4218  0.8490 -0.7501
   40bbb    H13 1190   1.727   8.233   6.139 -0.0059  1.2166 -1.6173
   40bbb    H14 1191   1.729   8.408   6.097 -1.5224  1.8561 -0.0768
   40bbb     C8 1192   2.108   7.976   6.454 -0.2627  0.3853 -0.3681
   40bbb    H15 1193   2.154   7.947   6.359  1.3166  1.3020  0.0776
   40bbb    H16 1194   2.184   7.980   6.533  0.5826 -1.3686 -1.0226
   40bbb     C9 1195   1.674   8.305   6.870 -0.1300  0.4685 -0.5938
   40bbb    H17 1196   1.578   8.262   6.900 -0.0358  0.6612 -0.0076
   40bbb    H18 1197   1.668   8.414   6.878 -2.1985  0.3415  0.0173
   40bbb     O1 1198   1.569   8.356   6.211 -0.3411  1.1451 -0.3022
   40bbb    H19 1199   1.948   8.356   6.505  0.9771 -1.1232  0.4902
   41bbb     N1 1200  -0.104   7.875   5.941  0.9079  0.4477 -0.4519
   41bbb     C1 1201  -0.232   7.947   5.926 -0.2191 -0.0262  0.2376
   41bbb     H1 1202  -0.312   7.874   5.925 -0.8436  0.6368 -0.7776
   41bbb     H2 1203  -0.214   7.990   5.827  2.4397 -2.4122 -0.4344
   41bbb     C2 1204  -0.115   7.745   5.863 -0.0738  0.2475 -0.5698
   41bbb     H3 1205  -0.113   7.771   5.758  3.6652  1.8430 -0.2602
   41bbb     H4 1206  -0.206   7.695   5.897  1.5124 -1.8423  0.8618
   41bbb     C3 1207   0.007   7.969   5.882  0.2216 -0.0865  0.3826
   41bbb     H5 1208  -0.020   8.074   5.881 -0.9448 -0.3699 -1.0810
   41bbb     H6 1209   0.011   7.952   5.774 -0.6012  1.1580  0.1388
   41bbb     C4 1210   0.148   7.955   5.946  0.5191  0.2071 -0.0720
   41bbb     H7 1211   0.173   7.848   5.941 -4.3957 -1.3626  2.2289
   41bbb     H8 1212   0.144   7.975   6.054  0.3244  0.0022 -0.0408
   41bbb     C5 1213  -0.260   8.060   6.029  0.2644  1.0072  0.1197
   41bbb     H9 1214  -0.300   8.149   5.978 -0.4524  0.7254  0.1813
   41bbb    H10 1215  -0.165   8.091   6.074  1.5340 -2.2205 -0.0862
   41bbb     C6 1216  -0.005   7.639   5.887 -0.0896 -0.5369 -0.5946
   41bbb    H11 1217  -0.006   7.625   5.996  0.2393 -0.3104 -0.5598
   41bbb    H12 1218   0.091   7.677   5.849 -0.3987  0.2448 -0.6001
   41bbb     C7 1219   0.265   8.045   5.883  0.1688 -0.1429  0.0722
   41bbb    H13 1220   0.357   8.005   5.927  0.6802  0.0335 -0.8272
   41bbb    H14 1221   0.259   8.148   5.918 -0.1234  0.0632 -0.5837
   41bbb     C8 1222  -0.025   7.509   5.812 -0.5981  0.5664 -0.1022
   41bbb    H15 1223   0.037   7.428   5.853  2.3393  2.2259 -0.9905
   41bbb    H16 1224  -0.127   7.467   5.809 -2.1320  3.7531  1.7072
   41bbb     C9 1225  -0.357   7.996   6.128  0.0408  0.5540  0.1033
   41bbb    H17 1226  -0.452   7.992   6.074  0.9119 -0.7221 -1.4143
   41bbb    H18 1227  -0.375   8.059   6.216  2.8941 -0.4270  1.5211
   41bbb     O1 1228   0.264   8.044   5.739  0.1356  0.2467 -0.2505
   41bbb    H19 1229  -0.090   7.861   6.042 -0.0741  2.3282  0.0094
   42bbb     N1 1230   0.198   8.816   4.982  0.0714 -0.0728  0.3425
   42bbb     C1 1231   0.341   8.866   4.970  0.1748 -0.9669 -0.2900
   42bbb     H1 1232   0.378   8.845   4.870 -0.8440 -0.0827 -0.8679
   42bbb     H2 1233   0.401   8.807   5.040 -0.0791  0.2452  1.0051
   42bbb     C2 1234   0.191   8.671   4.919  0.6421 -1.1465 -0.1913
   42bbb     H3 1235   0.095   8.625   4.940  0.1484  0.1944  0.5572
   42bbb     H4 1236   0.273   8.613   4.963  1.6447 -0.2869 -0.8628
   42bbb     C3 1237   0.163   8.807   5.129 -0.6481 -0.2468  0.4037
   42bbb     H5 1238   0.198   8.899   5.178 -2.6581  0.1962  1.0919
   42bbb     H6 1239   0.215   8.720   5.170 -2.6360 -1.3405  0.6882
   42bbb     C4 1240   0.011   8.794   5.157 -0.1558  0.2590  0.4966
   42bbb     H7 1241  -0.043   8.727   5.089  1.5522 -0.7956  0.1164
   42bbb     H8 1242  -0.033   8.893   5.138 -0.2619  0.5848  2.2798
   42bbb     C5 1243   0.364   9.014   5.003  0.6369 -0.2630 -0.0012
   42bbb     H9 1244   0.354   9.042   5.109  2.1604  0.6840 -0.0732
   42bbb    H10 1245   0.301   9.082   4.944 -0.9995 -0.0511  1.8567
   42bbb     C6 1246   0.219   8.666   4.766  0.2390  0.0447  0.9811
   42bbb    H11 1247   0.302   8.600   4.740 -0.6956 -0.6672 -0.2537
   42bbb    H12 1248   0.231   8.763   4.716 -1.0935 -0.1930  0.1563
   42bbb     C7 1249  -0.023   8.756   5.300  0.2914  0.5379 -0.6301
   42bbb    H13 1250  -0.127   8.769   5.330  0.5149 -0.9352  0.9701
   42bbb    H14 1251   0.039   8.818   5.366 -0.0165  0.5244 -0.3282
   42bbb     C8 1252   0.100   8.621   4.691 -0.1232 -0.4304  0.1070
   42bbb    H15 1253   0.010   8.655   4.744  0.9610 -0.1162  1.8450
   42bbb    H16 1254   0.116   8.657   4.589 -2.0495 -0.1015 -0.1246
   42bbb     C9 1255   0.508   9.060   4.982  0.6265  0.2677  0.2306
   42bbb    H17 1256   0.561   9.038   5.075 -0.9768 -3.7611  0.3888
   42bbb    H18 1257   0.512   9.168   4.967 -0.2824  0.4179  0.9899
   42bbb     O1 1258   0.031   8.619   5.315  0.4168  0.5565  0.0715
   42bbb    H19 1259   0.132   8.871   4.924  1.6985 -1.3969 -3.0138
   43bbb     N1 1260  -0.630   9.457   8.102 -0.4569  0.1077  0.3514
   43bbb     C1 1261  -0.658   9.602   8.141 -0.4430  0.1733 -0.4283
   43bbb     H1 1262  -0.563   9.655   8.130 -0.3652 -0.1844 -1.6378
   43bbb     H2 1263  -0.695   9.600   8.244 -0.3306  1.9774 -0.3154
   43bbb     C2 1264  -0.752   9.368   8.112  0.0952  0.5386 -0.4122
   43bbb     H3 1265  -0.723   9.267   8.084 -1.8468 -0.3479  0.5262
   43bbb     H4 1266  -0.832   9.400   8.046  0.5429  2.3728 -0.1013
   43bbb     C3 1267  -0.578   9.460   7.957  0.7433  0.2240 -0.2624
   43bbb     H5 1268  -0.506   9.542   7.943 -0.6391  1.4556 -0.4107
   43bbb     H6 1269  -0.671   9.482   7.904  0.5177  2.6725  1.0010
   43bbb     C4 1270  -0.533   9.322   7.898  0.2884  0.4775 -0.1266
   43bbb     H7 1271  -0.612   9.246   7.904 -0.7001  1.5617  1.0113
   43bbb     H8 1272  -0.445   9.289   7.955  1.1194  0.1296 -1.5560
   43bbb     C5 1273  -0.767   9.685   8.067  0.9378  0.0707 -0.3544
   43bbb     H9 1274  -0.747   9.682   7.959 -1.4143  0.7187 -0.8636
   43bbb    H10 1275  -0.747   9.790   8.090 -0.6192  0.3438 -0.1603
   43bbb     C6 1276  -0.806   9.354   8.255 -0.2533 -0.1749 -0.7122
   43bbb    H11 1277  -0.890   9.283   8.255  0.4405 -1.0393  0.7715
   43bbb    H12 1278  -0.833   9.452   8.296  3.3185  1.1270 -1.1301
   43bbb     C7 1279  -0.502   9.342   7.747 -0.7666 -0.1936 -0.0569
   43bbb    H13 1280  -0.412   9.404   7.738 -1.0908  0.3381  0.2264
   43bbb    H14 1281  -0.578   9.405   7.698 -0.0575  0.5698 -0.1930
   43bbb     C8 1282  -0.703   9.289   8.348 -0.2996  0.7040 -0.4593
   43bbb    H15 1283  -0.615   9.347   8.378  0.2373 -0.2701 -0.1412
   43bbb    H16 1284  -0.765   9.264   8.435 -0.2679  3.1123  0.3236
   43bbb     C9 1285  -0.919   9.661   8.107  0.8053 -0.1183 -0.0287
   43bbb    H17 1286  -0.961   9.562   8.087 -0.2614  0.4010 -0.4370
   43bbb    H18 1287  -0.973   9.734   8.046  2.9738  2.3116  0.7750
   43bbb     O1 1288  -0.489   9.216   7.671 -0.3937  0.4147  0.3402
   43bbb    H19 1289  -0.556   9.424   8.165  0.5513  0.4105 -0.6420
   44bbb     N1 1290  -0.776   8.313   7.998  0.4098  0.1297  0.4215
   44bbb     C1 1291  -0.798   8.252   7.861  0.2766 -0.5073  0.5352
   44bbb     H1 1292  -0.731   8.300   7.790 -0.0341  0.0920  0.6407
   44bbb     H2 1293  -0.901   8.285   7.842  0.0701 -1.1341  0.5487
   44bbb     C2 1294  -0.637   8.286   8.050 -0.8619  0.0853 -0.0073
   44bbb     H3 1295  -0.567   8.352   7.999 -3.0589  3.0952  0.6330
   44bbb     H4 1296  -0.624   8.182   8.017  0.8975  0.3987 -0.4002
   44bbb     C3 1297  -0.792   8.464   7.998  0.3425  0.2798 -0.1432
   44bbb     H5 1298  -0.749   8.504   7.905 -0.9318  0.3119 -0.7352
   44bbb     H6 1299  -0.727   8.502   8.077 -1.0080  1.6779  0.3282
   44bbb     C4 1300  -0.936   8.513   8.002  0.2874 -0.1669 -0.6872
   44bbb     H7 1301  -0.987   8.488   8.097 -1.8917  0.9033 -1.5184
   44bbb     H8 1302  -1.002   8.466   7.928 -0.4179 -1.1644  0.5126
   44bbb     C5 1303  -0.807   8.103   7.846 -0.3176  0.4023 -1.1519
   44bbb     H9 1304  -0.867   8.077   7.934  1.3975  1.0576  0.2798
   44bbb    H10 1305  -0.706   8.063   7.861 -0.7078 -0.0998  0.2289
   44bbb     C6 1306  -0.606   8.290   8.201  0.2012 -0.1286 -0.5758
   44bbb    H11 1307  -0.612   8.392   8.240 -0.2920 -0.5200  0.4089
   44bbb    H12 1308  -0.506   8.251   8.223  0.5994  1.3038  0.2217
   44bbb     C7 1309  -0.946   8.665   7.998 -0.0022 -0.0672 -0.4399
   44bbb    H13 1310  -0.896   8.703   8.087  0.8687 -0.5678 -0.7000
   44bbb    H14 1311  -1.049   8.702   8.000  0.5141  1.6593 -2.3303
   44bbb     C8 1312  -0.711   8.223   8.282 -0.2131  0.4741  0.4517
   44bbb    H15 1313  -0.669   8.205   8.381  1.7545 -0.3661 -0.4898
   44bbb    H16 1314  -0.794   8.294   8.290  0.2743  1.1025  0.0271
   44bbb     C9 1315  -0.869   8.057   7.710  0.3556  0.7241 -0.1590
   44bbb    H17 1316  -0.881   7.948   7.703  1.7904  0.6562 -2.6522
   44bbb    H18 1317  -0.814   8.098   7.624  2.4783 -3.5616 -1.0963
   44bbb     O1 1318  -0.885   8.724   7.874 -0.2193  0.1312  0.3459
   44bbb    H19 1319  -0.842   8.272   8.066 -0.9378  0.9978 -0.2990
   45bbb     N1 1320  -0.566   7.397   7.001  0.0331 -0.0337  0.7614
   45bbb     C1 1321  -0.517   7.271   7.074 -0.0255 -0.0686 -0.0076
   45bbb     H1 1322  -0.591   7.191   7.072 -0.9251  0.7357  0.4211
   45bbb     H2 1323  -0.506   7.290   7.181 -1.1483 -1.0855  0.3092
   45bbb     C2 1324  -0.715   7.381   6.975 -0.2701 -0.5029 -0.0866
   45bbb     H3 1325  -0.754   7.482   6.967  0.6074 -0.1506 -0.0044
   45bbb     H4 1326  -0.761   7.335   7.063 -0.4660  1.7362  1.0442
   45bbb     C3 1327  -0.542   7.515   7.101  0.6330  0.0701 -0.2265
   45bbb     H5 1328  -0.441   7.509   7.142  0.1292 -1.2054  0.8791
   45bbb     H6 1329  -0.612   7.505   7.183  2.3428  0.1361  1.2997
   45bbb     C4 1330  -0.564   7.665   7.046  0.2325 -0.4322  0.0745
   45bbb     H7 1331  -0.671   7.686   7.039  0.2190 -0.0408  1.1912
   45bbb     H8 1332  -0.528   7.686   6.944 -2.8611  1.6289 -0.7389
   45bbb     C5 1333  -0.387   7.213   7.027 -0.5297  0.6247 -0.7500
   45bbb     H9 1334  -0.317   7.296   7.010 -0.2369  0.7333  0.8591
   45bbb    H10 1335  -0.391   7.155   6.934  1.3264 -1.3880  0.3349
   45bbb     C6 1336  -0.761   7.304   6.848 -0.0035  1.1822  0.1349
   45bbb    H11 1337  -0.717   7.204   6.848 -0.4274  0.9901 -0.4060
   45bbb    H12 1338  -0.722   7.349   6.756  2.4049 -0.6945  0.1576
   45bbb     C7 1339  -0.497   7.771   7.141 -0.7283 -0.6320  0.6486
   45bbb    H13 1340  -0.526   7.766   7.246 -0.7347  1.0410  0.7612
   45bbb    H14 1341  -0.531   7.871   7.108 -0.5478 -1.0838 -1.0030
   45bbb     C8 1342  -0.915   7.300   6.835  0.3047 -0.5501  0.2822
   45bbb    H15 1343  -0.952   7.250   6.925  1.9164  1.7210  2.3157
   45bbb    H16 1344  -0.951   7.403   6.823 -0.1525 -0.7128  0.2608
   45bbb     C9 1345  -0.316   7.123   7.127 -0.7005 -0.1664 -0.0975
   45bbb    H17 1346  -0.299   7.173   7.223 -3.2516  0.0949  0.2736
   45bbb    H18 1347  -0.217   7.104   7.083 -0.3279 -0.4857  0.8511
   45bbb     O1 1348  -0.349   7.756   7.117 -0.1751 -0.1277  0.3412
   45bbb    H19 1349  -0.525   7.410   6.907 -1.7821 -0.6283 -0.1604
   46bbb     N1 1350   0.459   7.716   7.027 -0.0694 -0.9017  0.3090
   46bbb     C1 1351   0.516   7.762   6.896  0.2089  0.2829  0.0574
   46bbb     H1 1352   0.621   7.733   6.906 -0.1862 -1.6106 -0.7322
   46bbb     H2 1353   0.517   7.871   6.896 -0.9410  0.3033 -0.3128
   46bbb     C2 1354   0.538   7.783   7.136 -0.2867 -0.3174 -0.8997
   46bbb     H3 1355   0.475   7.791   7.224 -0.3005  0.8951 -0.9988
   46bbb     H4 1356   0.562   7.884   7.100 -0.3550  0.3738  0.8921
   46bbb     C3 1357   0.308   7.759   7.045 -0.0877 -0.1662 -0.0848
   46bbb     H5 1358   0.245   7.723   6.964 -1.1346 -0.5883  0.8796
   46bbb     H6 1359   0.291   7.866   7.041 -1.5527 -0.4147 -1.1403
   46bbb     C4 1360   0.235   7.707   7.170 -0.6905  0.4064  0.3873
   46bbb     H7 1361   0.278   7.735   7.267 -0.5474  1.3468  0.0682
   46bbb     H8 1362   0.230   7.598   7.161 -1.2823  0.4423  0.2678
   46bbb     C5 1363   0.448   7.700   6.774  0.0069 -0.9405  0.4766
   46bbb     H9 1364   0.339   7.709   6.778  0.0793  1.6388 -0.9757
   46bbb    H10 1365   0.474   7.594   6.762  1.6609 -0.5518  0.4063
   46bbb     C6 1366   0.670   7.710   7.173  0.0079 -0.2579 -0.7984
   46bbb    H11 1367   0.742   7.710   7.091  2.3210  1.3453  1.0683
   46bbb    H12 1368   0.647   7.605   7.193 -2.1678  0.4742  0.9501
   46bbb     C7 1369   0.092   7.772   7.179  0.0470 -0.2146 -0.6445
   46bbb    H13 1370   0.040   7.730   7.266 -1.8204 -0.2653 -1.7314
   46bbb    H14 1371   0.039   7.747   7.086  1.9064  1.9966 -2.4295
   46bbb     C8 1372   0.751   7.771   7.299  0.5471  0.2367 -0.6588
   46bbb    H15 1373   0.677   7.774   7.380 -1.1877 -2.1961 -2.0042
   46bbb    H16 1374   0.830   7.701   7.328 -0.1583  0.9581  3.8273
   46bbb     C9 1375   0.486   7.775   6.645 -0.4342 -0.1257  0.2223
   46bbb    H17 1376   0.409   7.762   6.568 -1.3270 -0.7051  1.1861
   46bbb    H18 1377   0.578   7.733   6.604 -0.5101  1.1581 -1.3245
   46bbb     O1 1378   0.102   7.920   7.201  0.5155  0.1634 -0.3527
   46bbb    H19 1379   0.471   7.613   7.033 -0.1064 -1.0635 -1.7805
   47ccc     C1 1380   4.093  10.123   6.031  0.1983  0.4110 -0.5104
   47ccc     H1 1381   4.040  10.119   6.127  0.3241  1.0860 -0.4040
   47ccc     H2 1382   4.162  10.038   6.037  1.5714  1.5938  2.5422
   47ccc     C2 1383   4.151  10.258   6.001 -0.3267 -0.2687  0.4678
   47ccc     H3 1384   4.205  10.292   6.091  0.2194  0.4767 -0.1301
   47ccc     H4 1385   4.075  10.336   5.990  0.2304  0.0818 -1.2228
   47ccc     C3 1386   4.228  10.262   5.875 -0.2728  0.6320  0.5615
   47ccc     H5 1387   4.165  10.226   5.793  2.5328 -0.3234 -1.3130
   47ccc     H6 1388   4.311  10.193   5.890 -2.9994 -3.1975 -0.5879
   47ccc     N1 1389   4.279  10.400   5.849 -0.2896  0.0925 -0.0748
   47ccc     C4 1390   4.398  10.412   5.756  0.5354  0.0745 -0.1506
   47ccc     H7 1391   4.432  10.514   5.741  1.2189 -0.3185 -1.4549
   47ccc     H8 1392   4.360  10.389   5.656  1.3778 -1.4259 -0.1608
   47ccc     C5 1393   4.511  10.308   5.796  0.4029 -0.5147 -0.3336
   47ccc     H9 1394   4.529  10.315   5.904 -2.5521 -1.2689  0.3152
   47ccc    H10 1395   4.460  10.215   5.767 -3.1534  0.5944  1.7306
   47ccc     C6 1396   4.636  10.315   5.712 -0.0429 -0.4906  0.1481
   47ccc     O1 1397   4.685  10.227   5.651 -0.1883  0.3114  0.3548
   47ccc     O2 1398   4.721  10.405   5.756  0.4819 -0.2892  0.4330
   47ccc    H11 1399   4.804  10.375   5.716  1.4002  0.0313  2.0343
   47ccc     C7 1400   4.174  10.496   5.798 -0.2018 -0.4537  0.3396
   47ccc    H12 1401   4.113  10.547   5.873  0.6044  0.4490  0.4073
   47ccc    H13 1402   4.234  10.574   5.751  1.1981 -1.8682 -0.3319
   47ccc     C8 1403   4.076  10.432   5.691 -0.4511  0.0628  0.2635
   47ccc    H14 1404   4.124  10.377   5.610 -2.0507  0.6015 -1.1104
   47ccc    H15 1405   4.030  10.360   5.761  0.3685  1.2018  2.0608
   47ccc     C9 1406   3.979  10.525   5.626 -0.0346 -1.0650  0.5770
   47ccc     O3 1407   3.974  10.646   5.658 -0.0568  0.4568 -0.4523
   47ccc     O4 1408   3.912  10.481   5.521 -0.2794 -0.7172 -0.3378
   47ccc    H16 1409   3.944  10.389   5.524  0.2414 -0.6450 -2.0428
   47ccc     O5 1410   4.003  10.094   5.926 -0.0624  0.4017 -0.2385
   47ccc    H17 1411   4.312  10.427   5.943 -0.2110 -0.0382 -0.0643
   48ccc     C1 1412   3.503  10.721   5.621  0.0315 -0.0981  0.0517
   48ccc     H1 1413   3.454  10.757   5.530 -1.9130 -0.1258  1.0169
   48ccc     H2 1414   3.424  10.699   5.694 -0.1571 -1.5199 -0.5533
   48ccc     C2 1415   3.600  10.830   5.679 -0.3716  0.3678 -0.2486
   48ccc     H3 1416   3.630  10.799   5.780 -1.0080  0.9891  0.1383
   48ccc     H4 1417   3.542  10.921   5.698 -0.7729  0.6232 -2.4928
   48ccc     C3 1418   3.724  10.855   5.592  0.0619  0.2634  1.0288
   48ccc     H5 1419   3.698  10.872   5.488  1.7381  0.9307  0.6843
   48ccc     H6 1420   3.785  10.765   5.591  0.4105  0.4917  1.3929
   48ccc     N1 1421   3.821  10.967   5.639  1.1652 -0.2844  0.7314
   48ccc     C4 1422   3.827  10.970   5.792  0.1928  0.3987  0.7538
   48ccc     H7 1423   3.898  10.893   5.822  0.3793  0.1141 -0.3901
   48ccc     H8 1424   3.730  10.936   5.829 -0.1961 -0.1671 -0.7262
   48ccc     C5 1425   3.853  11.116   5.850  0.1792 -0.8399 -0.0035
   48ccc     H9 1426   3.962  11.127   5.860 -0.1130  0.6326  2.2465
   48ccc    H10 1427   3.804  11.196   5.792  1.0258 -1.3471 -1.4815
   48ccc     C6 1428   3.813  11.116   5.996 -0.5003 -0.5443  0.3262
   48ccc     O1 1429   3.875  11.052   6.080  0.4670  0.0752 -0.1987
   48ccc     O2 1430   3.705  11.194   6.039 -0.1890 -0.2704  0.2336
   48ccc    H11 1431   3.690  11.164   6.130  1.1083  2.2462  1.3752
   48ccc     C7 1432   3.961  10.953   5.588 -0.5785  0.1852 -0.7397
   48ccc    H12 1433   4.008  11.051   5.593  0.9682 -0.5947  1.6003
   48ccc    H13 1434   4.018  10.881   5.646 -1.3826 -0.4225 -0.6953
   48ccc     C8 1435   3.978  10.901   5.440  0.2631 -0.3328  0.0367
   48ccc    H14 1436   3.921  10.808   5.429 -0.8747  0.3256  0.2685
   48ccc    H15 1437   3.947  10.983   5.373  3.3608  0.3272 -0.7619
   48ccc     C9 1438   4.115  10.853   5.400 -0.5527  0.0040  0.1501
   48ccc     O3 1439   4.208  10.867   5.475 -0.1624  0.0056 -0.4481
   48ccc     O4 1440   4.113  10.780   5.287  0.3860 -0.0033 -0.4343
   48ccc    H16 1441   4.029  10.781   5.237  0.9990  0.5904 -1.4814
   48ccc     O5 1442   3.563  10.594   5.593 -0.4141  0.0308 -0.4607
   48ccc    H17 1443   3.780  11.055   5.604 -1.0277 -1.6823 -0.4051
   49ccc     C1 1444   2.903   8.851   7.030  0.7571  0.4519 -0.2396
   49ccc     H1 1445   2.943   8.772   6.964  1.5393  0.3046  0.3980
   49ccc     H2 1446   2.974   8.876   7.110  0.3625 -0.1170  0.2926
   49ccc     C2 1447   2.772   8.808   7.103  1.0102 -0.3165  1.3021
   49ccc     H3 1448   2.743   8.706   7.076 -1.4622  1.2022 -2.6479
   49ccc     H4 1449   2.687   8.866   7.066  1.4644  0.4735  1.4623
   49ccc     C3 1450   2.782   8.845   7.250  0.0748  0.1091  0.2984
   49ccc     H5 1451   2.765   8.953   7.250  0.0633  0.1110 -0.2957
   49ccc     H6 1452   2.880   8.827   7.294  0.3390  0.7011 -0.0424
   49ccc     N1 1453   2.669   8.782   7.322 -0.2217 -0.5496  0.7128
   49ccc     C4 1454   2.702   8.647   7.373  0.0652 -0.3078 -0.1782
   49ccc     H7 1455   2.729   8.662   7.478  1.8253 -2.1609 -0.3011
   49ccc     H8 1456   2.785   8.600   7.320  1.2968  1.0513  0.4932
   49ccc     C5 1457   2.582   8.557   7.374  0.4965  0.4787 -0.2505
   49ccc     H9 1458   2.490   8.606   7.407  0.2251  0.2738 -0.6886
   49ccc    H10 1459   2.562   8.531   7.269 -1.7421  0.6292  0.0886
   49ccc     C6 1460   2.598   8.423   7.443  0.0367 -0.4407 -0.3714
   49ccc     O1 1461   2.695   8.354   7.437 -0.1418 -0.2790  0.0009
   49ccc     O2 1462   2.480   8.376   7.494 -0.4262 -0.3776 -0.1950
   49ccc    H11 1463   2.514   8.293   7.532  1.7451 -0.0169 -1.1956
   49ccc     C7 1464   2.647   8.891   7.435 -0.3530 -0.1697  0.0401
   49ccc    H12 1465   2.733   8.898   7.501 -1.5518 -0.2943  1.6952
   49ccc    H13 1466   2.649   8.990   7.390  1.3248  0.1386  0.7205
   49ccc     C8 1467   2.507   8.867   7.509 -0.2945  0.3269  0.0629
   49ccc    H14 1468   2.430   8.835   7.438  0.7991 -1.6949 -0.3089
   49ccc    H15 1469   2.517   8.788   7.584  0.9572 -0.3823 -0.7977
   49ccc     C9 1470   2.467   8.993   7.574  0.6401  0.4083  0.6781
   49ccc     O3 1471   2.522   9.103   7.575  0.0099 -0.1302  0.7911
   49ccc     O4 1472   2.343   8.989   7.626  0.0538  0.2507  0.5217
   49ccc    H16 1473   2.314   8.898   7.642 -0.5221  0.6314  1.8118
   49ccc     O5 1474   2.869   8.973   6.958  0.4408  0.2338 -0.6182
   49ccc    H17 1475   2.584   8.782   7.264  2.1618  4.5871 -3.6152
   50ccc     C1 1476   2.554   9.454   6.998  0.6415 -0.3688  0.2196
   50ccc     H1 1477   2.513   9.549   7.037 -1.3488 -2.0117  2.4058
   50ccc     H2 1478   2.470   9.390   6.969 -1.0088  1.7772 -0.0227
   50ccc     C2 1479   2.632   9.389   7.110  0.0942  0.3254  0.4279
   50ccc     H3 1480   2.685   9.306   7.061  0.6483  1.5665 -1.1536
   50ccc     H4 1481   2.555   9.345   7.175 -0.7166 -0.3260 -0.9122
   50ccc     C3 1482   2.743   9.478   7.177 -0.4472 -0.1878 -0.6103
   50ccc     H5 1483   2.702   9.579   7.179 -2.3812 -0.9457  1.6974
   50ccc     H6 1484   2.828   9.478   7.108  0.5222 -0.7598  0.5620
   50ccc     N1 1485   2.785   9.448   7.317  0.2937 -0.2745 -0.2015
   50ccc     C4 1486   2.849   9.301   7.323 -0.5232 -0.6561 -0.0914
   50ccc     H7 1487   2.935   9.307   7.255 -1.2390 -0.0262 -0.9650
   50ccc     H8 1488   2.780   9.222   7.296 -3.2928  1.4641  0.3079
   50ccc     C5 1489   2.894   9.276   7.470 -0.1400 -0.0362 -0.2241
   50ccc     H9 1490   2.976   9.344   7.496 -0.7212 -0.1404  2.1181
   50ccc    H10 1491   2.810   9.289   7.540  1.7023  1.1807  1.8913
   50ccc     C6 1492   2.943   9.133   7.484  0.8751  0.0754 -0.6028
   50ccc     O1 1493   2.933   9.043   7.399 -0.0884  0.1635  0.2611
   50ccc     O2 1494   3.035   9.116   7.587  0.7633  0.2695  0.2678
   50ccc    H11 1495   3.074   9.029   7.569 -1.4594 -0.6160 -0.7484
   50ccc     C7 1496   2.878   9.560   7.360 -0.1187 -0.5009  0.3993
   50ccc    H12 1497   2.924   9.533   7.455  0.2284  0.1251  0.4090
   50ccc    H13 1498   2.950   9.582   7.281 -1.3586 -0.5782 -0.8037
   50ccc     C8 1499   2.805   9.699   7.382 -0.0645  0.4250 -0.6181
   50ccc    H14 1500   2.762   9.746   7.292 -1.9924  1.8428  0.9648
   50ccc    H15 1501   2.729   9.689   7.459 -1.4117  1.3116 -1.7790
   50ccc     C9 1502   2.899   9.802   7.446  0.1778  0.4592 -0.6592
   50ccc     O3 1503   3.019   9.805   7.433  0.1608 -0.3719 -0.3371
   50ccc     O4 1504   2.830   9.888   7.527  0.1167 -0.0910  0.0923
   50ccc    H16 1505   2.735   9.870   7.514  0.7196 -1.2155 -4.0875
   50ccc     O5 1506   2.649   9.474   6.892  0.3800 -0.1585 -0.0611
   50ccc    H17 1507   2.697   9.440   7.369  1.1538 -2.3836  1.0648
   51ccc     C1 1508   2.656  10.016   3.779  0.3475 -0.1632  0.5940
   51ccc     H1 1509   2.750  10.041   3.728 -0.8989  2.1162 -0.7858
   51ccc     H2 1510   2.590   9.994   3.695  1.0740  1.4282 -0.4453
   51ccc     C2 1511   2.611  10.141   3.852 -0.5977 -0.0426 -0.6659
   51ccc     H3 1512   2.507  10.143   3.885 -1.0728 -0.8761 -2.0511
   51ccc     H4 1513   2.609  10.226   3.782  0.6062 -1.3807 -2.4007
   51ccc     C3 1514   2.703  10.168   3.972  0.1371  0.5382  0.2476
   51ccc     H5 1515   2.808  10.173   3.942 -0.2805  0.9525 -1.2429
   51ccc     H6 1516   2.696  10.080   4.035  0.5071 -1.1709 -1.9597
   51ccc     N1 1517   2.672  10.307   4.042  0.0710  0.0625 -0.3993
   51ccc     C4 1518   2.699  10.436   3.956 -0.5473 -0.2258 -0.1830
   51ccc     H7 1519   2.643  10.516   4.005 -0.2839 -1.0804  1.5915
   51ccc     H8 1520   2.663  10.422   3.854  2.0535  2.4084 -1.6508
   51ccc     C5 1521   2.851  10.481   3.940  0.4279 -0.2555 -0.3728
   51ccc     H9 1522   2.902  10.455   4.033  0.4585  0.6337 -0.1316
   51ccc    H10 1523   2.896  10.423   3.858 -1.9742 -0.5082 -1.6226
   51ccc     C6 1524   2.857  10.628   3.916 -0.0441 -0.0237 -0.1632
   51ccc     O1 1525   2.773  10.693   3.858  0.2663 -0.1496  0.5653
   51ccc     O2 1526   2.980  10.679   3.940 -0.5522  0.2407  0.1983
   51ccc    H11 1527   3.030  10.611   3.989  1.6083 -0.4699 -2.6990
   51ccc     C7 1528   2.522  10.317   4.086 -0.5710  0.4718  0.9921
   51ccc    H12 1529   2.496  10.420   4.113  0.0471  1.3848 -1.5620
   51ccc    H13 1530   2.467  10.295   3.994 -0.7870  0.8802  1.0188
   51ccc     C8 1531   2.486  10.219   4.198  0.2512  0.2619 -0.1200
   51ccc    H14 1532   2.377  10.224   4.202 -0.0310 -0.1466 -3.8164
   51ccc    H15 1533   2.529  10.121   4.173 -0.2326 -0.0873  0.4071
   51ccc     C9 1534   2.518  10.277   4.339  0.1256 -0.0342 -0.5726
   51ccc     O3 1535   2.501  10.392   4.382 -0.1554  0.7405  0.2059
   51ccc     O4 1536   2.565  10.182   4.410 -0.0701 -0.0550  0.1659
   51ccc    H16 1537   2.542  10.215   4.498 -2.3024  0.8202 -0.6702
   51ccc     O5 1538   2.657   9.913   3.868 -0.1767 -0.2367 -0.2737
   51ccc    H17 1539   2.741  10.301   4.119  0.9854 -2.0130 -1.3148
   52ccc     C1 1540   3.285   9.402   4.104 -0.2092 -1.1234 -0.0912
   52ccc     H1 1541   3.245   9.338   4.025  0.3360  0.3572 -1.6349
   52ccc     H2 1542   3.390   9.424   4.078 -0.2130  0.1755  0.8576
   52ccc     C2 1543   3.279   9.330   4.241  0.1064  0.5064 -0.2683
   52ccc     H3 1544   3.276   9.402   4.324 -0.3401  2.8242 -2.1774
   52ccc     H4 1545   3.370   9.275   4.266  0.1537  0.7846  0.1754
   52ccc     C3 1546   3.148   9.243   4.239 -0.2728 -0.0268 -0.5099
   52ccc     H5 1547   3.128   9.188   4.147  2.2099 -2.3279  0.1913
   52ccc     H6 1548   3.060   9.300   4.268 -1.2193 -1.1386 -1.1165
   52ccc     N1 1549   3.156   9.137   4.347 -0.3970 -0.3542  1.1688
   52ccc     C4 1550   3.158   9.202   4.485  0.1244  0.4842 -0.1554
   52ccc     H7 1551   3.249   9.261   4.489 -0.7564  1.8156  1.8661
   52ccc     H8 1552   3.160   9.128   4.565 -1.0922 -0.0873 -0.6198
   52ccc     C5 1553   3.038   9.294   4.511  0.6272  0.0988 -0.5204
   52ccc     H9 1554   3.051   9.391   4.463 -1.9511 -0.1316 -1.8729
   52ccc    H10 1555   2.947   9.242   4.479  0.1656  0.7131 -0.2152
   52ccc     C6 1556   3.021   9.301   4.659  0.0603 -0.4102  0.3570
   52ccc     O1 1557   2.996   9.204   4.733  0.1869 -0.2532 -0.2955
   52ccc     O2 1558   3.001   9.431   4.707 -0.8250  0.0497 -0.2207
   52ccc    H11 1559   3.006   9.486   4.627  3.3308  1.0646  0.4862
   52ccc     C7 1560   3.039   9.043   4.328  0.1793  0.2932  0.4010
   52ccc    H12 1561   2.946   9.087   4.365 -0.1463  1.6193 -1.8067
   52ccc    H13 1562   3.025   9.027   4.221 -0.8905 -1.1421  0.7290
   52ccc     C8 1563   3.057   8.916   4.411  0.1174  1.0682 -0.8263
   52ccc    H14 1564   3.143   8.856   4.378  0.4845 -0.6806  2.8341
   52ccc    H15 1565   3.066   8.942   4.517  1.0731  0.2529 -0.6928
   52ccc     C9 1566   2.940   8.814   4.384  1.1446  0.3168  0.2039
   52ccc     O3 1567   2.901   8.792   4.268 -0.2421 -0.2869  0.1368
   52ccc     O4 1568   2.856   8.805   4.492 -0.0252 -0.2996 -0.5214
   52ccc    H16 1569   2.910   8.812   4.573 -0.1155 -1.0846 -0.3844
   52ccc     O5 1570   3.204   9.526   4.118  0.4996  0.4711 -0.3695
   52ccc    H17 1571   3.246   9.087   4.348 -0.1446  0.0511  0.0033
   53ccc     C1 1572   3.156   8.799   5.055  0.9319  0.8057 -0.8466
   53ccc     H1 1573   3.073   8.755   4.997 -0.2086 -0.4147  1.5586
   53ccc     H2 1574   3.245   8.782   4.994  0.3978  2.1789 -2.0531
   53ccc     C2 1575   3.154   8.728   5.196  0.3356 -0.2299 -0.8080
   53ccc     H3 1576   3.150   8.619   5.183 -0.4807 -0.4022  0.6858
   53ccc     H4 1577   3.059   8.755   5.244  0.0889  0.6451 -1.7700
   53ccc     C3 1578   3.267   8.771   5.291 -0.0824 -0.1123 -0.1639
   53ccc     H5 1579   3.259   8.879   5.306 -0.6101  0.2532 -2.5982
   53ccc     H6 1580   3.367   8.753   5.252  0.1730  0.1519  0.3637
   53ccc     N1 1581   3.257   8.709   5.427 -0.3655 -0.1300 -0.0542
   53ccc     C4 1582   3.354   8.598   5.450 -0.2701  0.0232 -0.0081
   53ccc     H7 1583   3.453   8.635   5.475  0.8430 -0.2778 -3.4167
   53ccc     H8 1584   3.381   8.563   5.350 -1.2433 -0.5227 -0.1023
   53ccc     C5 1585   3.305   8.480   5.531  0.2530  0.0927 -0.4417
   53ccc     H9 1586   3.220   8.424   5.490  1.2022 -0.4476 -1.7787
   53ccc    H10 1587   3.384   8.403   5.539  0.6177  0.5254  0.1740
   53ccc     C6 1588   3.273   8.518   5.676  0.7044  0.0534  0.4598
   53ccc     O1 1589   3.346   8.586   5.744 -0.0645 -0.6778 -0.1566
   53ccc     O2 1590   3.148   8.485   5.720  0.0477 -0.3527  0.1559
   53ccc    H11 1591   3.104   8.420   5.663  0.4053 -0.4990  0.0477
   53ccc     C7 1592   3.275   8.816   5.542 -0.5033  0.2568  0.7985
   53ccc    H12 1593   3.320   8.774   5.632  0.8801 -0.3767 -0.1626
   53ccc    H13 1594   3.341   8.888   5.494  0.3552 -0.8421  0.2664
   53ccc     C8 1595   3.150   8.892   5.582  0.1956 -0.0400 -0.6132
   53ccc    H14 1596   3.093   8.917   5.492  1.5302  0.8089 -1.2600
   53ccc    H15 1597   3.080   8.828   5.637 -1.2761  1.7830 -0.2663
   53ccc     C9 1598   3.189   9.015   5.664  0.4265  0.2912 -0.0540
   53ccc     O3 1599   3.281   9.089   5.641  0.0753  0.1047  0.1057
   53ccc     O4 1600   3.103   9.057   5.759 -0.3430  0.1532 -0.7403
   53ccc    H16 1601   3.141   9.147   5.766  0.9334 -0.2572 -1.9960
   53ccc     O5 1602   3.143   8.940   5.072 -0.2669  0.4296  0.0349
   53ccc    H17 1603   3.160   8.674   5.431  0.2258 -1.7601  1.0535
   54ccc     C1 1604   3.261   9.346   5.479 -0.3962 -0.6737 -0.1078
   54ccc     H1 1605   3.271   9.454   5.460  0.1686 -1.0433 -2.2329
   54ccc     H2 1606   3.257   9.337   5.588 -2.8108  0.6141 -0.0325
   54ccc     C2 1607   3.378   9.268   5.417 -0.6029 -0.2549 -0.1004
   54ccc     H3 1608   3.405   9.312   5.320 -0.0161  0.8581  0.5561
   54ccc     H4 1609   3.347   9.164   5.397  1.0952 -1.4844  2.9114
   54ccc     C3 1610   3.497   9.257   5.511  0.2434 -0.7719  0.6544
   54ccc     H5 1611   3.532   9.154   5.514  2.2167 -0.1292  3.0392
   54ccc     H6 1612   3.461   9.271   5.613 -1.8589 -0.3159 -0.1030
   54ccc     N1 1613   3.621   9.345   5.482 -0.6695 -0.6672 -0.2482
   54ccc     C4 1614   3.607   9.473   5.556  0.1776 -0.3941 -0.4678
   54ccc     H7 1615   3.617   9.450   5.662  2.2586  0.1550 -0.4930
   54ccc     H8 1616   3.510   9.519   5.539 -0.6146  0.0349  4.0584
   54ccc     C5 1617   3.711   9.576   5.512 -0.1073  0.6387 -0.2753
   54ccc     H9 1618   3.812   9.560   5.550 -0.7405 -1.1325  0.8209
   54ccc    H10 1619   3.726   9.580   5.403  1.7009  0.1851 -0.0744
   54ccc     C6 1620   3.677   9.717   5.550  0.8404 -0.4435  0.0411
   54ccc     O1 1621   3.564   9.743   5.588 -0.2509 -0.1104  0.0669
   54ccc     O2 1622   3.778   9.807   5.560 -0.2395  0.2014 -0.2210
   54ccc    H11 1623   3.854   9.779   5.506 -0.2387 -0.6647  0.2215
   54ccc     C7 1624   3.752   9.266   5.518 -0.2753 -0.5823 -0.0025
   54ccc    H12 1625   3.758   9.185   5.445 -2.2765 -0.1336 -0.7198
   54ccc    H13 1626   3.838   9.330   5.502  1.2550 -1.7796  2.7842
   54ccc     C8 1627   3.758   9.194   5.659 -0.1624  0.5918 -0.5795
   54ccc    H14 1628   3.774   9.274   5.732  1.4556  0.6697 -0.9710
   54ccc    H15 1629   3.670   9.132   5.682 -1.4516  2.0453 -1.3985
   54ccc     C9 1630   3.880   9.100   5.660 -0.3463 -0.3359  0.6448
   54ccc     O3 1631   3.999   9.138   5.649  0.0555  0.1453 -0.1288
   54ccc     O4 1632   3.856   8.973   5.667 -0.2553 -0.2157  1.0362
   54ccc    H16 1633   3.945   8.935   5.659 -0.5869 -0.6260 -4.4736
   54ccc     O5 1634   3.145   9.288   5.418 -0.2161 -0.3013 -0.2373
   54ccc    H17 1635   3.629   9.365   5.381  1.1495 -0.8000 -0.1666
   55ccc     C1 1636   1.743   9.784   4.570  0.2827 -0.0713 -0.4476
   55ccc     H1 1637   1.749   9.684   4.616 -0.8111 -0.1419 -0.4398
   55ccc     H2 1638   1.638   9.807   4.548  0.5752  0.5555 -1.2007
   55ccc     C2 1639   1.831   9.778   4.448 -0.2701 -0.6541 -0.2125
   55ccc     H3 1640   1.785   9.711   4.374  1.2213  0.1735 -1.9716
   55ccc     H4 1641   1.925   9.734   4.484  0.5620  2.2996  1.5136
   55ccc     C3 1642   1.829   9.914   4.378  0.7411  0.5372 -0.1952
   55ccc     H5 1643   1.849   9.991   4.453 -1.1406  1.7474 -0.8648
   55ccc     H6 1644   1.730   9.941   4.342  0.2633  0.5024  1.0651
   55ccc     N1 1645   1.931   9.929   4.266 -0.1661 -0.5234 -0.0401
   55ccc     C4 1646   1.913  10.069   4.203 -0.3699  0.6564  0.1158
   55ccc     H7 1647   1.990  10.084   4.127  0.4381  2.9821  1.3153
   55ccc     H8 1648   1.941  10.145   4.275 -0.5699 -0.0200  0.9373
   55ccc     C5 1649   1.773  10.112   4.139  0.1622 -0.6372  0.5713
   55ccc     H9 1650   1.739  10.059   4.049  1.7592  1.2945 -1.2531
   55ccc    H10 1651   1.693  10.097   4.212 -1.2761  0.6155 -0.6806
   55ccc     C6 1652   1.773  10.256   4.098 -0.3328  0.0623 -0.2022
   55ccc     O1 1653   1.857  10.336   4.130 -0.0265  0.2422  0.2315
   55ccc     O2 1654   1.651  10.312   4.078 -0.5668 -0.1700 -0.2046
   55ccc    H11 1655   1.660  10.409   4.080 -2.3059  0.1864 -3.2379
   55ccc     C7 1656   2.077   9.917   4.316  0.0073  0.3671  0.1245
   55ccc    H12 1657   2.090  10.014   4.364 -3.5912  0.4510  1.2700
   55ccc    H13 1658   2.072   9.843   4.396 -1.3197  3.3984  3.1161
   55ccc     C8 1659   2.177   9.878   4.204  0.5543 -0.1124 -0.1087
   55ccc    H14 1660   2.158   9.772   4.184  0.1505  0.5389 -4.1389
   55ccc    H15 1661   2.147   9.937   4.115 -1.7113 -0.0782  0.5999
   55ccc     C9 1662   2.321   9.890   4.254 -0.8784 -0.4921 -0.3060
   55ccc     O3 1663   2.353   9.916   4.369 -0.1720 -0.1369  0.0171
   55ccc     O4 1664   2.427   9.852   4.178  0.5635 -0.3021  0.4325
   55ccc    H16 1665   2.387   9.826   4.094 -0.6909  0.4350  0.7782
   55ccc     O5 1666   1.808   9.890   4.649 -0.5053 -0.0109  0.3250
   55ccc    H17 1667   1.907   9.856   4.196 -2.7700 -2.2572  2.4540
   56ccc     C1 1668   1.343   9.607   4.595 -0.1561  0.1617 -0.4765
   56ccc     H1 1669   1.248   9.567   4.632 -0.7655  1.3354 -0.7202
   56ccc     H2 1670   1.340   9.600   4.485 -0.2657  1.7932 -0.6080
   56ccc     C2 1671   1.451   9.512   4.657  0.5171  0.0883 -0.8774
   56ccc     H3 1672   1.550   9.540   4.619  0.7885  1.9055  1.0246
   56ccc     H4 1673   1.448   9.412   4.612  0.9827 -0.8507  1.0778
   56ccc     C3 1674   1.463   9.511   4.816 -0.5639  0.2809  0.4317
   56ccc     H5 1675   1.520   9.603   4.830 -1.4060  1.1503 -1.5643
   56ccc     H6 1676   1.527   9.428   4.848 -0.9914 -0.1923  0.0581
   56ccc     N1 1677   1.335   9.510   4.900  0.0132 -0.6978 -0.2261
   56ccc     C4 1678   1.257   9.379   4.873  0.7484 -0.6386  0.0033
   56ccc     H7 1679   1.228   9.389   4.768  2.9048 -1.6547 -0.7555
   56ccc     H8 1680   1.169   9.373   4.936  0.6722  0.6872  0.0385
   56ccc     C5 1681   1.337   9.247   4.883  0.9528 -0.6756 -0.1015
   56ccc     H9 1682   1.411   9.248   4.803  1.1115  0.5697  0.0398
   56ccc    H10 1683   1.385   9.227   4.980 -1.0828  1.0223  1.3666
   56ccc     C6 1684   1.240   9.125   4.862 -0.3077  0.9554 -0.6087
   56ccc     O1 1685   1.119   9.143   4.846 -0.4264  0.0927  0.2640
   56ccc     O2 1686   1.283   9.009   4.922 -0.2433 -0.4932  0.5045
   56ccc    H11 1687   1.380   9.018   4.916 -0.3578 -0.2075 -1.6997
   56ccc     C7 1688   1.371   9.519   5.048 -0.3416 -0.5582 -0.7561
   56ccc    H12 1689   1.370   9.418   5.090 -0.5405  0.2168  1.2065
   56ccc    H13 1690   1.475   9.551   5.058  0.3762 -2.1923 -2.3494
   56ccc     C8 1691   1.285   9.616   5.135  0.7897 -0.2367  0.4363
   56ccc    H14 1692   1.182   9.586   5.112  0.7154  1.0882 -1.1326
   56ccc    H15 1693   1.317   9.605   5.240 -0.1038  0.4639  0.7941
   56ccc     C9 1694   1.323   9.757   5.091 -0.3977  0.1514 -0.3558
   56ccc     O3 1695   1.368   9.777   4.980  0.6760  0.4459 -0.0157
   56ccc     O4 1696   1.271   9.854   5.171  0.1652 -0.3487 -0.1493
   56ccc    H16 1697   1.265   9.931   5.111 -0.4964 -1.0694 -1.0302
   56ccc     O5 1698   1.370   9.745   4.634  0.7916 -0.6102 -0.0691
   56ccc    H17 1699   1.280   9.595   4.880  2.1074  1.2350  1.6802
   57ccc     C1 1700   2.725  10.955   4.143  0.3068 -0.0284  0.1872
   57ccc     H1 1701   2.728  10.851   4.177  2.5332  0.3788  1.4473
   57ccc     H2 1702   2.701  10.950   4.036  2.2912  1.9631 -0.4344
   57ccc     C2 1703   2.868  11.006   4.159  0.0256  0.8637 -0.2236
   57ccc     H3 1704   2.931  10.922   4.128  2.1511  1.5889  1.7979
   57ccc     H4 1705   2.888  11.033   4.264  1.6137 -0.4511 -0.1391
   57ccc     C3 1706   2.879  11.127   4.071  0.3614 -0.0472 -0.1326
   57ccc     H5 1707   2.815  11.208   4.106  0.0331 -1.0029  1.5935
   57ccc     H6 1708   2.839  11.102   3.973  2.4392 -0.9283 -0.8291
   57ccc     N1 1709   3.022  11.182   4.058  0.0969  0.0654 -0.0188
   57ccc     C4 1710   3.077  11.235   4.191 -0.3972  0.0067 -0.2104
   57ccc     H7 1711   3.183  11.263   4.182 -0.2837 -0.4607 -0.3871
   57ccc     H8 1712   3.080  11.149   4.258  1.5329 -0.0532 -0.3151
   57ccc     C5 1713   3.001  11.356   4.245  0.7819  0.1250 -0.5991
   57ccc     H9 1714   2.994  11.430   4.164  1.0990  1.3629  0.4671
   57ccc    H10 1715   2.905  11.328   4.291  1.4694 -1.0563  0.1484
   57ccc     C6 1716   3.089  11.427   4.350  0.2206  0.8388  0.4065
   57ccc     O1 1717   3.187  11.383   4.405 -0.6919 -0.1690  0.1030
   57ccc     O2 1718   3.044  11.548   4.376 -0.2316  0.3891 -0.7704
   57ccc    H11 1719   2.957  11.554   4.335 -0.7720  0.0285  0.2911
   57ccc     C7 1720   3.123  11.090   3.996 -0.2968 -0.0269 -0.2490
   57ccc    H12 1721   3.214  11.150   3.997 -0.7140  0.6229  0.0337
   57ccc    H13 1722   3.124  11.009   4.069 -1.5442 -0.9817 -1.2447
   57ccc     C8 1723   3.093  11.029   3.859 -0.4425  0.3249 -0.7427
   57ccc    H14 1724   3.024  10.944   3.860 -0.4475  0.3315 -0.6104
   57ccc    H15 1725   3.041  11.109   3.804 -1.4203 -0.1318 -0.5049
   57ccc     C9 1726   3.224  10.984   3.792  0.3068  0.0361 -0.3056
   57ccc     O3 1727   3.340  10.994   3.837  0.7245 -0.3279  0.1862
   57ccc     O4 1728   3.213  10.909   3.681 -0.5715  0.0236  1.1052
   57ccc    H16 1729   3.128  10.934   3.642 -0.4949  1.3906  1.7472
   57ccc     O5 1730   2.646  11.038   4.228 -0.4271  0.0299 -0.4378
   57ccc    H17 1731   3.013  11.258   3.990  1.3809 -0.4971 -0.8451
   58ccc     C1 1732   2.899  11.471   4.716  0.4407  0.4225  0.3548
   58ccc     H1 1733   2.849  11.568   4.703 -1.1519 -0.2064  1.4768
   58ccc     H2 1734   2.875  11.445   4.820 -0.1148 -1.8061 -0.2724
   58ccc     C2 1735   3.050  11.456   4.694  0.2469 -0.2389 -0.0964
   58ccc     H3 1736   3.070  11.504   4.597 -0.8674 -2.2004 -1.3692
   58ccc     H4 1737   3.077  11.350   4.686  1.5400  0.0479  0.3715
   58ccc     C3 1738   3.140  11.524   4.803  0.7262  0.1599  0.3496
   58ccc     H5 1739   3.128  11.468   4.896  0.2039 -0.4769 -0.0938
   58ccc     H6 1740   3.104  11.625   4.826 -0.3149 -0.1381  0.0634
   58ccc     N1 1741   3.292  11.543   4.767  0.7717 -0.2139  0.8406
   58ccc     C4 1742   3.349  11.652   4.858 -0.2008 -0.7576 -0.1641
   58ccc     H7 1743   3.458  11.667   4.855 -0.3995  1.8400  1.7163
   58ccc     H8 1744   3.320  11.637   4.962 -0.3860 -0.9396 -0.2428
   58ccc     C5 1745   3.308  11.795   4.811 -0.2052  0.3670  0.0915
   58ccc     H9 1746   3.338  11.828   4.711  0.2786  1.0824  0.4688
   58ccc    H10 1747   3.198  11.789   4.814 -0.4708  2.6958 -1.9914
   58ccc     C6 1748   3.352  11.897   4.910  0.2982 -0.1875  0.1056
   58ccc     O1 1749   3.454  11.889   4.983 -0.5301 -0.2967  0.6788
   58ccc     O2 1750   3.287  12.014   4.893  0.7901 -0.0559 -0.3727
   58ccc    H11 1751   3.327  12.066   4.964  0.2058 -0.2708  0.1224
   58ccc     C7 1752   3.370  11.410   4.793 -0.1933 -0.5783 -0.0381
   58ccc    H12 1753   3.406  11.419   4.895 -0.3381 -1.0450  0.0588
   58ccc    H13 1754   3.310  11.319   4.796  0.7981 -1.2750 -0.5562
   58ccc     C8 1755   3.492  11.379   4.710  0.0541  0.1621  0.2590
   58ccc    H14 1756   3.467  11.358   4.605  2.0194 -1.2455 -0.0007
   58ccc    H15 1757   3.568  11.458   4.713 -1.1331  1.3199  0.4672
   58ccc     C9 1758   3.546  11.244   4.760 -0.4269 -0.4625  0.1385
   58ccc     O3 1759   3.562  11.221   4.875  0.3796 -0.1778  0.4765
   58ccc     O4 1760   3.570  11.158   4.666  0.5495  0.1087  0.4172
   58ccc    H16 1761   3.625  11.087   4.704  0.6930  0.6299  1.1987
   58ccc     O5 1762   2.828  11.372   4.638 -0.6073  0.2633 -0.4186
   58ccc    H17 1763   3.305  11.574   4.670  0.8184 -0.2735  0.8273
   59ccc     C1 1764   0.817  11.779   5.698  0.1292  0.1446 -0.5621
   59ccc     H1 1765   0.744  11.708   5.740  2.1755 -2.4852 -1.1707
   59ccc     H2 1766   0.768  11.876   5.686 -0.9670 -0.2607  0.4278
   59ccc     C2 1767   0.870  11.721   5.564  0.0345  0.0924 -1.2577
   59ccc     H3 1768   0.911  11.624   5.594  1.3918  1.5574  2.2154
   59ccc     H4 1769   0.948  11.784   5.519  1.8486 -0.5227  0.8292
   59ccc     C3 1770   0.769  11.701   5.449 -0.1025  0.0553 -0.2607
   59ccc     H5 1771   0.706  11.789   5.433  0.0741 -0.1891 -2.6356
   59ccc     H6 1772   0.701  11.624   5.484  0.5648 -0.6911 -0.5869
   59ccc     N1 1773   0.837  11.659   5.309  0.6553  0.0533 -0.3009
   59ccc     C4 1774   0.899  11.519   5.323  0.0745  0.2130 -0.1092
   59ccc     H7 1775   0.933  11.516   5.427 -0.3742 -0.4495  0.0234
   59ccc     H8 1776   0.984  11.515   5.256  1.3572 -1.2743  1.5342
   59ccc     C5 1777   0.816  11.398   5.299  0.5658 -0.2675  0.1328
   59ccc     H9 1778   0.740  11.393   5.378  0.2618 -0.4771 -0.1703
   59ccc    H10 1779   0.755  11.411   5.209 -1.4559  1.9892  1.6944
   59ccc     C6 1780   0.890  11.266   5.294  0.6162  0.0432  0.7956
   59ccc     O1 1781   0.973  11.240   5.382  0.1864 -0.4630 -0.0350
   59ccc     O2 1782   0.859  11.188   5.193 -0.2600  0.0778 -0.6126
   59ccc    H11 1783   0.922  11.117   5.213 -1.8023 -0.7895  1.4779
   59ccc     C7 1784   0.727  11.665   5.205  0.0317  0.2346 -0.5076
   59ccc    H12 1785   0.655  11.584   5.222 -0.3020 -0.3881 -4.0105
   59ccc    H13 1786   0.680  11.764   5.204  1.0861  0.7508 -0.0995
   59ccc     C8 1787   0.780  11.645   5.067  0.3823 -0.1969  0.0435
   59ccc    H14 1788   0.850  11.723   5.036 -0.5257  0.5871 -0.0666
   59ccc    H15 1789   0.833  11.550   5.047  1.0117  0.3986 -1.2333
   59ccc     C9 1790   0.669  11.666   4.963  0.8840 -0.7069  0.3981
   59ccc     O3 1791   0.661  11.758   4.883 -0.6749 -0.0755 -0.4391
   59ccc     O4 1792   0.577  11.565   4.966 -0.6470 -0.1142 -0.0390
   59ccc    H16 1793   0.514  11.591   4.897 -2.0505 -3.1397 -0.0369
   59ccc     O5 1794   0.931  11.781   5.787  0.7626  0.4922 -0.0570
   59ccc    H17 1795   0.915  11.724   5.291  1.0995  0.0299  1.3695
   60ccc     C1 1796   1.485  12.239   6.404  0.5394 -0.5890  0.0230
   60ccc     H1 1797   1.419  12.223   6.490 -2.6329  2.5710 -1.5619
   60ccc     H2 1798   1.579  12.199   6.443  0.2816 -0.0413  1.2340
   60ccc     C2 1799   1.496  12.388   6.389  0.6531  0.4550 -0.1798
   60ccc     H3 1800   1.574  12.418   6.318  0.2128 -2.9777 -2.3617
   60ccc     H4 1801   1.526  12.416   6.491 -0.9734 -0.4361  0.5891
   60ccc     C3 1802   1.350  12.448   6.361  0.6351  0.2272  0.6961
   60ccc     H5 1803   1.287  12.398   6.435  0.4701 -0.6811 -0.0436
   60ccc     H6 1804   1.314  12.423   6.261 -1.8690 -0.9965  1.7981
   60ccc     N1 1805   1.337  12.594   6.380  0.3711 -0.3965 -0.3636
   60ccc     C4 1806   1.209  12.646   6.312 -0.0856  0.1469  0.0365
   60ccc     H7 1807   1.163  12.737   6.350 -2.2595 -0.4819 -0.9036
   60ccc     H8 1808   1.133  12.569   6.323  0.5737 -0.7554 -1.3358
   60ccc     C5 1809   1.239  12.669   6.163  0.2703 -0.2561 -0.1220
   60ccc     H9 1810   1.290  12.765   6.148  0.4634 -0.2475  0.5409
   60ccc    H10 1811   1.299  12.597   6.105  0.6298 -0.2454  0.2338
   60ccc     C6 1812   1.108  12.662   6.082  0.1920  0.0409 -0.0742
   60ccc     O1 1813   1.025  12.574   6.109  0.5481 -0.3135 -0.3546
   60ccc     O2 1814   1.100  12.736   5.974  0.1813  0.2523  0.0016
   60ccc    H11 1815   1.016  12.707   5.933 -1.0010  0.5333  2.0809
   60ccc     C7 1816   1.335  12.617   6.537 -0.7751 -0.4160 -0.7204
   60ccc    H12 1817   1.243  12.569   6.570 -0.4691 -1.8591 -1.8556
   60ccc    H13 1818   1.418  12.572   6.592 -1.1694  0.2020  0.4172
   60ccc     C8 1819   1.319  12.768   6.572 -0.6058 -0.2435  0.1016
   60ccc    H14 1820   1.406  12.822   6.534 -0.0159 -2.1776 -1.4720
   60ccc    H15 1821   1.226  12.803   6.526 -1.3370  0.2747  1.8738
   60ccc     C9 1822   1.295  12.794   6.719  1.1330  0.5876  1.3222
   60ccc     O3 1823   1.269  12.701   6.792  0.5573 -0.9833 -0.5897
   60ccc     O4 1824   1.293  12.921   6.751 -0.0954  0.3826  0.0572
   60ccc    H16 1825   1.246  12.922   6.836  2.3501 -0.1347  1.5015
   60ccc     O5 1826   1.423  12.179   6.288 -0.0658  0.0128 -0.4158
   60ccc    H17 1827   1.423  12.635   6.342  0.5452  0.4878  0.9561
   61ccc     C1 1828   1.539  11.687   7.326 -0.4398  0.9631 -0.4142
   61ccc     H1 1829   1.601  11.776   7.343  0.2608  0.2841  0.7085
   61ccc     H2 1830   1.461  11.705   7.251 -0.8538 -2.0908 -0.8112
   61ccc     C2 1831   1.477  11.635   7.462  0.2440 -0.0634 -0.0403
   61ccc     H3 1832   1.411  11.550   7.441  0.2947  0.1060 -0.9281
   61ccc     H4 1833   1.409  11.714   7.497  1.7425  1.5806 -0.6464
   61ccc     C3 1834   1.585  11.594   7.569  0.5687 -0.2253 -0.2067
   61ccc     H5 1835   1.659  11.673   7.581  0.8819 -0.6699  1.0500
   61ccc     H6 1836   1.642  11.510   7.529 -1.3274 -1.8984  0.4379
   61ccc     N1 1837   1.524  11.548   7.704  0.3886 -1.0849 -0.8570
   61ccc     C4 1838   1.464  11.673   7.761  0.3491  0.2078  0.0581
   61ccc     H7 1839   1.394  11.707   7.684  0.8924 -0.4498 -0.7416
   61ccc     H8 1840   1.541  11.749   7.777 -0.3267  1.3879 -1.9464
   61ccc     C5 1841   1.396  11.662   7.898  0.1938  0.3953 -0.2060
   61ccc     H9 1842   1.303  11.607   7.882 -0.8101  1.0475  2.8718
   61ccc    H10 1843   1.459  11.601   7.964 -0.0084 -0.4838 -0.8068
   61ccc     C6 1844   1.374  11.797   7.959  0.3587  0.1273 -0.4442
   61ccc     O1 1845   1.402  11.903   7.894 -0.7877  0.3348  0.1792
   61ccc     O2 1846   1.272  11.803   8.043 -0.6373  0.1441 -0.0031
   61ccc    H11 1847   1.279  11.720   8.093  1.8951 -1.1540 -2.2262
   61ccc     C7 1848   1.414  11.442   7.683 -0.4992  0.5643  0.0867
   61ccc    H12 1849   1.352  11.434   7.773  0.7678  1.6484  1.1032
   61ccc    H13 1850   1.346  11.474   7.604  0.2590  0.8124 -0.4720
   61ccc     C8 1851   1.469  11.300   7.649 -0.1900  0.2450 -0.6361
   61ccc    H14 1852   1.490  11.302   7.541  1.7310  1.1168 -0.2810
   61ccc    H15 1853   1.562  11.276   7.701 -0.1920  3.1310  0.9298
   61ccc     C9 1854   1.367  11.194   7.689  0.4747 -0.0240 -0.4027
   61ccc     O3 1855   1.282  11.216   7.777  0.0177  0.2569  0.2435
   61ccc     O4 1856   1.369  11.074   7.625  0.3953 -0.6510  0.9305
   61ccc    H16 1857   1.290  11.027   7.657  0.8051 -2.3960 -0.3892
   61ccc     O5 1858   1.620  11.588   7.262 -0.1901  0.3262  0.2509
   61ccc    H17 1859   1.589  11.502   7.770 -0.3964  1.4451  1.9117
   62ccc     C1 1860   1.556  10.889   6.724  0.2014  0.2481  0.5265
   62ccc     H1 1861   1.603  10.866   6.821  1.0953  0.2017  0.0971
   62ccc     H2 1862   1.463  10.833   6.711  0.3613  0.0661  0.1727
   62ccc     C2 1863   1.666  10.866   6.616  0.6143  0.0949  1.1990
   62ccc     H3 1864   1.731  10.781   6.640 -0.0842 -0.6845  0.4095
   62ccc     H4 1865   1.730  10.955   6.620  1.2190 -0.0053 -2.3296
   62ccc     C3 1866   1.596  10.844   6.476 -0.2552 -0.2602  0.0152
   62ccc     H5 1867   1.525  10.927   6.472 -2.0230 -1.6068  1.2772
   62ccc     H6 1868   1.533  10.754   6.474  1.1925 -1.2942 -1.5701
   62ccc     N1 1869   1.685  10.840   6.348  0.2070  0.4860 -0.1321
   62ccc     C4 1870   1.763  10.712   6.346 -0.7058  1.0591 -0.6480
   62ccc     H7 1871   1.693  10.629   6.360  1.9832 -1.5385 -1.5955
   62ccc     H8 1872   1.839  10.716   6.423 -0.0395  1.2547 -1.3014
   62ccc     C5 1873   1.846  10.696   6.221 -0.0127 -0.9641 -0.2541
   62ccc     H9 1874   1.784  10.717   6.133 -2.6774 -0.6244  1.5810
   62ccc    H10 1875   1.931  10.765   6.213 -0.9684  0.2316 -0.3310
   62ccc     C6 1876   1.901  10.550   6.223  0.1084 -0.1452  0.2940
   62ccc     O1 1877   1.954  10.492   6.318 -0.1515 -0.3166  0.1105
   62ccc     O2 1878   1.864  10.479   6.116  0.1485 -0.1244 -0.4812
   62ccc    H11 1879   1.873  10.390   6.154 -0.6120  0.5874  1.4859
   62ccc     C7 1880   1.601  10.858   6.217  0.4486  0.1523  0.0810
   62ccc    H12 1881   1.593  10.765   6.160  3.4509  0.1476 -0.5051
   62ccc    H13 1882   1.500  10.887   6.245  0.8731  1.2018  0.5986
   62ccc     C8 1883   1.650  10.973   6.122  0.0796  0.1082 -0.1597
   62ccc    H14 1884   1.667  11.063   6.182  1.6823 -1.1229  1.3631
   62ccc    H15 1885   1.748  10.946   6.082  0.3925 -0.5801  1.0079
   62ccc     C9 1886   1.555  11.000   6.008 -0.3173  0.7419  0.6469
   62ccc     O3 1887   1.450  10.946   5.997  0.1166  0.4486  0.4662
   62ccc     O4 1888   1.584  11.102   5.924  0.1338  0.2342  0.5705
   62ccc    H16 1889   1.503  11.094   5.870  0.6826 -0.4139 -0.1816
   62ccc     O5 1890   1.516  11.032   6.717  0.1499 -0.0182  0.1490
   62ccc    H17 1891   1.757  10.914   6.349  1.7864 -0.9129  2.7492
   63ccc     C1 1892  -2.316  11.182   4.440  0.6381 -0.2804  0.3229
   63ccc     H1 1893  -2.321  11.274   4.381  1.1072  0.0690  0.8096
   63ccc     H2 1894  -2.383  11.113   4.387  1.3278 -0.5288 -0.2401
   63ccc     C2 1895  -2.366  11.211   4.581 -0.3815  0.1928 -0.3584
   63ccc     H3 1896  -2.360  11.119   4.639  0.0703  1.1929  1.2368
   63ccc     H4 1897  -2.473  11.231   4.587 -0.6194 -0.8887 -0.8636
   63ccc     C3 1898  -2.296  11.327   4.644 -0.3652 -0.2356  0.2336
   63ccc     H5 1899  -2.347  11.421   4.623 -0.6646 -0.0132  1.8054
   63ccc     H6 1900  -2.195  11.339   4.603 -0.1056 -1.0758  0.6110
   63ccc     N1 1901  -2.286  11.321   4.790  0.5226 -0.3254  0.2444
   63ccc     C4 1902  -2.178  11.422   4.834 -0.2383 -0.7267 -0.2576
   63ccc     H7 1903  -2.200  11.519   4.787  0.3240 -0.9519 -1.0030
   63ccc     H8 1904  -2.090  11.378   4.787 -0.9040 -0.8160 -1.4824
   63ccc     C5 1905  -2.133  11.437   4.982 -1.2342  0.2843  0.0167
   63ccc     H9 1906  -2.200  11.503   5.038  0.3507  1.0291  1.1075
   63ccc    H10 1907  -2.128  11.334   5.020  0.0758 -0.2801 -1.5728
   63ccc     C6 1908  -1.990  11.487   4.995 -0.0310 -0.0753  0.2124
   63ccc     O1 1909  -1.960  11.588   5.057 -0.3359  0.2716  0.4163
   63ccc     O2 1910  -1.907  11.400   4.943 -0.4756  0.0166  0.5381
   63ccc    H11 1911  -1.822  11.444   4.960 -0.4254  0.8639 -1.5406
   63ccc     C7 1912  -2.416  11.365   4.857 -0.6445  0.6116 -0.1900
   63ccc    H12 1913  -2.386  11.379   4.961  0.6903 -1.8631 -0.1583
   63ccc    H13 1914  -2.458  11.457   4.817 -0.9362  0.6197  0.1331
   63ccc     C8 1915  -2.538  11.268   4.879  0.0063 -0.2808  0.1585
   63ccc    H14 1916  -2.562  11.209   4.790  1.7043 -1.2154  0.2694
   63ccc    H15 1917  -2.522  11.195   4.959  0.5378 -0.6671 -0.2837
   63ccc     C9 1918  -2.670  11.342   4.896  0.3290 -0.3841  0.5324
   63ccc     O3 1919  -2.678  11.458   4.863  0.2962  0.4180  0.0542
   63ccc     O4 1920  -2.765  11.285   4.968 -0.4374 -0.0449  0.6375
   63ccc    H16 1921  -2.734  11.194   4.981 -1.2758 -0.8062 -2.0069
   63ccc     O5 1922  -2.178  11.136   4.459  0.8550 -0.2823 -0.6390
   63ccc    H17 1923  -2.256  11.228   4.822  0.2825 -0.3000  0.5473
   64ccc     C1 1924  -1.674  10.578   4.304 -0.1475 -0.4284  0.6416
   64ccc     H1 1925  -1.627  10.654   4.240 -0.5237  0.4057  1.3362
   64ccc     H2 1926  -1.586  10.523   4.340  0.0271 -0.1888  0.5804
   64ccc     C2 1927  -1.765  10.483   4.227 -0.0094 -0.1308 -0.4039
   64ccc     H3 1928  -1.797  10.392   4.278 -0.4661 -0.3799 -1.1187
   64ccc     H4 1929  -1.704  10.440   4.146  0.3351 -1.4445  0.5239
   64ccc     C3 1930  -1.899  10.567   4.187  0.5571  0.3455  0.1466
   64ccc     H5 1931  -1.881  10.630   4.100 -2.0740  0.7013 -0.2449
   64ccc     H6 1932  -1.930  10.641   4.261  0.5620  1.9493 -1.3874
   64ccc     N1 1933  -2.018  10.482   4.144 -0.0601 -0.7091 -0.0874
   64ccc     C4 1934  -2.137  10.476   4.241 -0.0492  0.1656  0.4030
   64ccc     H7 1935  -2.211  10.414   4.190 -1.6120  2.3797 -0.1935
   64ccc     H8 1936  -2.188  10.572   4.253  0.6578  0.3140  2.6823
   64ccc     C5 1937  -2.105  10.403   4.375  0.4018 -0.3678  0.4543
   64ccc     H9 1938  -2.198  10.373   4.423  0.4777 -0.7880  0.3390
   64ccc    H10 1939  -2.043  10.313   4.363 -0.9531 -1.1324 -1.2104
   64ccc     C6 1940  -2.037  10.501   4.471  0.2641 -0.4771  0.6131
   64ccc     O1 1941  -2.023  10.617   4.451 -0.2679 -0.3190  0.1003
   64ccc     O2 1942  -2.010  10.452   4.598 -0.2379 -0.7638 -0.0143
   64ccc    H11 1943  -2.043  10.360   4.599 -2.6433 -0.0366  2.8562
   64ccc     C7 1944  -2.061  10.555   4.016  0.6775 -0.4020 -0.4833
   64ccc    H12 1945  -2.152  10.505   3.981  1.9032 -0.4066 -4.0760
   64ccc    H13 1946  -2.089  10.658   4.041 -2.3640 -1.4010  0.7495
   64ccc     C8 1947  -1.967  10.550   3.897  0.6443 -0.0578 -0.6783
   64ccc    H14 1948  -1.894  10.631   3.907  1.0588 -0.3646 -1.1726
   64ccc    H15 1949  -1.919  10.453   3.883 -2.2662 -1.6987 -0.2606
   64ccc     C9 1950  -2.051  10.576   3.772  0.0711  0.0852 -0.0006
   64ccc     O3 1951  -2.170  10.596   3.779 -0.3315  0.1861 -0.1586
   64ccc     O4 1952  -1.978  10.570   3.656 -0.6702  0.1884 -0.2419
   64ccc    H16 1953  -1.893  10.525   3.672 -0.2684  1.1590  0.4410
   64ccc     O5 1954  -1.739  10.637   4.412  0.4680  0.3430  0.2102
   64ccc    H17 1955  -1.980  10.391   4.112  1.6469  0.5500 -1.9021
   65ccc     C1 1956  -1.286  11.867   5.332 -1.0322 -1.1802  1.0405
   65ccc     H1 1957  -1.189  11.918   5.345 -1.7819 -0.4743  4.9559
   65ccc     H2 1958  -1.336  11.912   5.245  0.9307 -0.8230  0.0334
   65ccc     C2 1959  -1.372  11.897   5.458 -0.5570 -0.2184  0.8794
   65ccc     H3 1960  -1.389  12.005   5.458  1.3249  0.1155 -0.1466
   65ccc     H4 1961  -1.313  11.867   5.545  1.7095 -2.8970 -1.3928
   65ccc     C3 1962  -1.505  11.816   5.449  0.2197  0.6870 -0.8002
   65ccc     H5 1963  -1.480  11.711   5.432 -1.1061  0.5144 -1.8473
   65ccc     H6 1964  -1.565  11.844   5.362 -1.1013 -1.0036 -0.4921
   65ccc     N1 1965  -1.591  11.810   5.580  0.2963 -0.2999  0.0714
   65ccc     C4 1966  -1.521  11.747   5.696  0.1722 -0.1357  0.1595
   65ccc     H7 1967  -1.593  11.747   5.778  0.1956  0.5239  0.1830
   65ccc     H8 1968  -1.441  11.815   5.722 -0.1139 -0.4592  2.0415
   65ccc     C5 1969  -1.480  11.601   5.677 -0.5070  0.4353 -0.3966
   65ccc     H9 1970  -1.572  11.553   5.643 -1.2809  0.3799  1.6103
   65ccc    H10 1971  -1.405  11.586   5.598  0.0229  1.4036 -0.1033
   65ccc     C6 1972  -1.436  11.521   5.803  0.4040 -0.2366 -0.0411
   65ccc     O1 1973  -1.367  11.568   5.892 -0.6845 -0.5001  0.5990
   65ccc     O2 1974  -1.457  11.390   5.811  0.2166  0.0351 -0.2621
   65ccc    H11 1975  -1.490  11.359   5.725  1.0626  1.1907 -1.0425
   65ccc     C7 1976  -1.635  11.949   5.623 -1.2493  0.9505 -0.1231
   65ccc    H12 1977  -1.693  11.933   5.714  0.4690  0.2155  0.8951
   65ccc    H13 1978  -1.544  12.001   5.654  0.7743 -1.8857 -0.9576
   65ccc     C8 1979  -1.702  12.027   5.508 -0.5013  0.1545  0.0747
   65ccc    H14 1980  -1.618  12.059   5.445 -0.7393  0.6784  0.0161
   65ccc    H15 1981  -1.772  11.963   5.454  0.7952  0.3516 -1.9294
   65ccc     C9 1982  -1.780  12.145   5.563 -0.3858 -0.4480  0.1087
   65ccc     O3 1983  -1.763  12.179   5.679 -0.4193 -0.1981 -0.6214
   65ccc     O4 1984  -1.861  12.207   5.476  0.0107  0.8914 -0.0827
   65ccc    H16 1985  -1.855  12.175   5.385 -0.6611 -1.9370  0.7710
   65ccc     O5 1986  -1.278  11.725   5.315 -0.2072  0.0456 -0.0535
   65ccc    H17 1987  -1.671  11.749   5.555  0.6642 -0.2628 -1.2850
   66ccc     C1 1988  -0.993  11.390   5.911 -0.0930  0.8841 -0.2620
   66ccc     H1 1989  -1.080  11.352   5.967  0.1283  2.0676  0.9581
   66ccc     H2 1990  -0.917  11.312   5.926 -0.5430  0.4436 -0.2690
   66ccc     C2 1991  -0.935  11.522   5.968  0.2927 -0.1284  0.3147
   66ccc     H3 1992  -0.844  11.541   5.910 -0.2120 -1.5392 -0.9937
   66ccc     H4 1993  -0.921  11.515   6.077 -1.0850 -1.5480  0.4323
   66ccc     C3 1994  -1.021  11.641   5.946  1.1159  0.5297 -0.2693
   66ccc     H5 1995  -1.115  11.633   6.001  0.2268 -1.2501 -1.9068
   66ccc     H6 1996  -1.045  11.639   5.840  0.1056 -1.6921 -0.0406
   66ccc     N1 1997  -0.954  11.777   5.975 -0.9983 -0.2432  0.0679
   66ccc     C4 1998  -1.002  11.876   5.875  0.4137  0.2011  0.1327
   66ccc     H7 1999  -0.971  11.839   5.777 -1.2038  1.8903 -1.0888
   66ccc     H8 2000  -0.950  11.971   5.886  0.3494  0.5872 -2.3744
   66ccc     C5 2001  -1.151  11.905   5.906  0.8168  0.2141  0.5761
   66ccc     H9 2002  -1.216  11.818   5.890  0.6047  0.5026 -0.1697
   66ccc    H10 2003  -1.169  11.922   6.013  0.7115 -2.2830  1.0045
   66ccc     C6 2004  -1.198  12.024   5.826  0.9004 -0.2325  0.3298
   66ccc     O1 2005  -1.162  12.141   5.836 -0.5045  1.1167  0.2262
   66ccc     O2 2006  -1.314  12.002   5.758 -0.6294  0.2086  0.2313
   66ccc    H11 2007  -1.351  12.091   5.749 -0.3646  0.4135  1.0732
   66ccc     C7 2008  -0.956  11.815   6.125 -0.6188 -0.6755  0.8126
   66ccc    H12 2009  -1.055  11.818   6.170 -1.0628  1.9396 -0.1821
   66ccc    H13 2010  -0.898  11.744   6.184  1.0562  0.7198  0.9181
   66ccc     C8 2011  -0.899  11.950   6.159 -0.0021  0.2888  0.7581
   66ccc    H14 2012  -0.804  11.958   6.105 -0.2173  2.9542  0.6533
   66ccc    H15 2013  -0.970  12.032   6.142  1.0794  1.9134  3.3693
   66ccc     C9 2014  -0.855  11.967   6.304  0.7233 -0.1367  0.6245
   66ccc     O3 2015  -0.911  11.899   6.393  0.1862 -0.3934 -0.3768
   66ccc     O4 2016  -0.806  12.083   6.338  0.0339 -0.0719  0.1582
   66ccc    H16 2017  -0.791  12.116   6.248 -0.6007  0.0474  0.0889
   66ccc     O5 2018  -1.031  11.409   5.773  0.0724  0.3170  0.1320
   66ccc    H17 2019  -0.855  11.758   5.956 -0.8323  1.2588 -0.6645
   67ccc     C1 2020  -0.089  10.969   4.487 -0.2035 -0.5120  0.6412
   67ccc     H1 2021  -0.004  11.034   4.463 -1.7856  0.9286 -1.4435
   67ccc     H2 2022  -0.164  11.024   4.545  0.5109  1.6952 -0.4138
   67ccc     C2 2023  -0.046  10.841   4.555 -0.3307 -0.1971 -0.6991
   67ccc     H3 2024   0.001  10.874   4.648  0.5764 -0.5426 -1.0220
   67ccc     H4 2025   0.030  10.790   4.494 -0.7452  0.5364 -1.8588
   67ccc     C3 2026  -0.164  10.754   4.585  0.3247  0.5021 -0.4460
   67ccc     H5 2027  -0.216  10.749   4.489 -1.5480  0.9009  0.5025
   67ccc     H6 2028  -0.231  10.814   4.647  1.8869  2.5839 -0.6479
   67ccc     N1 2029  -0.131  10.612   4.642  0.1154  0.3396 -0.3002
   67ccc     C4 2030  -0.064  10.633   4.777  0.0827 -0.1475  0.4401
   67ccc     H7 2031  -0.112  10.573   4.854 -0.0810 -0.5822  0.0008
   67ccc     H8 2032  -0.084  10.738   4.802 -0.4366 -0.3595  0.9220
   67ccc     C5 2033   0.091  10.615   4.773 -0.6637  0.5957  0.5949
   67ccc     H9 2034   0.127  10.512   4.785 -1.2460  0.0089 -2.0439
   67ccc    H10 2035   0.126  10.649   4.675 -0.0178  2.9388  1.5643
   67ccc     C6 2036   0.172  10.694   4.868 -0.2981  0.2993 -0.4432
   67ccc     O1 2037   0.220  10.800   4.829 -0.3060  0.4185 -0.1072
   67ccc     O2 2038   0.237  10.622   4.951 -0.1187 -0.0448 -0.6946
   67ccc    H11 2039   0.315  10.677   4.970 -1.0947  0.6912  1.4817
   67ccc     C7 2040  -0.264  10.540   4.649 -0.0405 -0.3877  0.6071
   67ccc    H12 2041  -0.322  10.585   4.730 -0.8110 -0.2150 -0.0294
   67ccc    H13 2042  -0.317  10.558   4.555 -2.7708 -3.2777  1.4544
   67ccc     C8 2043  -0.270  10.390   4.675 -0.7249 -0.8381  0.1816
   67ccc    H14 2044  -0.220  10.336   4.593 -1.0734 -0.5849 -0.1992
   67ccc    H15 2045  -0.216  10.367   4.768 -0.6904 -1.6089 -0.0170
   67ccc     C9 2046  -0.409  10.339   4.690  0.8015  0.0022  0.0471
   67ccc     O3 2047  -0.511  10.404   4.668  0.4411 -0.1184 -0.2568
   67ccc     O4 2048  -0.417  10.207   4.704  0.3432  0.3202  0.0570
   67ccc    H16 2049  -0.333  10.157   4.713  0.7115  0.4724 -2.0680
   67ccc     O5 2050  -0.157  10.927   4.365 -0.0828  0.0277  0.1782
   67ccc    H17 2051  -0.069  10.562   4.576 -0.8021  0.0853 -0.9851
   68ccc     C1 2052  -0.528  11.095   3.578 -0.4371 -0.2272 -0.5712
   68ccc     H1 2053  -0.574  11.021   3.510 -0.2490 -1.3353  0.4641
   68ccc     H2 2054  -0.589  11.095   3.670  0.5466  2.6971  0.1996
   68ccc     C2 2055  -0.536  11.235   3.510 -0.8761 -0.2388  0.3120
   68ccc     H3 2056  -0.517  11.312   3.586 -1.8263  1.5658 -1.1935
   68ccc     H4 2057  -0.632  11.240   3.458 -0.4059 -1.7697 -0.7567
   68ccc     C3 2058  -0.430  11.259   3.401  0.1979 -0.9145 -0.3724
   68ccc     H5 2059  -0.461  11.212   3.307 -0.7327 -1.9090  0.3993
   68ccc     H6 2060  -0.332  11.228   3.435 -0.8271 -0.2926  3.5783
   68ccc     N1 2061  -0.400  11.400   3.367 -0.2540  0.1229  0.3262
   68ccc     C4 2062  -0.284  11.404   3.266 -0.1947  0.2270  0.0267
   68ccc     H7 2063  -0.193  11.363   3.310 -1.2455 -1.0878  1.0520
   68ccc     H8 2064  -0.251  11.508   3.257 -1.6546  0.6506 -0.7710
   68ccc     C5 2065  -0.307  11.338   3.127 -1.0723 -0.7828 -0.5318
   68ccc     H9 2066  -0.356  11.240   3.133  0.5411 -1.8473 -3.0748
   68ccc    H10 2067  -0.353  11.409   3.058 -1.0874 -0.5092 -0.2452
   68ccc     C6 2068  -0.175  11.288   3.059  0.3905 -0.4734  0.2503
   68ccc     O1 2069  -0.070  11.332   3.100  0.1855 -0.5277  0.8811
   68ccc     O2 2070  -0.181  11.198   2.962  0.3593  0.0471 -0.2857
   68ccc    H11 2071  -0.276  11.182   2.948  0.3257 -0.3943  0.3738
   68ccc     C7 2072  -0.524  11.469   3.310  0.1853  0.4560  0.5183
   68ccc    H12 2073  -0.525  11.428   3.209  3.6151  2.1675 -0.3446
   68ccc    H13 2074  -0.619  11.439   3.356  1.5448 -2.3008  1.7771
   68ccc     C8 2075  -0.514  11.618   3.293 -0.3172  0.1441 -0.1689
   68ccc    H14 2076  -0.550  11.661   3.387 -3.4031 -0.3009 -1.0584
   68ccc    H15 2077  -0.410  11.651   3.280 -0.0705  0.0166  1.3131
   68ccc     C9 2078  -0.601  11.664   3.182  0.1330 -0.3188  0.2025
   68ccc     O3 2079  -0.705  11.722   3.218 -0.2947 -0.0820 -0.8252
   68ccc     O4 2080  -0.599  11.596   3.070  0.2390  0.4598 -0.1125
   68ccc    H16 2081  -0.668  11.637   3.015 -0.5989  0.8087  1.1572
   68ccc     O5 2082  -0.392  11.060   3.613  0.2027 -0.0050  0.0427
   68ccc    H17 2083  -0.370  11.453   3.450 -1.9828  1.0529  0.4042
   69ccc     C1 2084   0.158   9.760   2.987  0.0101  0.3134  0.1578
   69ccc     H1 2085   0.179   9.664   3.037 -1.1096 -0.4820 -0.8564
   69ccc     H2 2086   0.092   9.749   2.900 -2.1412  1.3939  1.5573
   69ccc     C2 2087   0.296   9.811   2.939  0.6375 -0.6065 -0.2458
   69ccc     H3 2088   0.379   9.768   2.996  1.1957 -0.2456 -0.7642
   69ccc     H4 2089   0.287   9.920   2.951 -0.4781 -0.6972 -0.1817
   69ccc     C3 2090   0.325   9.784   2.789 -0.3242  0.3687  0.4618
   69ccc     H5 2091   0.278   9.864   2.732 -1.4681 -1.6149 -1.5687
   69ccc     H6 2092   0.273   9.691   2.765  1.3289 -1.1056  2.2284
   69ccc     N1 2093   0.472   9.778   2.751  0.0092  0.0806 -0.8834
   69ccc     C4 2094   0.476   9.747   2.600 -0.5120  0.1206  0.1851
   69ccc     H7 2095   0.563   9.797   2.557  0.1820  0.1397  1.5433
   69ccc     H8 2096   0.396   9.802   2.551 -0.7996 -1.0140 -0.6721
   69ccc     C5 2097   0.476   9.596   2.558  0.2548 -0.9316 -0.2100
   69ccc     H9 2098   0.395   9.533   2.596 -0.7394 -0.5918 -1.6751
   69ccc    H10 2099   0.463   9.587   2.450  1.1423  0.4249 -0.4587
   69ccc     C6 2100   0.598   9.514   2.591  0.1552  0.2215 -0.4251
   69ccc     O1 2101   0.689   9.574   2.642 -0.4327  0.1035 -0.3594
   69ccc     O2 2102   0.601   9.387   2.554 -0.3954  0.0221  0.5975
   69ccc    H11 2103   0.689   9.364   2.588 -0.5192 -1.3931  0.0275
   69ccc     C7 2104   0.546   9.911   2.786 -0.2016  0.5821 -0.0587
   69ccc    H12 2105   0.522   9.988   2.713  1.7427 -0.5034 -1.9670
   69ccc    H13 2106   0.512   9.954   2.880 -0.3508 -1.4874  0.8734
   69ccc     C8 2107   0.697   9.884   2.797 -0.6449 -0.4129 -0.1044
   69ccc    H14 2108   0.718   9.812   2.877 -1.2909  0.8690  1.2554
   69ccc    H15 2109   0.722   9.840   2.700 -2.3733 -0.1429 -0.7007
   69ccc     C9 2110   0.781  10.006   2.832  0.1867 -0.3699  0.4511
   69ccc     O3 2111   0.741  10.108   2.892 -0.3339  0.8012 -0.3829
   69ccc     O4 2112   0.913   9.986   2.817 -0.3342 -0.6742 -0.2568
   69ccc    H16 2113   0.926   9.889   2.813  1.0486 -0.4935 -0.7071
   69ccc     O5 2114   0.113   9.846   3.082 -0.4384 -0.3445  0.0666
   69ccc    H17 2115   0.516   9.705   2.809 -3.9986 -1.2308  0.8717
   70ccc     C1 2116   0.365  10.151   3.766  0.2299 -0.6808 -0.4884
   70ccc     H1 2117   0.316  10.245   3.795 -0.5045 -0.3057 -2.7644
   70ccc     H2 2118   0.374  10.099   3.863  0.7377  1.9662  0.9877
   70ccc     C2 2119   0.503  10.180   3.711  0.1449 -0.3767 -0.1993
   70ccc     H3 2120   0.563  10.089   3.723 -1.5336 -1.6449 -1.0110
   70ccc     H4 2121   0.548  10.265   3.763 -2.0281  1.4270 -1.0960
   70ccc     C3 2122   0.498  10.216   3.563  0.2632  0.0267  0.7483
   70ccc     H5 2123   0.452  10.314   3.572 -1.0566 -0.6643  1.9029
   70ccc     H6 2124   0.438  10.151   3.498  0.1338  1.4643 -0.6406
   70ccc     N1 2125   0.627  10.252   3.500 -0.0425  0.3064 -0.0433
   70ccc     C4 2126   0.612  10.251   3.344  0.0107 -0.0404 -0.3429
   70ccc     H7 2127   0.693  10.305   3.296  0.0560 -1.1942 -1.6318
   70ccc     H8 2128   0.516  10.300   3.331 -0.5989 -0.9557  0.5460
   70ccc     C5 2129   0.606  10.109   3.288 -0.0854 -0.6571 -0.3906
   70ccc     H9 2130   0.700  10.054   3.301  0.2583  0.1170  0.5248
   70ccc    H10 2131   0.524  10.057   3.338  0.9220  0.1821  2.3017
   70ccc     C6 2132   0.563  10.117   3.146 -0.4733 -0.2422  0.1465
   70ccc     O1 2133   0.510  10.211   3.097 -0.1305 -0.1697  0.1239
   70ccc     O2 2134   0.535  10.002   3.090  0.1623  0.2967  0.6071
   70ccc    H11 2135   0.582   9.933   3.141 -0.9778 -1.9116 -1.1497
   70ccc     C7 2136   0.691  10.379   3.563  0.3805  0.7487  0.3046
   70ccc    H12 2137   0.611  10.452   3.551 -1.5858 -1.1774  0.9225
   70ccc    H13 2138   0.692  10.355   3.670 -1.6332  1.5120  0.5308
   70ccc     C8 2139   0.833  10.425   3.514 -0.2841 -0.1113 -0.1979
   70ccc    H14 2140   0.913  10.350   3.522  2.2176  2.3450 -0.6829
   70ccc    H15 2141   0.822  10.459   3.410  1.9515  1.0369 -0.1168
   70ccc     C9 2142   0.878  10.534   3.610  0.0897 -0.5378 -0.1298
   70ccc     O3 2143   0.915  10.505   3.718  0.3480  0.2664  0.2463
   70ccc     O4 2144   0.867  10.661   3.563 -0.8638 -0.2475  0.0460
   70ccc    H16 2145   0.858  10.718   3.641  1.2537  2.5561 -1.5774
   70ccc     O5 2146   0.285  10.075   3.679 -0.1795  0.0006  0.0441
   70ccc    H17 2147   0.695  10.178   3.520 -0.9589 -0.2788  0.9814
   71ccc     C1 2148  -1.039  10.618   6.583 -0.0447  0.2598 -0.2114
   71ccc     H1 2149  -1.068  10.553   6.499  1.7096 -1.1768  0.2318
   71ccc     H2 2150  -0.940  10.661   6.563  0.1079  0.0500  0.0840
   71ccc     C2 2151  -1.034  10.541   6.719 -0.5056 -0.0497  0.2703
   71ccc     H3 2152  -0.969  10.453   6.714 -2.0684 -1.2122 -1.2090
   71ccc     H4 2153  -1.135  10.502   6.740 -0.1738 -1.2956 -0.3740
   71ccc     C3 2154  -0.982  10.634   6.837  0.2764  0.2437 -0.5537
   71ccc     H5 2155  -1.037  10.728   6.837  2.0220  1.3736 -2.8618
   71ccc     H6 2156  -0.876  10.661   6.833  0.6290 -1.0473 -0.2575
   71ccc     N1 2157  -1.004  10.567   6.970 -0.4370  0.2928  0.0831
   71ccc     C4 2158  -0.918  10.435   6.983  0.0156 -0.3551 -0.1875
   71ccc     H7 2159  -0.842  10.447   7.061  1.4023  1.0434 -1.6806
   71ccc     H8 2160  -0.863  10.415   6.891 -1.2080 -2.1350 -0.5866
   71ccc     C5 2161  -1.007  10.313   7.019 -0.2338 -0.0371  0.6238
   71ccc     H9 2162  -1.087  10.343   7.088  0.0264 -0.2568  1.0216
   71ccc    H10 2163  -1.064  10.281   6.930 -0.2394  0.0185  0.6072
   71ccc     C6 2164  -0.929  10.201   7.082 -0.1228 -0.0880  0.1397
   71ccc     O1 2165  -0.819  10.212   7.130 -0.3134 -0.1537 -0.3620
   71ccc     O2 2166  -0.989  10.080   7.077  0.6326 -0.6337  0.0558
   71ccc    H11 2167  -1.084  10.095   7.060  1.2206  3.0913 -0.8438
   71ccc     C7 2168  -0.958  10.664   7.084  0.6141  0.7279  0.2844
   71ccc    H12 2169  -0.850  10.668   7.068  0.3583  0.8467 -1.5930
   71ccc    H13 2170  -1.000  10.761   7.059  3.6487  1.7469 -1.3624
   71ccc     C8 2171  -0.993  10.618   7.226  0.0161 -0.0868  0.0150
   71ccc    H14 2172  -1.099  10.591   7.230  0.2336 -0.8329  1.2443
   71ccc    H15 2173  -0.929  10.535   7.259 -1.2281 -0.4616  1.5813
   71ccc     C9 2174  -0.975  10.743   7.323 -0.2101  0.7462  0.1497
   71ccc     O3 2175  -1.064  10.825   7.351 -0.5101  0.1733 -0.0365
   71ccc     O4 2176  -0.852  10.752   7.373  0.0413 -0.4932 -0.0961
   71ccc    H16 2177  -0.869  10.834   7.422 -0.9184 -0.2904 -0.7357
   71ccc     O5 2178  -1.133  10.717   6.601 -0.1007 -0.1834  0.3634
   71ccc    H17 2179  -1.104  10.546   6.984 -0.0839 -0.0564  2.3642
   72ccc     C1 2180  -1.766  10.952   6.831  0.4328 -0.4572  0.3025
   72ccc     H1 2181  -1.846  11.007   6.780 -0.4896 -0.6693  1.5043
   72ccc     H2 2182  -1.811  10.885   6.904 -2.6325  1.9199  0.8098
   72ccc     C2 2183  -1.672  11.053   6.896 -0.0703  0.1540 -0.4250
   72ccc     H3 2184  -1.578  10.999   6.910  0.8263  1.2158 -2.0329
   72ccc     H4 2185  -1.708  11.090   6.993  1.9772  2.3220 -0.4346
   72ccc     C3 2186  -1.671  11.171   6.799  0.0020  0.2091  0.1781
   72ccc     H5 2187  -1.765  11.226   6.810 -0.9863 -1.6855  1.8205
   72ccc     H6 2188  -1.678  11.123   6.701 -3.4924  0.5680  0.1280
   72ccc     N1 2189  -1.549  11.266   6.808  0.2813 -0.4145  0.2707
   72ccc     C4 2190  -1.530  11.340   6.680 -0.0921 -0.5100  0.0095
   72ccc     H7 2191  -1.450  11.413   6.695  0.3874 -1.0458  0.1159
   72ccc     H8 2192  -1.621  11.395   6.658  0.5392 -0.0739 -1.6493
   72ccc     C5 2193  -1.479  11.246   6.558 -0.0631 -0.1354  0.1028
   72ccc     H9 2194  -1.397  11.186   6.601  1.4657  1.2813 -0.7273
   72ccc    H10 2195  -1.564  11.189   6.521  0.4548  1.4103 -3.8946
   72ccc     C6 2196  -1.418  11.336   6.443  0.3307  0.6673 -0.3676
   72ccc     O1 2197  -1.398  11.452   6.452 -0.0777 -0.1108  0.5051
   72ccc     O2 2198  -1.357  11.257   6.349 -0.0257 -0.1466 -0.2366
   72ccc    H11 2199  -1.328  11.325   6.285 -1.5372 -1.8671 -2.9720
   72ccc     C7 2200  -1.542  11.353   6.931 -0.3123  0.5036  0.5717
   72ccc    H12 2201  -1.619  11.429   6.921  1.0903  1.9208  0.0876
   72ccc    H13 2202  -1.569  11.292   7.017  1.3763  0.9504  1.4792
   72ccc     C8 2203  -1.400  11.412   6.949  0.4795 -0.1024  0.3638
   72ccc    H14 2204  -1.322  11.338   6.971  0.7713 -0.1604 -0.8000
   72ccc    H15 2205  -1.379  11.465   6.855 -2.1345  0.0089 -0.2387
   72ccc     C9 2206  -1.392  11.503   7.067 -0.2822 -0.5086 -0.1031
   72ccc     O3 2207  -1.480  11.513   7.150  0.0648  0.3271  0.0585
   72ccc     O4 2208  -1.294  11.588   7.069 -0.0529 -0.5662 -0.3351
   72ccc    H16 2209  -1.239  11.585   6.989  1.6998  2.5667  0.5928
   72ccc     O5 2210  -1.686  10.891   6.730 -0.7437 -0.0316  0.2803
   72ccc    H17 2211  -1.474  11.198   6.827  0.1055 -0.4561  0.8306
   73ccc     C1 2212  -2.494   9.422   6.281 -0.4045 -0.2063 -0.4425
   73ccc     H1 2213  -2.404   9.380   6.327  1.0722  3.0714 -0.0298
   73ccc     H2 2214  -2.577   9.352   6.295 -0.7448  0.2338 -0.2306
   73ccc     C2 2215  -2.485   9.467   6.136 -0.3339  0.7051  0.7273
   73ccc     H3 2216  -2.412   9.398   6.092  0.0014  1.2966  0.3535
   73ccc     H4 2217  -2.440   9.566   6.136  0.9156  0.1550  1.1890
   73ccc     C3 2218  -2.618   9.460   6.057 -0.0455  0.0480  0.0106
   73ccc     H5 2219  -2.691   9.413   6.124  0.7181  0.9889  1.5746
   73ccc     H6 2220  -2.615   9.398   5.968  0.6840 -0.9865  0.7295
   73ccc     N1 2221  -2.683   9.586   6.013 -0.6882 -0.2482  0.1874
   73ccc     C4 2222  -2.703   9.673   6.143 -0.6933  0.2758 -0.0203
   73ccc     H7 2223  -2.612   9.686   6.201 -1.1345 -0.5962  0.8900
   73ccc     H8 2224  -2.764   9.613   6.211  0.2426  2.6783  3.1592
   73ccc     C5 2225  -2.772   9.811   6.116  0.8859  0.7140  0.4367
   73ccc     H9 2226  -2.711   9.861   6.039 -0.7307  1.7731 -0.2188
   73ccc    H10 2227  -2.876   9.795   6.087  0.9625 -1.9859  1.3766
   73ccc     C6 2228  -2.758   9.893   6.247 -0.5403  0.2978  0.1551
   73ccc     O1 2229  -2.662   9.904   6.321  0.1138  0.3693  0.2963
   73ccc     O2 2230  -2.864   9.969   6.274 -0.1411 -0.1286 -0.6986
   73ccc    H11 2231  -2.848  10.004   6.363 -1.2464 -1.6250  0.1407
   73ccc     C7 2232  -2.590   9.648   5.912  0.1915 -0.5723  0.2475
   73ccc    H12 2233  -2.637   9.741   5.879 -0.4971 -0.7191  0.7941
   73ccc    H13 2234  -2.497   9.679   5.961 -0.2486 -0.3033  0.9237
   73ccc     C8 2235  -2.561   9.563   5.785  0.1754 -0.0529  0.0631
   73ccc    H14 2236  -2.481   9.491   5.808  0.1287 -0.0893  0.1118
   73ccc    H15 2237  -2.645   9.499   5.756 -1.3092  1.8716 -0.0108
   73ccc     C9 2238  -2.520   9.645   5.661  0.4089  0.0841 -0.6888
   73ccc     O3 2239  -2.532   9.764   5.649  0.4451 -0.5300  0.1969
   73ccc     O4 2240  -2.480   9.574   5.560  0.3082  0.2178 -0.5165
   73ccc    H16 2241  -2.451   9.649   5.505 -0.2770 -1.2527 -2.9371
   73ccc     O5 2242  -2.516   9.544   6.352  0.2412  0.1745  0.1387
   73ccc    H17 2243  -2.769   9.562   5.962 -0.5020  0.3832 -0.4479
   74ccc     C1 2244  -2.172   9.788   7.109  0.8701 -0.5973  0.0924
   74ccc     H1 2245  -2.094   9.747   7.175  1.6888 -0.0103 -0.4980
   74ccc     H2 2246  -2.143   9.893   7.095  0.1409 -0.4769 -0.5457
   74ccc     C2 2247  -2.312   9.771   7.178  0.7881 -0.3196  0.6020
   74ccc     H3 2248  -2.390   9.798   7.106  1.9328  0.8518 -0.2485
   74ccc     H4 2249  -2.332   9.848   7.254  0.3340 -1.6596  1.8990
   74ccc     C3 2250  -2.335   9.632   7.234  0.3018  0.4213 -0.3146
   74ccc     H5 2251  -2.247   9.617   7.296 -0.1769  2.7935  1.0547
   74ccc     H6 2252  -2.323   9.554   7.159  1.3788 -0.1745  0.4533
   74ccc     N1 2253  -2.463   9.628   7.311  0.4171  0.4789  0.3823
   74ccc     C4 2254  -2.500   9.484   7.360 -0.4512 -0.5849  0.1499
   74ccc     H7 2255  -2.603   9.483   7.394  0.3676 -0.7506  2.8369
   74ccc     H8 2256  -2.435   9.466   7.446 -1.3213 -3.8480  0.2617
   74ccc     C5 2257  -2.481   9.364   7.260  0.0665 -0.5457  0.1333
   74ccc     H9 2258  -2.518   9.391   7.160  1.0236 -0.2106 -0.1433
   74ccc    H10 2259  -2.376   9.351   7.233  0.5272  1.6586  0.6820
   74ccc     C6 2260  -2.535   9.223   7.306  0.4779  0.1320  0.3068
   74ccc     O1 2261  -2.600   9.210   7.405  0.2249  0.3206  0.1814
   74ccc     O2 2262  -2.522   9.125   7.215  0.5509 -0.1506 -0.1311
   74ccc    H11 2263  -2.456   9.150   7.147  0.4038 -0.7080 -0.4782
   74ccc     C7 2264  -2.473   9.726   7.433 -0.3179 -0.3434  0.2017
   74ccc    H12 2265  -2.470   9.832   7.408  0.3223  0.0969  2.0626
   74ccc    H13 2266  -2.563   9.701   7.490  0.9262 -1.8328  1.5898
   74ccc     C8 2267  -2.356   9.711   7.531  0.5398  0.7501 -0.7385
   74ccc    H14 2268  -2.329   9.606   7.551 -0.3058  1.0463  2.4862
   74ccc    H15 2269  -2.266   9.765   7.500  0.9844  0.9977  0.9204
   74ccc     C9 2270  -2.404   9.780   7.659 -0.0052 -0.3160 -0.3354
   74ccc     O3 2271  -2.481   9.873   7.661  0.0252 -0.3340 -0.0499
   74ccc     O4 2272  -2.319   9.764   7.766  0.2176  0.3702  0.4632
   74ccc    H16 2273  -2.241   9.732   7.718 -0.0142  0.4424  0.0378
   74ccc     O5 2274  -2.183   9.719   6.988  0.0644  0.3565  0.6496
   74ccc    H17 2275  -2.538   9.653   7.245 -0.1376 -1.4842  0.1936
   75ccc     C1 2276  -2.586   8.781   4.600 -0.5331 -0.0349  0.3566
   75ccc     H1 2277  -2.589   8.743   4.703 -1.2678  0.7600  0.6405
   75ccc     H2 2278  -2.666   8.851   4.572  0.7964  1.1108 -0.6996
   75ccc     C2 2279  -2.611   8.657   4.514  0.2618  0.0931  0.3722
   75ccc     H3 2280  -2.560   8.568   4.552 -0.5903 -1.3525 -1.6488
   75ccc     H4 2281  -2.562   8.665   4.416 -1.9839 -1.4786 -0.9879
   75ccc     C3 2282  -2.762   8.626   4.495 -0.0373 -0.1192  0.3574
   75ccc     H5 2283  -2.807   8.701   4.429 -0.9569 -0.6649  0.3455
   75ccc     H6 2284  -2.805   8.649   4.592  0.1775  2.1476 -0.0259
   75ccc     N1 2285  -2.791   8.483   4.442 -0.5929 -0.4319 -0.0194
   75ccc     C4 2286  -2.939   8.462   4.444 -0.1808 -0.1470 -0.3708
   75ccc     H7 2287  -2.970   8.378   4.382  1.7042 -0.1456 -1.3898
   75ccc     H8 2288  -2.980   8.555   4.406  1.1358  0.7788  0.4202
   75ccc     C5 2289  -3.008   8.451   4.582 -0.3028  0.4281 -0.0551
   75ccc     H9 2290  -2.945   8.400   4.656 -0.8420  1.8380  1.4517
   75ccc    H10 2291  -3.030   8.547   4.631  0.9005  0.5208  0.3378
   75ccc     C6 2292  -3.144   8.387   4.579  0.2444  0.2425  0.4585
   75ccc     O1 2293  -3.185   8.335   4.476 -0.2077  0.3443 -0.2524
   75ccc     O2 2294  -3.188   8.347   4.700 -0.2783 -0.4582 -0.4194
   75ccc    H11 2295  -3.140   8.398   4.767 -0.8611 -0.3604 -0.0617
   75ccc     C7 2296  -2.744   8.462   4.297  0.6266 -0.4649 -0.2224
   75ccc    H12 2297  -2.643   8.502   4.290  0.5998 -0.2463  0.6061
   75ccc    H13 2298  -2.725   8.356   4.278  3.5103 -0.4285  1.8396
   75ccc     C8 2299  -2.838   8.512   4.181 -0.2541  0.5543 -0.3806
   75ccc    H14 2300  -2.936   8.462   4.187  0.1974 -0.5516 -1.6468
   75ccc    H15 2301  -2.856   8.620   4.188 -1.7183  0.3420 -0.6255
   75ccc     C9 2302  -2.791   8.467   4.044 -0.4005  0.2412 -0.1130
   75ccc     O3 2303  -2.679   8.440   4.011  0.3227 -0.1780  0.0022
   75ccc     O4 2304  -2.887   8.432   3.963 -0.2900  0.5888 -0.3815
   75ccc    H16 2305  -2.846   8.361   3.910  0.5412  0.0827  0.8860
   75ccc     O5 2306  -2.452   8.830   4.572 -0.1322 -0.3103  0.0537
   75ccc    H17 2307  -2.744   8.423   4.511 -1.4686 -1.6778 -0.4889
   76ccc     C1 2308  -1.993   8.782   4.333  0.0664  0.6315 -0.2747
   76ccc     H1 2309  -2.085   8.830   4.299 -0.2326  0.3159  0.0774
   76ccc     H2 2310  -1.913   8.790   4.258 -1.2696  0.4888 -1.7591
   76ccc     C2 2311  -2.022   8.629   4.357 -0.3759  0.3921 -0.2502
   76ccc     H3 2312  -1.995   8.575   4.265  0.6168 -0.4561  0.5116
   76ccc     H4 2313  -2.132   8.623   4.360 -0.4650 -0.0511 -2.5822
   76ccc     C3 2314  -1.952   8.567   4.486  0.3087 -0.2394  0.9683
   76ccc     H5 2315  -1.960   8.640   4.567 -1.9429  2.0741 -1.1611
   76ccc     H6 2316  -1.845   8.563   4.465  0.1768 -0.6212  0.3476
   76ccc     N1 2317  -2.008   8.425   4.532 -0.4210 -0.5769  0.2694
   76ccc     C4 2318  -1.931   8.324   4.448  0.9333  0.0287 -0.0257
   76ccc     H7 2319  -1.846   8.297   4.510 -0.3835  0.6475  2.1795
   76ccc     H8 2320  -1.900   8.366   4.352  0.6504  1.8698  0.6529
   76ccc     C5 2321  -2.020   8.205   4.437 -0.0644 -0.0276  0.7273
   76ccc     H9 2322  -2.050   8.169   4.536  1.9839 -1.0993  0.9945
   76ccc    H10 2323  -2.108   8.224   4.374  1.0790  2.2327 -0.2818
   76ccc     C6 2324  -1.946   8.091   4.370  0.3093 -0.3025 -0.1778
   76ccc     O1 2325  -1.842   8.048   4.413  0.3106 -0.1050  0.5673
   76ccc     O2 2326  -1.967   8.085   4.242  0.1712  0.5256  0.1987
   76ccc    H11 2327  -1.907   8.018   4.204 -1.0282 -0.2712 -0.3431
   76ccc     C7 2328  -1.983   8.391   4.683 -0.2832 -0.5430 -0.3328
   76ccc    H12 2329  -2.014   8.289   4.706  0.9496 -0.6195  1.1712
   76ccc    H13 2330  -1.883   8.405   4.723 -0.5960  1.0917 -0.0485
   76ccc     C8 2331  -2.081   8.462   4.774 -0.1556 -0.5037 -0.4880
   76ccc    H14 2332  -2.181   8.475   4.732 -0.1699  0.1967 -0.2469
   76ccc    H15 2333  -2.084   8.407   4.869  1.3004  1.8972  1.0483
   76ccc     C9 2334  -2.033   8.607   4.800 -0.5337  0.0165  0.3917
   76ccc     O3 2335  -1.922   8.644   4.779 -0.0245  0.5903 -0.3377
   76ccc     O4 2336  -2.132   8.692   4.840 -0.8264  0.6072 -0.5308
   76ccc    H16 2337  -2.215   8.642   4.846  0.4238 -1.4874  0.3145
   76ccc     O5 2338  -1.964   8.841   4.462 -0.1968 -0.7975 -0.1185
   76ccc    H17 2339  -2.109   8.416   4.517 -0.8478  1.5189  1.5005
   77ccc     C1 2340  -2.746   9.005   5.193  0.0027 -0.3212 -0.4078
   77ccc     H1 2341  -2.823   8.968   5.261  0.4409 -2.7517 -1.1348
   77ccc     H2 2342  -2.745   8.936   5.107  0.8355 -1.5127  0.5332
   77ccc     C2 2343  -2.607   9.002   5.264  0.3202  0.4205  0.6851
   77ccc     H3 2344  -2.526   9.035   5.197  0.6266 -1.2047  0.2304
   77ccc     H4 2345  -2.583   8.899   5.288  0.2537 -0.2208 -1.6815
   77ccc     C3 2346  -2.602   9.087   5.398  0.1602  0.9213  0.0664
   77ccc     H5 2347  -2.679   9.052   5.467  1.2728 -1.1615  0.3370
   77ccc     H6 2348  -2.620   9.191   5.374  0.6134  1.6457  2.6106
   77ccc     N1 2349  -2.470   9.079   5.470 -0.1709  0.4887 -0.0269
   77ccc     C4 2350  -2.375   9.176   5.400 -0.4390 -0.0870 -0.8966
   77ccc     H7 2351  -2.361   9.150   5.295  2.5755  3.3116 -1.5522
   77ccc     H8 2352  -2.277   9.154   5.442  0.1034 -0.3238 -2.2432
   77ccc     C5 2353  -2.399   9.327   5.409  0.0615  0.5677  0.2638
   77ccc     H9 2354  -2.481   9.361   5.344  1.6902  1.1955 -1.5299
   77ccc    H10 2355  -2.434   9.353   5.510  0.7824  0.1434  0.6257
   77ccc     C6 2356  -2.278   9.393   5.368  0.2266 -1.1456  0.6436
   77ccc     O1 2357  -2.245   9.410   5.250  0.1111 -0.2717 -0.4372
   77ccc     O2 2358  -2.200   9.444   5.467 -0.1180 -0.2919 -0.0304
   77ccc    H11 2359  -2.220   9.407   5.554 -0.5799  1.6837  0.7638
   77ccc     C7 2360  -2.487   9.115   5.619 -0.4968  0.6592  0.2211
   77ccc    H12 2361  -2.384   9.129   5.653  0.0855  2.3184 -2.0151
   77ccc    H13 2362  -2.532   9.214   5.626  0.5982  1.1382  0.8212
   77ccc     C8 2363  -2.560   9.009   5.710 -0.0104 -1.0360 -0.5585
   77ccc    H14 2364  -2.666   8.998   5.684 -0.5885  0.3102  1.1021
   77ccc    H15 2365  -2.507   8.914   5.700  2.3280  0.3996 -3.4304
   77ccc     C9 2366  -2.557   9.051   5.863 -0.2069 -0.1196 -0.4274
   77ccc     O3 2367  -2.474   9.130   5.914  0.3928 -0.4799 -0.5462
   77ccc     O4 2368  -2.643   8.982   5.944 -0.6629 -0.1219 -0.5546
   77ccc    H16 2369  -2.676   8.910   5.887 -0.7919 -0.7284  0.2699
   77ccc     O5 2370  -2.763   9.140   5.149 -0.7280 -0.4761 -0.6867
   77ccc    H17 2371  -2.422   8.988   5.465 -3.3954 -1.3679  0.0785
   78ccc     C1 2372  -3.087   9.758   4.654  0.5755 -0.0492 -0.2937
   78ccc     H1 2373  -3.178   9.720   4.702  0.8075  0.5809  0.6600
   78ccc     H2 2374  -3.097   9.863   4.626 -0.5055 -0.4879 -1.6705
   78ccc     C2 2375  -3.063   9.680   4.521 -0.1869  0.1130  1.0862
   78ccc     H3 2376  -3.138   9.692   4.442 -0.3298 -0.4941  1.1273
   78ccc     H4 2377  -3.060   9.572   4.542 -1.7667 -0.1605  0.0479
   78ccc     C3 2378  -2.927   9.712   4.447  0.6418  0.3153 -0.2297
   78ccc     H5 2379  -2.877   9.779   4.517 -1.8001  1.4226  0.5748
   78ccc     H6 2380  -2.935   9.762   4.350  0.3711  1.5983  0.4303
   78ccc     N1 2381  -2.848   9.583   4.425 -0.4477  0.3679  0.7085
   78ccc     C4 2382  -2.741   9.597   4.319  0.2785  0.5135  0.4980
   78ccc     H7 2383  -2.675   9.511   4.330  0.1925  0.5780  1.5891
   78ccc     H8 2384  -2.681   9.684   4.348  0.5569  0.5652 -0.1994
   78ccc     C5 2385  -2.796   9.616   4.177  0.1632 -0.4021 -0.4043
   78ccc     H9 2386  -2.877   9.542   4.171 -1.1648  1.0825 -1.5799
   78ccc    H10 2387  -2.839   9.716   4.163 -1.1220 -1.1263 -2.0386
   78ccc     C6 2388  -2.689   9.597   4.075 -0.2281  0.4427  0.5744
   78ccc     O1 2389  -2.630   9.687   4.023  0.3754  0.4244  0.2906
   78ccc     O2 2390  -2.658   9.471   4.055 -0.3533  0.1817  0.7850
   78ccc    H11 2391  -2.621   9.484   3.966 -1.2257  1.9128  0.6276
   78ccc     C7 2392  -2.780   9.540   4.551  0.1606 -0.3716  0.6805
   78ccc    H12 2393  -2.682   9.586   4.539 -0.3398  0.3016 -1.1579
   78ccc    H13 2394  -2.833   9.583   4.636 -0.0188 -0.4607  0.6148
   78ccc     C8 2395  -2.761   9.387   4.576  1.2601  0.0048  0.1917
   78ccc    H14 2396  -2.852   9.328   4.566  0.3950  0.9998  1.7327
   78ccc    H15 2397  -2.688   9.340   4.509  1.0784  0.4503 -0.3223
   78ccc     C9 2398  -2.697   9.359   4.719  0.3714 -0.2966 -0.3395
   78ccc     O3 2399  -2.655   9.445   4.789 -0.9388 -0.2173  0.1245
   78ccc     O4 2400  -2.686   9.229   4.756  0.6960 -0.0338  0.1638
   78ccc    H16 2401  -2.728   9.180   4.684 -2.0920 -0.6064  1.9982
   78ccc     O5 2402  -2.976   9.729   4.748  0.3532  0.2642 -0.3791
   78ccc    H17 2403  -2.916   9.516   4.387  2.2686 -0.9365 -2.3686
   79ccc     C1 2404   2.391   8.318   5.436 -0.1960 -1.2875 -0.0718
   79ccc     H1 2405   2.449   8.274   5.518  0.5036 -0.5569 -0.1693
   79ccc     H2 2406   2.397   8.247   5.352  0.0606 -1.0355 -0.2652
   79ccc     C2 2407   2.442   8.460   5.400 -0.3178  0.3110  0.6271
   79ccc     H3 2408   2.547   8.476   5.427  0.2188 -0.6875 -0.6909
   79ccc     H4 2409   2.381   8.532   5.455  1.0660  1.3915  0.7921
   79ccc     C3 2410   2.420   8.483   5.246  0.4001  0.7701 -0.9069
   79ccc     H5 2411   2.318   8.449   5.227  0.3672 -0.3606  1.0666
   79ccc     H6 2412   2.486   8.408   5.202  0.2486 -1.9427  2.9534
   79ccc     N1 2413   2.441   8.623   5.191 -0.1716  0.4855 -0.5326
   79ccc     C4 2414   2.317   8.703   5.226 -0.1932  0.2611 -0.1920
   79ccc     H7 2415   2.343   8.806   5.250 -0.1967  0.1781  0.1784
   79ccc     H8 2416   2.270   8.655   5.311 -0.2738  1.0616  0.2289
   79ccc     C5 2417   2.209   8.717   5.120  0.1140 -0.1230  1.0709
   79ccc     H9 2418   2.253   8.762   5.030 -0.0266 -1.9095  0.0475
   79ccc    H10 2419   2.180   8.612   5.102 -1.2356  0.3091  0.5947
   79ccc     C6 2420   2.090   8.807   5.171  0.1435  0.2976 -0.3118
   79ccc     O1 2421   2.085   8.924   5.159  0.4987  0.4864  0.4947
   79ccc     O2 2422   1.993   8.738   5.237  0.1447  0.3777  0.1026
   79ccc    H11 2423   2.022   8.645   5.233  0.1991  0.2081  2.7884
   79ccc     C7 2424   2.565   8.684   5.250  0.7908  0.7322  0.1106
   79ccc    H12 2425   2.545   8.695   5.356  0.8373  2.7301 -0.0551
   79ccc    H13 2426   2.642   8.607   5.239 -2.3033 -2.4937 -1.0349
   79ccc     C8 2427   2.624   8.814   5.194 -0.4855  0.2873  0.2942
   79ccc    H14 2428   2.639   8.803   5.086  1.2241  0.7194  0.4600
   79ccc    H15 2429   2.551   8.892   5.218  0.6952  1.3600  0.5362
   79ccc     C9 2430   2.750   8.858   5.274  0.1132 -0.2058 -0.4598
   79ccc     O3 2431   2.805   8.792   5.359  0.1410  0.1868 -0.1649
   79ccc     O4 2432   2.794   8.981   5.236  0.2859  0.1446 -0.4030
   79ccc    H16 2433   2.739   9.008   5.160  0.0659 -0.4267 -0.4557
   79ccc     O5 2434   2.254   8.340   5.468  0.9068 -0.1445 -0.8046
   79ccc    H17 2435   2.454   8.607   5.090  1.0787 -1.1063 -0.1573
   80ccc     C1 2436   1.548   8.682   5.388  0.4068  0.3571 -0.1115
   80ccc     H1 2437   1.496   8.606   5.328  0.8033 -0.6725  0.8125
   80ccc     H2 2438   1.461   8.726   5.438 -0.9210 -0.5623 -1.5006
   80ccc     C2 2439   1.624   8.782   5.296  0.5025  0.0164 -0.2061
   80ccc     H3 2440   1.566   8.822   5.213  2.5231  1.5181 -0.9885
   80ccc     H4 2441   1.708   8.728   5.250  0.4397 -0.4959  0.2642
   80ccc     C3 2442   1.689   8.898   5.371 -0.5181  0.5766 -0.2226
   80ccc     H5 2443   1.770   8.861   5.435  1.7099  2.6379 -1.6691
   80ccc     H6 2444   1.618   8.945   5.439 -0.0455  1.9404 -0.6375
   80ccc     N1 2445   1.745   9.010   5.287 -0.3841 -0.3687  0.1970
   80ccc     C4 2446   1.629   9.097   5.243  0.3471 -0.0621  0.3910
   80ccc     H7 2447   1.541   9.043   5.205  2.1746 -3.4981  0.6243
   80ccc     H8 2448   1.664   9.148   5.153 -2.6271 -0.8934 -1.4106
   80ccc     C5 2449   1.590   9.200   5.351  0.8386  0.1511 -0.1592
   80ccc     H9 2450   1.572   9.142   5.442 -1.0316  1.0598  0.0799
   80ccc    H10 2451   1.670   9.275   5.360  0.0044  0.7993  2.7628
   80ccc     C6 2452   1.465   9.276   5.314 -0.0936 -0.1041  0.5280
   80ccc     O1 2453   1.406   9.252   5.209 -0.5523  0.3355 -0.1140
   80ccc     O2 2454   1.431   9.387   5.384  0.2029  0.5626  0.2112
   80ccc    H11 2455   1.500   9.390   5.452 -0.5210 -2.7258  1.2915
   80ccc     C7 2456   1.865   9.078   5.347  0.0839  0.0875 -0.4865
   80ccc    H12 2457   1.833   9.113   5.445 -1.0828  1.5198 -1.3371
   80ccc    H13 2458   1.939   9.005   5.378 -0.7876 -1.3243 -1.6072
   80ccc     C8 2459   1.936   9.176   5.252  0.3907 -0.0908  0.1828
   80ccc    H14 2460   1.940   9.152   5.145 -0.4024  0.3472  0.0488
   80ccc    H15 2461   1.878   9.270   5.251 -0.7164 -0.7414  1.4206
   80ccc     C9 2462   2.078   9.208   5.303  0.1848  0.7388  0.4943
   80ccc     O3 2463   2.114   9.183   5.417 -0.1339 -0.3304  0.1909
   80ccc     O4 2464   2.157   9.265   5.218 -0.5368  0.4102  0.4836
   80ccc    H16 2465   2.117   9.264   5.129  2.4316  0.1462 -0.9863
   80ccc     O5 2466   1.639   8.626   5.480 -0.1107  0.0728 -0.3438
   80ccc    H17 2467   1.780   8.972   5.198 -1.3332 -0.9021  0.0450
   81ccc     C1 2468   2.017   7.746   6.502 -0.3151 -0.3544 -0.6613
   81ccc     H1 2469   2.052   7.698   6.410 -1.3420 -0.9463 -0.7596
   81ccc     H2 2470   2.088   7.723   6.582 -1.6034 -0.9550  0.3422
   81ccc     C2 2471   1.881   7.674   6.551 -0.0010 -0.8714 -0.2772
   81ccc     H3 2472   1.860   7.686   6.657 -0.8265 -0.1349 -0.5178
   81ccc     H4 2473   1.900   7.567   6.531  1.3794 -0.6758 -0.1344
   81ccc     C3 2474   1.775   7.727   6.450 -0.2403 -0.4649 -0.5837
   81ccc     H5 2475   1.787   7.692   6.348 -0.3583  1.3573 -1.2647
   81ccc     H6 2476   1.784   7.835   6.437  0.8420 -0.6140 -1.2136
   81ccc     N1 2477   1.639   7.709   6.504  0.2100 -0.1112 -0.3399
   81ccc     C4 2478   1.603   7.808   6.616 -0.1929  0.3312  0.3253
   81ccc     H7 2479   1.621   7.906   6.572 -2.0020  0.7085  0.3526
   81ccc     H8 2480   1.680   7.801   6.693  0.4527  0.0155 -0.3287
   81ccc     C5 2481   1.463   7.815   6.674 -0.4185 -0.6628 -1.1060
   81ccc     H9 2482   1.399   7.864   6.599  1.0352  0.4622 -1.6787
   81ccc    H10 2483   1.416   7.720   6.701 -1.1387 -0.6918 -2.3536
   81ccc     C6 2484   1.460   7.906   6.804 -0.4977  0.3906  0.0144
   81ccc     O1 2485   1.511   8.015   6.796  0.2299  0.4001 -0.1910
   81ccc     O2 2486   1.378   7.870   6.903 -0.6930  0.1679 -0.5718
   81ccc    H11 2487   1.355   7.777   6.888  0.5635 -0.4247  0.9295
   81ccc     C7 2488   1.538   7.722   6.388 -0.0318  0.5955 -0.8332
   81ccc    H12 2489   1.442   7.751   6.431 -0.5879 -2.2507  0.0790
   81ccc    H13 2490   1.570   7.788   6.308  1.4189  0.4369 -0.4003
   81ccc     C8 2491   1.537   7.588   6.313  0.2626 -0.6064 -0.3121
   81ccc    H14 2492   1.633   7.567   6.264 -0.0782  1.6290 -2.0907
   81ccc    H15 2493   1.518   7.510   6.389  0.1587 -0.2841 -0.0071
   81ccc     C9 2494   1.423   7.575   6.213  0.0489  0.8454  0.3659
   81ccc     O3 2495   1.311   7.621   6.228  0.2700  0.0277 -0.3863
   81ccc     O4 2496   1.453   7.498   6.109 -0.2032  0.0475  0.5345
   81ccc    H16 2497   1.369   7.500   6.060 -0.2045 -1.9639  0.3630
   81ccc     O5 2498   2.004   7.889   6.501  0.5179 -0.2110 -0.1311
   81ccc    H17 2499   1.634   7.618   6.551 -1.0342 -0.5092 -1.2016
   82ccc     C1 2500   1.749   8.294   7.101  0.8019 -0.7980  0.3137
   82ccc     H1 2501   1.707   8.394   7.118 -0.4327 -1.4131  0.9801
   82ccc     H2 2502   1.669   8.230   7.140 -1.5536  2.8185  1.9226
   82ccc     C2 2503   1.877   8.274   7.180 -0.4471 -0.4327  0.6482
   82ccc     H3 2504   1.847   8.317   7.276  1.6621  0.1550  1.0869
   82ccc     H4 2505   1.955   8.341   7.143  0.2000 -1.5698 -0.1302
   82ccc     C3 2506   1.916   8.127   7.198  1.1092 -0.2106  0.3137
   82ccc     H5 2507   1.917   8.068   7.106  1.0384 -2.7994  1.8868
   82ccc     H6 2508   1.834   8.083   7.254 -0.0935  0.6436 -0.6987
   82ccc     N1 2509   2.054   8.106   7.255  0.8923  0.3260 -0.3285
   82ccc     C4 2510   2.060   7.963   7.307  0.3416  0.1265 -0.2582
   82ccc     H7 2511   1.988   7.953   7.388 -0.6039 -1.5569 -1.2613
   82ccc     H8 2512   2.158   7.945   7.354  0.3059  1.4221  0.3553
   82ccc     C5 2513   2.036   7.861   7.200 -0.3511  0.5613  0.1828
   82ccc     H9 2514   1.939   7.859   7.148  0.9752 -1.1692 -2.4193
   82ccc    H10 2515   2.113   7.873   7.123  0.5836 -1.6905  0.6956
   82ccc     C6 2516   2.048   7.717   7.249 -0.1728 -0.3452  0.2431
   82ccc     O1 2517   2.142   7.643   7.233 -0.1445 -0.3459  0.1565
   82ccc     O2 2518   1.934   7.667   7.297  0.5314 -0.4165 -0.3566
   82ccc    H11 2519   1.961   7.580   7.329  0.3144 -0.5672 -0.5798
   82ccc     C7 2520   2.169   8.138   7.158  0.2654 -0.0155  0.5600
   82ccc    H12 2521   2.137   8.083   7.069 -2.5421 -1.4000  2.2677
   82ccc    H13 2522   2.177   8.245   7.137  0.7123 -0.0887  0.3503
   82ccc     C8 2523   2.306   8.103   7.195  0.0655  0.2634 -0.3561
   82ccc    H14 2524   2.322   8.134   7.299  0.8184 -2.7504  0.5049
   82ccc    H15 2525   2.319   7.995   7.206 -1.2479  0.0687 -0.5366
   82ccc     C9 2526   2.409   8.168   7.108 -0.3647  0.7765  0.0007
   82ccc     O3 2527   2.447   8.281   7.118 -0.4898 -0.9828  0.1332
   82ccc     O4 2528   2.441   8.092   7.001  0.4337 -0.5576 -0.1766
   82ccc    H16 2529   2.504   8.154   6.962 -0.2013  1.7668  2.2120
   82ccc     O5 2530   1.779   8.260   6.966  0.5263  0.6635  0.3618
   82ccc    H17 2531   2.065   8.166   7.338  0.5969  0.3370 -0.2951
   83ccc     C1 2532   0.012   7.422   5.588  0.2082  0.3506 -0.5375
   83ccc     H1 2533   0.067   7.340   5.638  0.5740 -0.4230 -2.1428
   83ccc     H2 2534  -0.091   7.386   5.580  0.7482 -0.8791 -2.5795
   83ccc     C2 2535   0.065   7.451   5.446 -0.3622  0.3888 -0.0135
   83ccc     H3 2536   0.173   7.466   5.452 -0.4172  0.3693  1.4015
   83ccc     H4 2537   0.036   7.553   5.415  1.0419  1.5645  2.3071
   83ccc     C3 2538   0.024   7.340   5.350 -0.4914  0.1976 -0.0716
   83ccc     H5 2539  -0.079   7.308   5.362 -0.4458 -0.3854 -1.1366
   83ccc     H6 2540   0.084   7.251   5.371 -0.9768  0.0026  0.5145
   83ccc     N1 2541   0.057   7.389   5.207 -0.2112  0.6600  0.4441
   83ccc     C4 2542   0.034   7.281   5.099 -0.5491 -0.7365 -0.2212
   83ccc     H7 2543   0.076   7.326   5.009 -0.4268 -0.1216  0.1324
   83ccc     H8 2544  -0.072   7.269   5.080 -1.1332  2.9311 -0.0765
   83ccc     C5 2545   0.087   7.139   5.128 -0.1710  1.1436 -0.1478
   83ccc     H9 2546   0.190   7.138   5.167  1.0612  1.0724 -3.1193
   83ccc    H10 2547   0.018   7.086   5.194 -0.5218  0.2307 -1.2256
   83ccc     C6 2548   0.089   7.054   5.006 -0.3561  0.3201  0.5176
   83ccc     O1 2549   0.005   7.053   4.920 -0.1072 -0.2841 -0.6708
   83ccc     O2 2550   0.185   6.966   5.012  0.2612 -0.6113  0.0735
   83ccc    H11 2551   0.179   6.919   4.927  2.6658 -1.3234  0.2067
   83ccc     C7 2552  -0.031   7.507   5.156 -0.2424 -0.0945 -0.1770
   83ccc    H12 2553  -0.129   7.460   5.153  0.3913 -1.4271 -1.0542
   83ccc    H13 2554  -0.034   7.580   5.236  0.9983 -0.9917  0.7316
   83ccc     C8 2555   0.007   7.563   5.017  0.0612  1.5324 -0.0596
   83ccc    H14 2556   0.110   7.600   5.005 -0.2865  1.8618 -2.7654
   83ccc    H15 2557  -0.009   7.494   4.934  1.1253  0.5299  0.5315
   83ccc     C9 2558  -0.069   7.689   4.994  0.3177 -0.9036 -1.0975
   83ccc     O3 2559  -0.049   7.792   5.060 -0.1419  0.0996  0.3839
   83ccc     O4 2560  -0.146   7.700   4.883 -0.0362 -0.4991 -0.4169
   83ccc    H16 2561  -0.150   7.610   4.848 -0.6819 -0.6534  0.0533
   83ccc     O5 2562   0.026   7.535   5.675 -0.4856  0.0003  0.1015
   83ccc    H17 2563   0.156   7.419   5.212  0.0634 -0.2375  0.5872
   84ccc     C1 2564  -0.360   7.829   6.311  0.4407  0.4230  0.6473
   84ccc     H1 2565  -0.301   7.744   6.348 -0.7833 -1.1315 -0.8111
   84ccc     H2 2566  -0.342   7.903   6.389  2.8030 -2.1530  2.7458
   84ccc     C2 2567  -0.507   7.789   6.302 -0.3690  0.0882 -0.2501
   84ccc     H3 2568  -0.566   7.881   6.287  0.7662  0.7372 -0.8851
   84ccc     H4 2569  -0.527   7.752   6.403  0.2682  1.1955  0.3076
   84ccc     C3 2570  -0.523   7.690   6.185 -0.3528  0.0857 -0.3823
   84ccc     H5 2571  -0.434   7.626   6.182  0.2430  0.8961 -3.3119
   84ccc     H6 2572  -0.517   7.743   6.089 -1.1151 -2.0032 -1.6633
   84ccc     N1 2573  -0.637   7.585   6.198  0.0105 -0.6125  0.2377
   84ccc     C4 2574  -0.592   7.468   6.281 -0.6436  0.0474  0.1628
   84ccc     H7 2575  -0.670   7.392   6.285  0.7529 -1.5568 -1.0400
   84ccc     H8 2576  -0.581   7.501   6.384  2.2717 -0.7301  0.2027
   84ccc     C5 2577  -0.467   7.390   6.243  0.0941  0.2857 -0.2505
   84ccc     H9 2578  -0.475   7.364   6.137 -0.1792  0.0519 -0.1720
   84ccc    H10 2579  -0.373   7.446   6.254 -0.4073  0.6414  3.5817
   84ccc     C6 2580  -0.459   7.253   6.314  0.5849 -0.3842  0.0833
   84ccc     O1 2581  -0.548   7.216   6.388  0.0417 -0.3124  0.4619
   84ccc     O2 2582  -0.368   7.155   6.267  0.2286 -0.7045  0.0554
   84ccc    H11 2583  -0.296   7.202   6.222  1.4423 -1.3502  1.2545
   84ccc     C7 2584  -0.762   7.658   6.246  0.4749  0.5242 -0.2302
   84ccc    H12 2585  -0.733   7.721   6.330  1.9586  0.7428 -0.8796
   84ccc    H13 2586  -0.798   7.727   6.170  0.5048  1.1819  0.3431
   84ccc     C8 2587  -0.885   7.566   6.276 -0.2842  0.5362  0.6576
   84ccc    H14 2588  -0.915   7.513   6.185 -0.9453  1.7934  0.1163
   84ccc    H15 2589  -0.857   7.477   6.334 -0.3407 -0.7826 -1.2347
   84ccc     C9 2590  -1.013   7.637   6.335  0.5076 -0.0363 -0.5043
   84ccc     O3 2591  -1.017   7.756   6.340 -0.3029  0.5954 -0.2913
   84ccc     O4 2592  -1.106   7.554   6.384  0.0488 -0.3869 -0.6582
   84ccc    H16 2593  -1.188   7.606   6.378  1.4698  2.4337  1.7822
   84ccc     O5 2594  -0.316   7.866   6.174  0.1510  0.3765 -0.6268
   84ccc    H17 2595  -0.652   7.546   6.103 -1.7690  0.5027  0.0197
   85ccc     C1 2596  -0.019   8.420   4.619  0.0767  0.1806 -0.1100
   85ccc     H1 2597  -0.113   8.468   4.647 -0.9342 -0.5795 -2.0125
   85ccc     H2 2598  -0.000   8.442   4.513  1.1164 -1.4393 -0.3073
   85ccc     C2 2599  -0.026   8.267   4.632  0.2969 -0.0308  0.0978
   85ccc     H3 2600   0.044   8.216   4.565  0.6978  0.4564  0.1402
   85ccc     H4 2601  -0.120   8.215   4.609  0.7290 -1.6624  1.8105
   85ccc     C3 2602  -0.010   8.225   4.780  0.7729  0.1064  0.2528
   85ccc     H5 2603  -0.082   8.285   4.835 -1.4695 -2.7883  0.7338
   85ccc     H6 2604   0.083   8.276   4.809 -0.6749  1.9892  1.8753
   85ccc     N1 2605   0.001   8.077   4.806 -0.3988 -0.0698  0.1506
   85ccc     C4 2606   0.046   8.051   4.953  0.4973  0.1913 -0.7470
   85ccc     H7 2607   0.045   7.943   4.967 -3.2653  0.0858 -0.8627
   85ccc     H8 2608  -0.032   8.102   5.009 -2.4754 -1.4057 -3.1457
   85ccc     C5 2609   0.193   8.091   4.983 -0.0645 -0.2777 -0.3527
   85ccc     H9 2610   0.265   8.075   4.901 -2.7182  0.7391 -3.0781
   85ccc    H10 2611   0.200   8.195   5.014 -0.7784 -0.2571 -0.2606
   85ccc     C6 2612   0.246   8.014   5.106 -0.1476 -0.0227  0.1441
   85ccc     O1 2613   0.229   8.046   5.218  0.2531  0.0528 -0.2757
   85ccc     O2 2614   0.245   7.878   5.083  0.0028  0.3448 -0.2446
   85ccc    H11 2615   0.244   7.841   5.173 -1.3551  0.2643 -0.2729
   85ccc     C7 2616  -0.132   8.010   4.781 -0.1495 -0.7881 -0.1378
   85ccc    H12 2617  -0.155   8.015   4.675 -1.7031  0.8842  0.2261
   85ccc    H13 2618  -0.118   7.902   4.792 -0.3147 -0.8744 -0.7734
   85ccc     C8 2619  -0.246   8.067   4.873  0.5815  0.0190  1.0545
   85ccc    H14 2620  -0.238   8.026   4.975 -2.4212 -3.5602  0.0458
   85ccc    H15 2621  -0.248   8.177   4.865  1.6059 -0.0015  0.2949
   85ccc     C9 2622  -0.373   8.019   4.807 -0.0153 -0.8867 -0.4207
   85ccc     O3 2623  -0.376   7.929   4.728 -0.0230 -0.4978 -0.3454
   85ccc     O4 2624  -0.487   8.071   4.856  0.2472  0.2519  0.1686
   85ccc    H16 2625  -0.459   8.131   4.928  0.3877  0.1765  0.1775
   85ccc     O5 2626   0.095   8.476   4.695  0.0467 -0.6697  0.0573
   85ccc    H17 2627   0.065   8.029   4.742  0.1213 -0.0173  0.6136
   86ccc     C1 2628   0.676   9.054   4.812 -0.5985  0.0218  0.3497
   86ccc     H1 2629   0.672   9.016   4.710  0.3678  0.8419 -0.0148
   86ccc     H2 2630   0.662   9.163   4.802 -0.7637 -0.1024 -0.9020
   86ccc     C2 2631   0.813   9.023   4.877  0.4604  0.3626 -0.3526
   86ccc     H3 2632   0.848   9.096   4.952  0.5861  1.3274 -1.3307
   86ccc     H4 2633   0.886   9.039   4.797  0.3464 -3.4669 -1.4102
   86ccc     C3 2634   0.814   8.877   4.922  0.6544 -0.3326  0.1092
   86ccc     H5 2635   0.776   8.818   4.838  0.3682 -2.1935  1.4853
   86ccc     H6 2636   0.741   8.869   5.003  0.6895 -0.3967  0.1353
   86ccc     N1 2637   0.945   8.817   4.962 -0.0031  0.4288  0.1116
   86ccc     C4 2638   1.034   8.811   4.838  0.4812 -0.7909 -0.4620
   86ccc     H7 2639   1.135   8.780   4.867  1.0595  0.7654 -0.6857
   86ccc     H8 2640   1.047   8.913   4.801  0.2492 -0.6587 -0.1866
   86ccc     C5 2641   0.982   8.720   4.727 -0.3876 -0.6252  0.1114
   86ccc     H9 2642   1.014   8.620   4.757  1.8460  0.4264  1.4717
   86ccc    H10 2643   0.873   8.726   4.717 -0.2970  3.0282 -0.1506
   86ccc     C6 2644   1.044   8.755   4.595 -0.0949  0.1527 -0.5862
   86ccc     O1 2645   1.126   8.841   4.571  0.1587 -0.0203 -0.6134
   86ccc     O2 2646   1.008   8.677   4.495 -0.3164  0.1366  0.2501
   86ccc    H11 2647   1.055   8.716   4.420 -0.1154  0.5613  0.5985
   86ccc     C7 2648   1.014   8.890   5.085 -0.0330 -0.1192 -0.3895
   86ccc    H12 2649   1.119   8.866   5.101  0.0604  0.9570  0.8090
   86ccc    H13 2650   1.036   8.986   5.036  1.5657  0.2733  1.0039
   86ccc     C8 2651   0.934   8.906   5.215 -0.2443 -1.0503 -0.2064
   86ccc    H14 2652   0.849   8.975   5.207  1.3586  1.0524  0.0061
   86ccc    H15 2653   0.881   8.816   5.247 -0.8497 -0.2966  0.9967
   86ccc     C9 2654   1.018   8.958   5.332  0.0807  0.1229  0.3547
   86ccc     O3 2655   1.107   9.035   5.323 -0.1652  0.3293 -0.4301
   86ccc     O4 2656   0.987   8.907   5.451  0.2410 -0.1693  0.1681
   86ccc    H16 2657   1.044   8.960   5.509  1.7995 -1.6384  0.0374
   86ccc     O5 2658   0.562   8.988   4.878 -0.2164  0.2481 -0.4056
   86ccc    H17 2659   0.932   8.719   4.990  1.6200 -0.2942 -1.4591
   87ccc     C1 2660  -0.621   9.068   8.375 -0.4310  0.3795 -0.0628
   87ccc     H1 2661  -0.689   9.058   8.461 -1.0275 -2.7233 -0.7547
   87ccc     H2 2662  -0.635   8.974   8.319 -0.3932  0.4977 -0.2704
   87ccc     C2 2663  -0.471   9.085   8.403 -0.0293 -0.0662  0.3849
   87ccc     H3 2664  -0.447   9.038   8.499 -2.0163  2.4716  2.2863
   87ccc     H4 2665  -0.456   9.193   8.415 -0.7895  0.0615  0.2378
   87ccc     C3 2666  -0.377   9.029   8.290 -0.4122  0.2425  0.6019
   87ccc     H5 2667  -0.405   9.077   8.196 -0.6945 -1.3451 -0.1651
   87ccc     H6 2668  -0.401   8.923   8.281  0.6159  0.0226  0.3453
   87ccc     N1 2669  -0.230   9.033   8.315  0.1107  0.0881 -0.2226
   87ccc     C4 2670  -0.179   8.909   8.251  0.1672 -0.0037  0.7327
   87ccc     H7 2671  -0.193   8.912   8.142 -0.4145 -4.0434  0.5381
   87ccc     H8 2672  -0.238   8.824   8.286 -0.4123 -0.0293 -0.2681
   87ccc     C5 2673  -0.028   8.879   8.266 -0.4978 -0.4903  0.1109
   87ccc     H9 2674   0.032   8.960   8.222 -0.3669  0.8123  2.4971
   87ccc    H10 2675   0.001   8.858   8.370 -2.2126 -0.8282  0.5482
   87ccc     C6 2676  -0.000   8.757   8.187  0.7765  0.8833  0.1640
   87ccc     O1 2677   0.009   8.759   8.065  0.2520 -0.8021 -0.1768
   87ccc     O2 2678  -0.047   8.642   8.241  0.3933 -0.2225  0.4431
   87ccc    H11 2679  -0.032   8.572   8.174 -0.7706  0.2651 -0.3656
   87ccc     C7 2680  -0.148   9.156   8.260 -0.0747 -0.1340 -0.2111
   87ccc    H12 2681  -0.196   9.234   8.319 -1.8689 -1.7397  0.5475
   87ccc    H13 2682  -0.044   9.148   8.293 -0.3645  0.6100  0.9551
   87ccc     C8 2683  -0.166   9.190   8.106  0.1316  0.5915  0.2287
   87ccc    H14 2684  -0.119   9.103   8.058 -0.1233 -0.9835  2.6920
   87ccc    H15 2685  -0.270   9.191   8.071  0.9466 -1.8339 -2.6948
   87ccc     C9 2686  -0.093   9.313   8.072  0.4857  0.3054 -0.2539
   87ccc     O3 2687  -0.073   9.403   8.146 -0.2458  0.3263 -0.6847
   87ccc     O4 2688  -0.056   9.311   7.947 -0.0589 -0.0592  0.0320
   87ccc    H16 2689   0.003   9.388   7.936  0.1663 -0.2509 -0.1016
   87ccc     O5 2690  -0.663   9.170   8.286 -0.1664 -0.2183 -0.4973
   87ccc    H17 2691  -0.235   9.025   8.418 -0.4279  4.1213  0.2501
   88ccc     C1 2692  -1.086   9.732   8.280 -0.2842  0.7433  0.9442
   88ccc     H1 2693  -1.128   9.807   8.212 -0.0108  0.3265  0.3074
   88ccc     H2 2694  -1.151   9.644   8.275 -0.6117  0.7949  3.2757
   88ccc     C2 2695  -1.078   9.786   8.423  0.2842  0.2971 -0.3139
   88ccc     H3 2696  -1.016   9.876   8.424  1.0332 -0.2019 -0.9074
   88ccc     H4 2697  -1.016   9.723   8.487  1.4797  0.2674 -1.4507
   88ccc     C3 2698  -1.223   9.802   8.474  0.2735  0.0404  0.1464
   88ccc     H5 2699  -1.277   9.711   8.449 -0.2477 -0.0209  1.4192
   88ccc     H6 2700  -1.273   9.888   8.428  1.4966  1.0867  0.7086
   88ccc     N1 2701  -1.244   9.818   8.624 -0.1706  0.2941 -0.2757
   88ccc     C4 2702  -1.214   9.688   8.699  0.1673  0.2377  0.0065
   88ccc     H7 2703  -1.257   9.698   8.798 -0.1131 -1.9992  0.1723
   88ccc     H8 2704  -1.105   9.683   8.710  0.2477 -1.7117 -1.1820
   88ccc     C5 2705  -1.267   9.555   8.632 -0.3919  0.2606 -0.6688
   88ccc     H9 2706  -1.373   9.568   8.605 -0.2768 -1.2622 -1.9896
   88ccc    H10 2707  -1.204   9.534   8.545 -0.1832 -0.7567 -0.2852
   88ccc     C6 2708  -1.260   9.435   8.727 -0.7297 -0.7986 -0.0323
   88ccc     O1 2709  -1.255   9.442   8.849 -0.1704  0.4250  0.0845
   88ccc     O2 2710  -1.266   9.312   8.668 -0.0314  0.0400 -0.7083
   88ccc    H11 2711  -1.268   9.334   8.573  0.3278  0.9953 -0.5087
   88ccc     C7 2712  -1.155   9.924   8.683 -0.0992 -0.0883  0.1920
   88ccc    H12 2713  -1.173   9.921   8.790  0.8082 -0.1348  0.3516
   88ccc    H13 2714  -1.055   9.890   8.654  0.0380 -0.2439  0.8239
   88ccc     C8 2715  -1.182  10.066   8.645 -0.2709  0.6574  0.9696
   88ccc    H14 2716  -1.156  10.085   8.540  1.6604  0.6543  1.3971
   88ccc    H15 2717  -1.284  10.096   8.669 -0.0669  0.7769  1.7167
   88ccc     C9 2718  -1.088  10.157   8.716 -0.6515 -0.2724 -0.1854
   88ccc     O3 2719  -1.024  10.115   8.811  0.6437 -0.0072  0.0052
   88ccc     O4 2720  -1.117  10.293   8.699 -0.5277 -0.0884 -0.4211
   88ccc    H16 2721  -1.178  10.300   8.623 -0.1540 -0.2553 -0.7438
   88ccc     O5 2722  -0.948   9.700   8.246 -0.1302  0.1177  1.0096
   88ccc    H17 2723  -1.341   9.846   8.648  0.5930  0.8977  2.5514
   89ccc     C1 2724  -0.842   8.018   8.293  0.0466 -0.5320 -0.8017
   89ccc     H1 2725  -0.803   7.989   8.391 -2.0787 -0.1813  0.2096
   89ccc     H2 2726  -0.938   8.071   8.307 -0.8904 -2.5963  1.2112
   89ccc     C2 2727  -0.876   7.900   8.200  1.0009  0.5783  0.1570
   89ccc     H3 2728  -0.865   7.932   8.096 -1.3140 -0.9105 -0.6390
   89ccc     H4 2729  -0.980   7.883   8.233  1.1418  0.2380  0.4317
   89ccc     C3 2730  -0.797   7.776   8.239 -0.2060 -0.1172 -0.1611
   89ccc     H5 2731  -0.824   7.709   8.157 -1.0811  0.2056 -0.1537
   89ccc     H6 2732  -0.835   7.752   8.339  0.4203  0.0709  0.1230
   89ccc     N1 2733  -0.641   7.797   8.250  0.2549  0.6261  0.1729
   89ccc     C4 2734  -0.581   7.652   8.272  0.1011 -0.2978 -0.9188
   89ccc     H7 2735  -0.477   7.654   8.240  0.1273  2.5478 -0.9345
   89ccc     H8 2736  -0.640   7.582   8.214  0.2181 -1.3944  0.2473
   89ccc     C5 2737  -0.604   7.610   8.420 -0.7822 -0.1563  0.2556
   89ccc     H9 2738  -0.556   7.681   8.489 -1.2621 -0.8241  1.3153
   89ccc    H10 2739  -0.710   7.615   8.446 -0.7964 -0.5343  0.2861
   89ccc     C6 2740  -0.545   7.466   8.445 -0.5919 -1.0561 -0.3537
   89ccc     O1 2741  -0.484   7.403   8.364 -0.0958  0.1483 -0.4288
   89ccc     O2 2742  -0.568   7.406   8.567 -0.2803  0.0784 -0.3143
   89ccc    H11 2743  -0.604   7.473   8.628  1.8784 -0.3643  1.5776
   89ccc     C7 2744  -0.583   7.867   8.126 -0.1965 -0.0350  0.0542
   89ccc    H12 2745  -0.562   7.798   8.044 -1.3867 -1.8888  1.2300
   89ccc    H13 2746  -0.644   7.950   8.092  0.1379  0.1504 -0.1042
   89ccc     C8 2747  -0.457   7.934   8.185  0.4752  0.0944 -0.3370
   89ccc    H14 2748  -0.479   8.024   8.244 -0.4197 -1.1585  1.3292
   89ccc    H15 2749  -0.403   7.864   8.250  0.9178 -2.1776 -2.9260
   89ccc     C9 2750  -0.368   7.986   8.074 -0.1055  0.0420 -0.3105
   89ccc     O3 2751  -0.402   7.982   7.960 -0.0440  0.1865 -0.0174
   89ccc     O4 2752  -0.273   8.067   8.115  0.6137 -0.3590 -0.6832
   89ccc    H16 2753  -0.206   8.054   8.046  1.2510 -1.5131  0.1374
   89ccc     O5 2754  -0.752   8.097   8.222  0.3498  0.3417  0.4257
   89ccc    H17 2755  -0.620   7.864   8.326 -1.4310  1.4641 -0.0558
   90ccc     C1 2756  -1.064   8.142   7.582 -0.1256  0.6452  0.5638
   90ccc     H1 2757  -0.993   8.206   7.526  0.1514 -0.2866 -0.1706
   90ccc     H2 2758  -1.083   8.053   7.522 -1.7273  1.5322 -0.3205
   90ccc     C2 2759  -1.193   8.221   7.590  0.1493 -0.0027 -0.9577
   90ccc     H3 2760  -1.232   8.248   7.491 -1.3360  2.2524  0.1494
   90ccc     H4 2761  -1.179   8.320   7.636 -0.5766  0.3809 -1.5354
   90ccc     C3 2762  -1.296   8.136   7.672 -0.1989  0.2769 -0.6698
   90ccc     H5 2763  -1.255   8.111   7.769 -0.2843  2.5559  0.0119
   90ccc     H6 2764  -1.306   8.044   7.614  1.2206 -0.7515  0.6424
   90ccc     N1 2765  -1.442   8.196   7.695 -1.4110 -0.2145  0.3003
   90ccc     C4 2766  -1.539   8.105   7.774 -0.5435 -0.5642 -0.3179
   90ccc     H7 2767  -1.612   8.168   7.826  1.1239 -2.0918  4.3243
   90ccc     H8 2768  -1.485   8.047   7.848  0.7013 -1.0038 -1.5314
   90ccc     C5 2769  -1.599   7.993   7.683 -0.5348 -0.2963 -0.1184
   90ccc     H9 2770  -1.652   8.040   7.600  2.4289  0.7313 -1.5590
   90ccc    H10 2771  -1.524   7.934   7.629 -0.3335  0.3656 -0.5676
   90ccc     C6 2772  -1.685   7.894   7.766 -0.5021 -0.5058  0.1690
   90ccc     O1 2773  -1.742   7.927   7.868 -0.2399 -0.0884 -0.2599
   90ccc     O2 2774  -1.748   7.804   7.687 -0.0328 -0.4667 -0.3167
   90ccc    H11 2775  -1.680   7.790   7.618  1.9139  2.8479  0.7186
   90ccc     C7 2776  -1.428   8.326   7.777  0.2559 -0.2681 -0.9264
   90ccc    H12 2777  -1.382   8.407   7.720  0.5052  1.6631  1.8432
   90ccc    H13 2778  -1.529   8.364   7.790  0.3663 -0.6867  1.6404
   90ccc     C8 2779  -1.362   8.307   7.923  0.3039 -0.3262  0.1611
   90ccc    H14 2780  -1.397   8.225   7.987 -0.4131  0.1024  0.3285
   90ccc    H15 2781  -1.254   8.289   7.912 -0.0191 -2.0894 -0.2453
   90ccc     C9 2782  -1.376   8.435   8.008  0.5301  0.8166  0.1120
   90ccc     O3 2783  -1.436   8.532   7.969 -0.6694  0.1497  0.0135
   90ccc     O4 2784  -1.282   8.438   8.106  0.0090  0.4423  0.0046
   90ccc    H16 2785  -1.300   8.526   8.144 -0.9863 -0.4256  1.6649
   90ccc     O5 2786  -1.001   8.114   7.711  0.1707  0.2619  0.0933
   90ccc    H17 2787  -1.475   8.211   7.599  0.4671  0.6881 -0.2593
   91ccc     C1 2788  -0.941   7.279   6.586  0.5661 -0.0875  0.0954
   91ccc     H1 2789  -0.951   7.388   6.592  1.5159  0.0436 -0.5058
   91ccc     H2 2790  -0.836   7.257   6.564  1.0844  1.1056  1.2705
   91ccc     C2 2791  -1.045   7.212   6.494  0.3768  0.5210  1.2456
   91ccc     H3 2792  -1.030   7.103   6.497  1.2857  0.6481  1.5123
   91ccc     H4 2793  -1.008   7.230   6.393  0.8656  1.3437  1.5658
   91ccc     C3 2794  -1.193   7.246   6.512  0.5995 -0.2175  0.3254
   91ccc     H5 2795  -1.187   7.355   6.520  0.3879  0.3269 -4.2938
   91ccc     H6 2796  -1.229   7.200   6.604  0.9300 -2.0887 -0.4209
   91ccc     N1 2797  -1.283   7.215   6.390  0.3383 -0.0409 -0.8146
   91ccc     C4 2798  -1.333   7.075   6.401 -0.7911 -0.4205 -0.4767
   91ccc     H7 2799  -1.432   7.054   6.360  0.2262 -1.3287 -2.6472
   91ccc     H8 2800  -1.342   7.049   6.506 -1.3242  0.2510 -0.3483
   91ccc     C5 2801  -1.238   6.981   6.334  0.1781  0.7039  0.9265
   91ccc     H9 2802  -1.176   7.015   6.250 -0.0051 -2.1554 -0.4960
   91ccc    H10 2803  -1.164   6.930   6.397 -0.5758 -2.1769 -0.3382
   91ccc     C6 2804  -1.317   6.865   6.288  0.6190  0.1448  0.3067
   91ccc     O1 2805  -1.421   6.871   6.219  0.5355 -0.0603  0.3600
   91ccc     O2 2806  -1.255   6.748   6.291 -0.1800 -0.0603  0.5605
   91ccc    H11 2807  -1.313   6.681   6.252  0.0369  0.1360 -0.1103
   91ccc     C7 2808  -1.416   7.299   6.387 -0.3564  0.3158  0.0644
   91ccc    H12 2809  -1.380   7.394   6.348 -0.9667  0.6954  0.4020
   91ccc    H13 2810  -1.482   7.252   6.313  1.4262  1.0713 -2.1009
   91ccc     C8 2811  -1.481   7.320   6.527 -0.1856 -0.0288  0.7017
   91ccc    H14 2812  -1.479   7.217   6.567  0.5125 -0.1723  0.3166
   91ccc    H15 2813  -1.424   7.389   6.590  0.4287 -0.5865  0.7651
   91ccc     C9 2814  -1.618   7.386   6.503 -0.2358 -0.9768 -0.1669
   91ccc     O3 2815  -1.671   7.396   6.393 -0.0054  0.3169 -0.0824
   91ccc     O4 2816  -1.653   7.469   6.601 -0.2227  0.6553  0.1337
   91ccc    H16 2817  -1.745   7.493   6.578 -1.4701 -3.1791  0.4496
   91ccc     O5 2818  -0.964   7.230   6.719  0.0441  0.3023  0.7566
   91ccc    H17 2819  -1.230   7.226   6.302  0.0655  0.0419 -0.9699
   92ccc     C1 2820  -0.353   6.919   7.261 -0.3505  0.4553 -0.9105
   92ccc     H1 2821  -0.244   6.906   7.255 -0.3945 -1.5428  1.1075
   92ccc     H2 2822  -0.376   6.970   7.355 -2.3336 -2.3311  0.2473
   92ccc     C2 2823  -0.427   6.783   7.253  0.0152 -0.7537  0.1675
   92ccc     H3 2824  -0.526   6.801   7.296 -1.2095 -0.1561 -2.6730
   92ccc     H4 2825  -0.374   6.705   7.311  0.2715  0.1158  1.1422
   92ccc     C3 2826  -0.433   6.723   7.104  0.1594 -0.0085 -0.1207
   92ccc     H5 2827  -0.490   6.791   7.041 -0.2929 -0.9680 -0.7766
   92ccc     H6 2828  -0.484   6.628   7.121  0.4793 -0.0197  0.8093
   92ccc     N1 2829  -0.309   6.691   7.040  0.0907  0.0078 -0.0029
   92ccc     C4 2830  -0.237   6.571   7.109  0.6797 -0.0335  0.4627
   92ccc     H7 2831  -0.297   6.480   7.110 -0.2140  0.5384 -0.1226
   92ccc     H8 2832  -0.203   6.604   7.208  1.7382  1.8626 -0.4853
   92ccc     C5 2833  -0.104   6.526   7.044 -0.3913 -0.6265 -0.8613
   92ccc     H9 2834  -0.113   6.493   6.939 -2.0841  0.9906 -1.2861
   92ccc    H10 2835  -0.033   6.609   7.038 -1.0242 -0.0926 -1.0717
   92ccc     C6 2836  -0.039   6.420   7.127 -0.0854  0.2250  0.3642
   92ccc     O1 2837  -0.094   6.338   7.194 -0.4716  0.1450  0.0479
   92ccc     O2 2838   0.092   6.425   7.135  0.4980  0.0374  0.3141
   92ccc    H11 2839   0.113   6.338   7.175  1.1986  0.6157  1.2456
   92ccc     C7 2840  -0.347   6.653   6.892 -0.0372  0.0658  0.0336
   92ccc    H12 2841  -0.265   6.598   6.846 -0.0957  1.1498 -1.4347
   92ccc    H13 2842  -0.434   6.586   6.890 -0.2064  0.2894 -0.1639
   92ccc     C8 2843  -0.376   6.765   6.791 -0.0720 -0.0263  0.7628
   92ccc    H14 2844  -0.470   6.814   6.817  0.1028  0.4113  0.5738
   92ccc    H15 2845  -0.298   6.840   6.809 -2.1742  2.0172  1.7165
   92ccc     C9 2846  -0.386   6.712   6.650 -0.5673  0.0528 -0.0735
   92ccc     O3 2847  -0.300   6.637   6.607 -1.1852  0.4192 -0.2627
   92ccc     O4 2848  -0.490   6.745   6.575  0.6677  0.7807  0.1145
   92ccc    H16 2849  -0.547   6.805   6.627 -0.1832 -1.0348  1.3755
   92ccc     O5 2850  -0.396   6.999   7.147  0.0331  0.2328 -0.1629
   92ccc    H17 2851  -0.250   6.775   7.048 -1.8159  1.6841 -2.2907
   93ccc     C1 2852   0.844   7.991   7.371 -0.1816 -0.2769 -0.2739
   93ccc     H1 2853   0.809   8.092   7.346 -2.0405 -0.9057 -0.3523
   93ccc     H2 2854   0.806   7.964   7.470 -0.1882  0.1687 -0.1520
   93ccc     C2 2855   0.995   7.991   7.376 -0.2109 -0.2629  0.1074
   93ccc     H3 2856   1.035   7.888   7.376 -0.0016 -0.1876  0.7359
   93ccc     H4 2857   1.016   8.040   7.472 -1.2549  0.9618 -0.2796
   93ccc     C3 2858   1.059   8.077   7.256 -0.2704 -0.6042  0.4032
   93ccc     H5 2859   1.030   8.182   7.268 -0.6860 -0.6989  0.2101
   93ccc     H6 2860   1.038   8.038   7.157  2.2692  0.6887 -0.7525
   93ccc     N1 2861   1.211   8.077   7.265 -0.0353 -0.1342 -0.2340
   93ccc     C4 2862   1.259   7.941   7.234 -0.5516  0.1025  0.2587
   93ccc     H7 2863   1.228   7.922   7.130 -2.4350 -0.0410  0.7981
   93ccc     H8 2864   1.199   7.870   7.292 -1.2976  1.2777  0.9685
   93ccc     C5 2865   1.406   7.913   7.272 -0.0045 -0.5098  0.0885
   93ccc     H9 2866   1.473   7.989   7.230 -2.0510  1.1930 -0.2211
   93ccc    H10 2867   1.407   7.913   7.381  0.2103  0.5845  0.0914
   93ccc     C6 2868   1.450   7.770   7.233 -0.4193  0.7788 -0.2830
   93ccc     O1 2869   1.375   7.688   7.183 -0.0347  0.2185 -0.4301
   93ccc     O2 2870   1.558   7.730   7.303 -0.2115  0.0390  0.3251
   93ccc    H11 2871   1.595   7.806   7.352 -0.3888  0.0522  0.4423
   93ccc     C7 2872   1.275   8.185   7.166  0.1324 -0.2855 -0.4002
   93ccc    H12 2873   1.384   8.186   7.174  0.1086 -0.2124 -0.0740
   93ccc    H13 2874   1.259   8.148   7.065  1.8471 -0.9782 -0.4497
   93ccc     C8 2875   1.228   8.324   7.210  0.3744 -0.0348  0.4188
   93ccc    H14 2876   1.119   8.341   7.206  0.3668 -0.3076 -0.6907
   93ccc    H15 2877   1.251   8.341   7.316  1.5967 -0.5577  0.2449
   93ccc     C9 2878   1.299   8.434   7.124  1.2413  0.3900  0.1266
   93ccc     O3 2879   1.391   8.418   7.046  0.3599  0.2320  0.0669
   93ccc     O4 2880   1.267   8.562   7.157  0.1738 -0.2914 -0.5194
   93ccc    H16 2881   1.206   8.552   7.232  1.0328 -0.8200  0.1434
   93ccc     O5 2882   0.792   7.902   7.261  0.1672  0.3062 -0.4993
   93ccc    H17 2883   1.245   8.108   7.358  2.2503 -0.3088 -0.9515
   94ccc     C1 2884   0.582   7.988   6.565 -0.3112  0.0947 -0.0293
   94ccc     H1 2885   0.654   7.922   6.516 -0.7896 -1.6692  1.5089
   94ccc     H2 2886   0.512   8.031   6.492 -2.5612 -0.0610  1.9016
   94ccc     C2 2887   0.651   8.105   6.639  0.1481 -0.0477  0.6179
   94ccc     H3 2888   0.716   8.070   6.719  1.6097  2.3915  0.5856
   94ccc     H4 2889   0.576   8.170   6.686 -0.0008  0.5249 -0.3659
   94ccc     C3 2890   0.749   8.191   6.555  0.4786  0.0238  0.4489
   94ccc     H5 2891   0.703   8.216   6.459  1.0175 -4.0772 -1.0693
   94ccc     H6 2892   0.836   8.133   6.524 -0.4796 -0.8514 -0.6929
   94ccc     N1 2893   0.794   8.313   6.631  0.0775  0.1700  0.7126
   94ccc     C4 2894   0.888   8.299   6.748  0.1979 -0.8865  0.2288
   94ccc     H7 2895   0.836   8.234   6.818  1.2384 -1.3644  0.5788
   94ccc     H8 2896   0.914   8.398   6.787 -3.3420 -0.4230  1.7689
   94ccc     C5 2897   1.026   8.238   6.715 -0.2523 -0.0594  0.2933
   94ccc     H9 2898   1.016   8.137   6.673  2.0614 -0.1699 -0.1010
   94ccc    H10 2899   1.068   8.306   6.640  1.4225 -2.1965 -0.8123
   94ccc     C6 2900   1.109   8.231   6.846 -0.4981 -0.4379 -0.0703
   94ccc     O1 2901   1.056   8.223   6.958  0.1564  0.5959 -0.2797
   94ccc     O2 2902   1.239   8.252   6.835 -0.0481  0.5485  0.1994
   94ccc    H11 2903   1.257   8.255   6.740 -2.8308  1.0284 -0.4038
   94ccc     C7 2904   0.848   8.428   6.534  0.5298  0.5444  0.6545
   94ccc    H12 2905   0.938   8.386   6.490 -0.5156 -1.1645  0.0792
   94ccc    H13 2906   0.774   8.429   6.454 -0.2587  1.5592  1.3658
   94ccc     C8 2907   0.871   8.576   6.575  0.4889 -0.3472  0.4006
   94ccc    H14 2908   0.784   8.614   6.629 -0.0706 -1.5273  0.3685
   94ccc    H15 2909   0.961   8.582   6.638 -1.0865  2.1353  2.6271
   94ccc     C9 2910   0.910   8.663   6.455  0.0634 -0.2454 -0.2606
   94ccc     O3 2911   0.927   8.612   6.343  0.1820 -0.1413  0.2074
   94ccc     O4 2912   0.917   8.798   6.478 -0.4840 -0.3280 -0.1023
   94ccc    H16 2913   0.912   8.821   6.572 -2.6218  0.9409 -0.4771
   94ccc     O5 2914   0.511   7.918   6.672  0.0861  0.8197 -0.4267
   94ccc    H17 2915   0.707   8.352   6.672  0.3119  1.5245  0.0034
   95SOL     OW 2916   5.666   3.452   0.818 -0.0385 -0.3238  0.2060
   95SOL    HW1 2917   5.577   3.465   0.786 -0.3243 -0.1478  1.0468
   95SOL    HW2 2918   5.655   3.409   0.903  0.6303  0.6317  0.7995
   96SOL     OW 2919   2.334   6.810   6.491  0.2429  0.4150  0.4835
   96SOL    HW1 2920   2.345   6.747   6.419 -2.9486  0.0881  0.1405
   96SOL    HW2 2921   2.326   6.755   6.569  1.9863  0.6853  0.8816
   97SOL     OW 2922   6.567   3.522   5.444 -0.0327 -0.1388  0.0005
   97SOL    HW1 2923   6.620   3.444   5.462 -0.2188 -0.2035  0.2694
   97SOL    HW2 2924   6.478   3.489   5.437  0.2288 -0.4179 -3.0041
   98SOL     OW 2925   2.662   6.429   6.892 -1.0505  0.1736  0.0731
   98SOL    HW1 2926   2.716   6.417   6.970 -2.3481  0.7638  1.1052
   98SOL    HW2 2927   2.710   6.492   6.838 -0.1339 -0.2482  0.3960
   99SOL     OW 2928   4.323   2.285   0.412  0.0613  0.3120 -0.5161
   99SOL    HW1 2929   4.389   2.319   0.351 -0.0269 -0.4785 -1.0701
   99SOL    HW2 2930   4.263   2.358   0.425  1.6156  1.4031  0.8534
  100SOL     OW 2931   7.861   3.912   5.356  0.4799  0.3886  0.2590
  100SOL    HW1 2932   7.835   3.974   5.424  0.9617  0.5108  0.3334
  100SOL    HW2 2933   7.875   3.966   5.279  0.3260  0.2971  0.1650
  101SOL     OW 2934   4.913   9.972   0.140 -0.3414 -0.0345 -0.6242
  101SOL    HW1 2935   4.912   9.949   0.234  1.3817 -0.0667 -0.5911
  101SOL    HW2 2936   4.921   9.888   0.096 -1.6775 -0.0673 -0.8622
  102SOL     OW 2937   6.299   5.852   1.274  0.2087  0.0036 -0.5247
  102SOL    HW1 2938   6.327   5.762   1.258 -1.1507 -0.5919  0.3009
  102SOL    HW2 2939   6.375   5.895   1.312  1.3784 -0.3505 -2.3505
  103SOL     OW 2940   6.058   6.002   1.163  0.0781  0.3259 -0.3874
  103SOL    HW1 2941   6.122   5.940   1.199 -0.2518  0.6752  0.8636
  103SOL    HW2 2942   6.047   5.975   1.072  0.5112 -0.9813 -0.0793
  104SOL     OW 2943   3.729   5.761   3.241  0.0111  0.4306  0.2569
  104SOL    HW1 2944   3.742   5.727   3.329 -2.0470  0.6805  0.7136
  104SOL    HW2 2945   3.787   5.837   3.236 -1.4604  1.8030  2.2795
  105SOL     OW 2946   8.240   2.858   1.313 -0.1311 -0.1179 -0.2947
  105SOL    HW1 2947   8.235   2.907   1.231  0.0781  0.7896  0.2271
  105SOL    HW2 2948   8.179   2.902   1.371 -2.8565 -2.7437 -0.9378
  106SOL     OW 2949   9.944   6.195   4.255  0.5164 -0.1268 -0.0990
  106SOL    HW1 2950   9.909   6.284   4.247 -1.3174 -0.8613 -0.9328
  106SOL    HW2 2951   9.895   6.144   4.190  1.4173 -1.7772  0.4490
  107SOL     OW 2952   8.787   0.555   0.905  0.7870 -0.3992  0.5901
  107SOL    HW1 2953   8.772   0.628   0.845 -0.7233 -0.3791  0.9428
  107SOL    HW2 2954   8.808   0.481   0.849  0.7795 -0.0485  0.1212
  108SOL     OW 2955   1.754   7.969   3.867 -0.2972 -0.3517 -0.3119
  108SOL    HW1 2956   1.779   7.877   3.868 -0.4554 -0.3998 -0.7300
  108SOL    HW2 2957   1.825   8.013   3.822  0.9329  0.0832  1.9041
  109SOL     OW 2958   8.384   0.988   1.124 -0.6393  0.2909 -0.0899
  109SOL    HW1 2959   8.315   0.935   1.086 -0.8417 -0.3243  1.0840
  109SOL    HW2 2960   8.438   0.925   1.173 -0.8202  1.1315  1.2322
  110SOL     OW 2961   7.530   0.344   7.359  0.2373  0.6181  0.2124
  110SOL    HW1 2962   7.557   0.308   7.444 -0.8320  2.5381  1.4221
  110SOL    HW2 2963   7.501   0.433   7.378 -3.0701  0.1053 -1.6286
  111SOL     OW 2964   4.581   5.715   2.369 -0.2578  0.0704 -0.6669
  111SOL    HW1 2965   4.522   5.741   2.440  0.3281  1.7371 -0.7291
  111SOL    HW2 2966   4.650   5.782   2.370  0.5159 -0.6632 -1.9168
  112SOL     OW 2967   3.991   2.052   2.683 -0.0268  0.5560  0.2325
  112SOL    HW1 2968   3.987   1.967   2.725  1.1238 -1.8188 -3.9346
  112SOL    HW2 2969   4.077   2.087   2.705 -0.0897  0.1588  1.1160
  113SOL     OW 2970   1.227   5.348   8.187 -0.1723 -0.1388  0.9504
  113SOL    HW1 2971   1.158   5.282   8.185 -2.8181  2.4271 -1.1143
  113SOL    HW2 2972   1.256   5.355   8.096  2.0825 -0.3336  1.5937
  114SOL     OW 2973   6.823   3.686   4.312  0.2714 -0.0029  0.2103
  114SOL    HW1 2974   6.759   3.657   4.246 -0.9560  0.3594  1.2120
  114SOL    HW2 2975   6.809   3.780   4.319 -0.3660 -0.1792  1.7260
  115SOL     OW 2976   8.059   1.760   8.706  0.8557  0.3647  0.2497
  115SOL    HW1 2977   7.991   1.797   8.650  1.0334 -2.7204 -2.2362
  115SOL    HW2 2978   8.137   1.811   8.684  0.7043 -0.1588 -1.6997
  116SOL     OW 2979   2.005   6.337   4.863  0.2776 -0.1074 -0.2235
  116SOL    HW1 2980   1.961   6.257   4.835  0.6047 -0.9535  1.5472
  116SOL    HW2 2981   2.086   6.306   4.904  1.5535  1.2869 -1.5669
  117SOL     OW 2982   6.075   6.605   0.134 -0.0654  0.5949  0.1236
  117SOL    HW1 2983   6.024   6.623   0.055  0.1121  0.6092  0.0116
  117SOL    HW2 2984   6.163   6.635   0.113 -0.4694  2.5693  1.0836
  118SOL     OW 2985   0.910   6.055   6.547 -0.3187  0.4480  0.2120
  118SOL    HW1 2986   0.836   6.115   6.552 -0.7726 -0.1716  1.1911
  118SOL    HW2 2987   0.931   6.035   6.638  1.2864  0.8847 -0.0369
  119SOL     OW 2988   1.201   6.796   9.557  0.0043  0.2411  0.6596
  119SOL    HW1 2989   1.243   6.826   9.476  0.3085 -1.2877  0.2278
  119SOL    HW2 2990   1.108   6.808   9.541 -0.1974 -2.7042 -1.1405
  120SOL     OW 2991   0.240  10.296   0.846  0.2001  0.2463  0.1376
  120SOL    HW1 2992   0.159  10.346   0.854  0.9662  2.1508 -2.6792
  120SOL    HW2 2993   0.213  10.205   0.860 -2.4632  0.8159 -0.7708
  121SOL     OW 2994   9.072   4.252   5.003  0.2439  0.4954  0.1077
  121SOL    HW1 2995   9.114   4.323   4.955  1.8049  0.5064  1.4044
  121SOL    HW2 2996   9.140   4.185   5.012 -0.9762 -0.8593 -0.4455
  122SOL     OW 2997   0.969   7.049   2.424  0.2395  0.5878 -0.1610
  122SOL    HW1 2998   0.983   7.013   2.511 -0.2935 -0.6684 -0.5607
  122SOL    HW2 2999   0.953   6.972   2.369  0.4150  1.3663 -1.3322
  123SOL     OW 3000   5.739   4.912   8.636 -0.9151 -0.1153 -0.2618
  123SOL    HW1 3001   5.655   4.866   8.628 -1.1366 -0.0023  1.1088
  123SOL    HW2 3002   5.729   4.966   8.715  1.1339 -1.6437  1.1577
  124SOL     OW 3003   9.245   5.126   0.383  0.0119  0.3708  0.1800
  124SOL    HW1 3004   9.186   5.193   0.418  1.1648  0.2224  2.5678
  124SOL    HW2 3005   9.255   5.063   0.455  2.8990  0.2710 -0.2132
  125SOL     OW 3006   4.826   2.725   0.683 -0.3882 -0.0868  0.2620
  125SOL    HW1 3007   4.817   2.819   0.666  0.0058 -0.0936  0.0145
  125SOL    HW2 3008   4.910   2.716   0.727 -0.7452 -0.2457  0.9337
  126SOL     OW 3009   1.844   2.841   3.798 -0.0304 -0.6708  0.1344
  126SOL    HW1 3010   1.886   2.901   3.860 -0.3288 -0.6923  0.3619
  126SOL    HW2 3011   1.916   2.790   3.762  0.1985 -0.3441  0.1216
  127SOL     OW 3012   3.209   4.709   2.590  0.2565  0.3689  0.3772
  127SOL    HW1 3013   3.192   4.741   2.502  2.4362 -0.7670 -0.5411
  127SOL    HW2 3014   3.239   4.786   2.638 -1.1015  1.0290  0.1858
  128SOL     OW 3015   9.245   2.301   1.973 -0.0436 -0.3183  0.1978
  128SOL    HW1 3016   9.332   2.325   1.939  0.3627  1.9408  2.5261
  128SOL    HW2 3017   9.198   2.268   1.896  1.8314  1.4296 -1.8604
  129SOL     OW 3018   5.044   6.545   7.093 -0.1196  0.3808 -0.2294
  129SOL    HW1 3019   5.003   6.509   7.172  0.0699  0.2066 -0.2095
  129SOL    HW2 3020   5.134   6.511   7.096 -0.1585  0.2446 -0.6019
  130SOL     OW 3021   8.785   6.022   6.464 -0.1354 -0.2021  0.1077
  130SOL    HW1 3022   8.741   5.945   6.500 -0.4205 -0.3576 -0.5500
  130SOL    HW2 3023   8.835   6.058   6.537 -0.4692 -0.6724  0.5738
  131SOL     OW 3024   6.222   3.777   1.997  0.0425 -0.4584  0.1212
  131SOL    HW1 3025   6.215   3.872   1.986  2.6034 -0.2716 -0.4625
  131SOL    HW2 3026   6.176   3.759   2.079 -1.5624  1.0773 -0.3801
  132SOL     OW 3027   6.398   7.312   0.083  0.0551 -0.6647 -0.1758
  132SOL    HW1 3028   6.405   7.383   0.019  1.7878 -1.0479 -0.4577
  132SOL    HW2 3029   6.399   7.356   0.168  0.6564 -0.3181 -0.3578
  133SOL     OW 3030   4.839   0.817   3.871  0.5190 -0.5477 -0.1047
  133SOL    HW1 3031   4.933   0.825   3.859  0.5250 -2.3082 -1.7177
  133SOL    HW2 3032   4.829   0.740   3.928  0.0569 -0.2310  0.2476
  134SOL     OW 3033   6.709   6.578   9.685 -1.0636 -0.0347  0.0452
  134SOL    HW1 3034   6.726   6.517   9.614  1.0239  1.0431 -0.4436
  134SOL    HW2 3035   6.795   6.602   9.718 -1.7064  3.3175 -0.3889
  135SOL     OW 3036   4.974   8.399   9.148 -0.2908 -0.4866 -0.1153
  135SOL    HW1 3037   4.963   8.475   9.205 -0.7717 -0.7073  0.0935
  135SOL    HW2 3038   4.965   8.324   9.206  0.8860 -0.7063 -0.1936
  136SOL     OW 3039   8.447   7.151   3.154  0.2141  0.7408  0.6016
  136SOL    HW1 3040   8.531   7.199   3.156 -1.0195  3.1008  0.0724
  136SOL    HW2 3041   8.456   7.091   3.080  0.6480  2.6514 -0.9956
  137SOL     OW 3042   0.523   0.504   0.091  0.0942  0.1512 -0.1083
  137SOL    HW1 3043   0.605   0.456   0.094 -0.5957 -1.0815 -0.2401
  137SOL    HW2 3044   0.470   0.465   0.161  0.2424  2.1624  1.2087
  138SOL     OW 3045   1.401   0.833   3.013 -0.4563  0.3623  0.1315
  138SOL    HW1 3046   1.488   0.814   3.049 -0.7054 -0.5100  0.2875
  138SOL    HW2 3047   1.400   0.789   2.928 -0.2815  1.4697 -0.4607
  139SOL     OW 3048   5.531   8.059   5.627  0.1125 -0.3304 -0.1996
  139SOL    HW1 3049   5.460   8.002   5.656  0.1240 -0.0628  0.3718
  139SOL    HW2 3050   5.487   8.138   5.596  0.1372 -0.3494 -0.2845
  140SOL     OW 3051   8.320   9.824   4.208 -0.2437 -0.7531  0.0045
  140SOL    HW1 3052   8.396   9.880   4.195 -0.4778  0.1173  2.1173
  140SOL    HW2 3053   8.264   9.842   4.132  0.3588  0.7358 -0.1066
  141SOL     OW 3054   7.663   9.273   1.348 -0.0511  0.5666 -0.2281
  141SOL    HW1 3055   7.618   9.305   1.269 -0.0188  0.8755 -0.1180
  141SOL    HW2 3056   7.613   9.195   1.373  0.5617 -0.1470 -1.1567
  142SOL     OW 3057   2.827   3.823   9.211  0.4492 -0.0547  0.0450
  142SOL    HW1 3058   2.792   3.890   9.152  0.7690 -0.7816 -0.9926
  142SOL    HW2 3059   2.756   3.760   9.221  0.6238 -0.2826 -0.1214
  143SOL     OW 3060   7.065   9.645   1.764 -0.2559 -0.3851 -0.0076
  143SOL    HW1 3061   7.100   9.715   1.819  0.0572 -0.2314 -0.3982
  143SOL    HW2 3062   7.107   9.565   1.796  0.6196 -0.1758 -0.6047
  144SOL     OW 3063   4.320   4.149   8.906 -0.0353  0.6495 -0.1771
  144SOL    HW1 3064   4.290   4.173   8.994 -0.5392  1.1681 -0.4769
  144SOL    HW2 3065   4.240   4.150   8.853  0.2657  0.3597 -0.6427
  145SOL     OW 3066   5.850   5.781  10.139  0.0987 -0.3733 -0.2862
  145SOL    HW1 3067   5.818   5.723  10.070  0.2985 -0.0152 -0.6881
  145SOL    HW2 3068   5.818   5.868  10.114 -0.7701 -0.3995  0.6628
  146SOL     OW 3069   1.717   0.114   5.590  0.0048  0.1286 -0.2441
  146SOL    HW1 3070   1.791   0.132   5.647  0.0894 -0.1093 -0.2776
  146SOL    HW2 3071   1.743   0.150   5.505 -0.2279  0.7138 -0.0725
  147SOL     OW 3072   4.063   6.914   3.991  0.0047  0.2504  0.2437
  147SOL    HW1 3073   4.123   6.989   3.985 -1.9046  1.8406  0.1230
  147SOL    HW2 3074   4.071   6.869   3.907 -0.3917  1.5787 -0.5215
  148SOL     OW 3075   5.974   4.390   4.394  0.6013  0.1370  0.2087
  148SOL    HW1 3076   5.959   4.309   4.344  2.7606  0.1983 -0.6359
  148SOL    HW2 3077   5.986   4.457   4.327 -2.3570  1.5205  0.8795
  149SOL     OW 3078   0.873   8.229   1.108  0.2422  0.2439 -0.1732
  149SOL    HW1 3079   0.795   8.248   1.055  0.6044 -0.0705 -0.8304
  149SOL    HW2 3080   0.854   8.269   1.193 -1.0008 -0.5564 -0.0440
  150SOL     OW 3081   6.722   7.858   1.622  0.2482 -0.0361 -0.6192
  150SOL    HW1 3082   6.689   7.935   1.668  0.5679 -1.2027  1.7209
  150SOL    HW2 3083   6.644   7.808   1.600  0.1107  0.3433 -0.9981
  151SOL     OW 3084   7.554   7.504   8.159  0.2855 -0.5131 -0.8931
  151SOL    HW1 3085   7.520   7.545   8.080  0.7583 -0.4363 -1.0639
  151SOL    HW2 3086   7.484   7.447   8.190 -0.3868  0.4242 -0.6542
  152SOL     OW 3087   7.932   9.706   4.333 -0.0458 -0.8095  0.0221
  152SOL    HW1 3088   7.980   9.624   4.345 -0.0120 -0.8043 -0.0764
  152SOL    HW2 3089   7.929   9.745   4.421 -0.7988 -1.3193  0.2247
  153SOL     OW 3090   3.394   4.449   3.720  0.5102 -0.0761  0.3869
  153SOL    HW1 3091   3.398   4.401   3.802  1.4115 -0.1332  0.3182
  153SOL    HW2 3092   3.412   4.384   3.652 -1.4132 -0.2760  0.0289
  154SOL     OW 3093   7.807   5.352   9.321  0.1291  0.4902  0.5671
  154SOL    HW1 3094   7.810   5.260   9.347 -1.2111  0.3814  0.4096
  154SOL    HW2 3095   7.878   5.362   9.258 -0.8360 -0.9063 -0.8095
  155SOL     OW 3096   3.313   9.894   9.296  0.2063 -0.0456  0.6273
  155SOL    HW1 3097   3.311   9.801   9.317  0.3376 -0.1608  0.1651
  155SOL    HW2 3098   3.372   9.900   9.220 -0.0040  0.3770  0.4901
  156SOL     OW 3099   2.376   2.321   6.716 -0.4060 -0.2265  0.3437
  156SOL    HW1 3100   2.318   2.249   6.737 -0.5700  0.2376  1.5358
  156SOL    HW2 3101   2.416   2.345   6.799  0.3999  0.4086 -0.2090
  157SOL     OW 3102   7.173   3.298   9.093 -0.4099 -0.0806 -0.0213
  157SOL    HW1 3103   7.166   3.309   8.998 -0.7793 -0.2419 -0.0148
  157SOL    HW2 3104   7.082   3.300   9.124 -0.2034  3.3635  0.7295
  158SOL     OW 3105   6.609   0.430   3.924 -0.2552 -0.7870  0.1545
  158SOL    HW1 3106   6.598   0.367   3.853  0.4999  0.0499 -0.7243
  158SOL    HW2 3107   6.700   0.459   3.917 -0.7047  0.7277  0.2616
  159SOL     OW 3108   4.622   1.915   7.049 -0.1303  0.1940  0.2445
  159SOL    HW1 3109   4.639   1.821   7.053 -0.6454  0.0051 -1.3190
  159SOL    HW2 3110   4.685   1.949   6.985 -0.1226  0.8720  0.5991
  160SOL     OW 3111   4.433   0.270   6.365  0.1098 -0.1748  0.3085
  160SOL    HW1 3112   4.381   0.277   6.445 -0.3276 -0.8522  0.0885
  160SOL    HW2 3113   4.494   0.199   6.381 -1.0403 -1.3905 -0.5298
  161SOL     OW 3114   3.763  10.001   6.378 -0.0077  0.3544 -0.4340
  161SOL    HW1 3115   3.728  10.090   6.371 -2.7944 -0.6374 -0.0654
  161SOL    HW2 3116   3.805   9.999   6.465 -0.8851  1.0097  0.0212
  162SOL     OW 3117   2.212   2.159   0.292 -0.5697 -0.0842 -0.2731
  162SOL    HW1 3118   2.272   2.233   0.295  0.3599 -0.8447  0.7081
  162SOL    HW2 3119   2.248   2.103   0.223 -0.8966  0.0529 -0.5607
  163SOL     OW 3120   2.862   3.352   8.873 -0.8991  0.1887 -0.3942
  163SOL    HW1 3121   2.944   3.384   8.912  0.4273 -2.1621 -1.0023
  163SOL    HW2 3122   2.853   3.403   8.792 -1.8340  2.7008  1.1818
  164SOL     OW 3123   8.733   2.719   7.321 -0.4703 -0.3325 -0.5245
  164SOL    HW1 3124   8.788   2.649   7.287 -0.1798  0.0660 -0.8923
  164SOL    HW2 3125   8.769   2.799   7.282  0.5309  0.2857  1.5181
  165SOL     OW 3126   2.415   8.750   7.180  0.0697 -0.5022 -0.0767
  165SOL    HW1 3127   2.439   8.674   7.126  2.2309  0.0665  0.0097
  165SOL    HW2 3128   2.359   8.803   7.123 -2.3952 -2.5836  0.1999
  166SOL     OW 3129   6.010   8.068   3.303 -0.4233  0.2824  0.2874
  166SOL    HW1 3130   5.946   8.035   3.366 -3.0069 -0.6434 -2.5466
  166SOL    HW2 3131   6.073   7.996   3.294  0.9878  1.0695  2.8631
  167SOL     OW 3132   5.922   7.014   1.251  0.0127 -0.1507  0.1747
  167SOL    HW1 3133   5.913   6.966   1.334  0.0718 -1.0762 -0.3374
  167SOL    HW2 3134   5.936   7.105   1.277 -0.7792 -0.2995  1.1647
  168SOL     OW 3135   8.408   3.515   4.052 -0.4106  0.0663 -0.2829
  168SOL    HW1 3136   8.421   3.441   3.993 -1.5841  0.6387 -1.3085
  168SOL    HW2 3137   8.401   3.476   4.139  1.4378 -0.7955 -0.4800
  169SOL     OW 3138   8.403   5.335   6.786  0.2644  0.0082 -0.2691
  169SOL    HW1 3139   8.390   5.421   6.825  1.3551 -0.2357  0.6658
  169SOL    HW2 3140   8.434   5.353   6.697 -2.1755  0.5630 -1.1014
  170SOL     OW 3141   6.369   8.007   6.394 -0.0723 -0.0157 -0.3987
  170SOL    HW1 3142   6.404   7.922   6.421  0.4049  0.3118  0.0146
  170SOL    HW2 3143   6.323   8.039   6.472  0.4740  0.4875 -0.2810
  171SOL     OW 3144   2.865   2.356   0.101  0.3218 -0.9000 -0.0284
  171SOL    HW1 3145   2.772   2.339   0.117 -0.3217  2.3054  0.2711
  171SOL    HW2 3146   2.888   2.423   0.165  2.1564  0.1981 -1.7423
  172SOL     OW 3147   8.549   6.248   0.162  0.0248 -0.1997  0.2009
  172SOL    HW1 3148   8.575   6.187   0.093  2.2291 -1.2396  1.8058
  172SOL    HW2 3149   8.612   6.320   0.156 -1.5778  1.1865 -0.6572
  173SOL     OW 3150   1.764   3.186  10.099  0.4060 -0.4867  0.8098
  173SOL    HW1 3151   1.724   3.248  10.159 -1.4058  0.0808 -0.8711
  173SOL    HW2 3152   1.712   3.192  10.019  1.5907 -2.5067 -0.2238
  174SOL     OW 3153   7.653   7.155   5.433  0.5857  1.1686  0.2359
  174SOL    HW1 3154   7.558   7.156   5.427  0.6014  1.4156 -0.0022
  174SOL    HW2 3155   7.682   7.220   5.368  0.9193  1.0134  0.2275
  175SOL     OW 3156   4.415   0.144   7.875 -0.2471 -0.1983 -0.0694
  175SOL    HW1 3157   4.350   0.114   7.939  0.4250 -1.2887  0.1178
  175SOL    HW2 3158   4.376   0.123   7.790 -0.9004  0.7597 -0.0300
  176SOL     OW 3159   8.089   2.307   2.278  0.4791 -0.1568 -0.1434
  176SOL    HW1 3160   8.054   2.218   2.284  0.7746 -0.2041  1.2457
  176SOL    HW2 3161   8.165   2.299   2.220  1.4308 -1.1323  1.1866
  177SOL     OW 3162   4.879   2.048   4.635  1.5628 -0.0080 -0.6448
  177SOL    HW1 3163   4.887   2.006   4.550  3.0608 -1.5191  0.1777
  177SOL    HW2 3164   4.860   2.140   4.615 -0.2875 -0.7311 -2.5254
  178SOL     OW 3165   2.491   6.707   3.323  0.1858  0.5578 -0.4904
  178SOL    HW1 3166   2.460   6.659   3.246  0.8536  0.5216 -0.7432
  178SOL    HW2 3167   2.413   6.716   3.378  0.0608 -0.9020 -0.3895
  179SOL     OW 3168   1.188   4.324   8.226 -0.0959 -0.2488 -0.8262
  179SOL    HW1 3169   1.232   4.389   8.171  1.1560 -0.9212 -0.6467
  179SOL    HW2 3170   1.226   4.241   8.199 -1.4735 -0.8951 -0.8463
  180SOL     OW 3171   1.199   2.227   2.371  0.3588  0.1304 -0.6777
  180SOL    HW1 3172   1.235   2.192   2.289 -0.0014  1.8208 -1.5972
  180SOL    HW2 3173   1.108   2.247   2.351  0.6610  1.9823 -0.3406
  181SOL     OW 3174   0.988   7.634   9.213  0.5464  0.6613  0.0353
  181SOL    HW1 3175   1.066   7.581   9.196  0.1060  0.3344 -1.0005
  181SOL    HW2 3176   0.917   7.570   9.224  0.0099  1.0104 -1.2165
  182SOL     OW 3177   1.515   3.508   8.594  0.4540 -0.2866 -0.2868
  182SOL    HW1 3178   1.471   3.492   8.678  1.4183  0.4596  0.3676
  182SOL    HW2 3179   1.608   3.506   8.614  0.8988 -3.3995 -1.9208
  183SOL     OW 3180   7.495   8.887   4.103  0.2545  0.0131  0.3598
  183SOL    HW1 3181   7.402   8.889   4.125 -0.2924 -0.1437 -1.7855
  183SOL    HW2 3182   7.504   8.946   4.029  1.9008  0.0860  0.5725
  184SOL     OW 3183   5.244   0.574   3.425  0.2200 -0.6021 -0.3213
  184SOL    HW1 3184   5.261   0.500   3.483 -0.3596 -1.2889 -1.0067
  184SOL    HW2 3185   5.163   0.613   3.458  0.6577 -0.1118  0.1901
  185SOL     OW 3186   9.756   5.904   9.128  0.7315  0.3860 -0.4365
  185SOL    HW1 3187   9.784   5.815   9.147 -0.3166  0.1946  0.2495
  185SOL    HW2 3188   9.784   5.955   9.204 -2.5177 -0.1866  1.2969
  186SOL     OW 3189   4.358   8.383   3.927 -0.4086  0.3599 -0.2077
  186SOL    HW1 3190   4.364   8.413   3.836 -3.4528 -0.5799 -0.8329
  186SOL    HW2 3191   4.446   8.352   3.948  0.2697  0.1117 -3.0096
  187SOL     OW 3192   2.127   3.147  10.036 -0.2079 -0.0743 -0.0538
  187SOL    HW1 3193   2.080   3.196   9.969  1.3011  0.1685 -0.9709
  187SOL    HW2 3194   2.104   3.190  10.118 -1.9468 -0.2721 -0.4077
  188SOL     OW 3195   1.802   8.979   5.649 -0.4392 -0.3437 -0.0991
  188SOL    HW1 3196   1.849   8.899   5.671 -1.4773 -1.1893 -0.8343
  188SOL    HW2 3197   1.840   9.046   5.706  0.5707 -1.3118  0.4056
  189SOL     OW 3198   8.572   6.201   3.129 -0.2540 -0.2262  0.2506
  189SOL    HW1 3199   8.540   6.151   3.054 -1.1359 -0.9705  1.0846
  189SOL    HW2 3200   8.518   6.171   3.202 -0.4107  1.5550  0.9036
  190SOL     OW 3201   1.273   9.248   6.313  0.3655 -0.3993 -0.0263
  190SOL    HW1 3202   1.218   9.310   6.361  0.4986  1.5848 -2.2067
  190SOL    HW2 3203   1.344   9.227   6.374  0.5206  1.9468  0.7284
  191SOL     OW 3204   8.986   6.793   9.412  0.0786 -0.0217 -0.1268
  191SOL    HW1 3205   8.892   6.805   9.397  0.3493  2.2837 -0.3937
  191SOL    HW2 3206   9.000   6.699   9.400 -1.9224 -0.2119 -1.6727
  192SOL     OW 3207   7.299   4.326   8.306  0.1414 -0.6781  0.2427
  192SOL    HW1 3208   7.208   4.299   8.300 -0.0594  0.2671 -1.6544
  192SOL    HW2 3209   7.296   4.414   8.345  0.3572 -1.0691  1.1821
  193SOL     OW 3210   4.094  10.214   8.744 -0.4248  0.0286  0.0665
  193SOL    HW1 3211   4.085  10.307   8.724 -2.8051 -0.3966 -1.1321
  193SOL    HW2 3212   4.092  10.210   8.840 -2.2790  1.1013  0.1278
  194SOL     OW 3213   0.248   6.419   7.678  0.4169  0.9887 -0.2614
  194SOL    HW1 3214   0.236   6.361   7.604 -2.0414  1.4930 -0.3253
  194SOL    HW2 3215   0.336   6.456   7.666  0.6516 -0.0740 -2.0729
  195SOL     OW 3216   6.868   5.489   0.398 -0.0262 -0.4775 -0.3124
  195SOL    HW1 3217   6.829   5.490   0.486  0.0332 -0.9741 -0.2779
  195SOL    HW2 3218   6.897   5.579   0.384 -1.9114  0.1280 -0.6710
  196SOL     OW 3219   1.596   4.145   3.550 -0.0809  0.2605  0.3612
  196SOL    HW1 3220   1.688   4.148   3.525 -0.4235  3.2502 -0.9478
  196SOL    HW2 3221   1.596   4.138   3.645  1.4621 -0.1975  0.3475
  197SOL     OW 3222   2.734   4.162   2.061  0.1995 -0.3455  0.3092
  197SOL    HW1 3223   2.660   4.212   2.096 -0.1124  1.0997 -2.1361
  197SOL    HW2 3224   2.808   4.222   2.064  0.4805 -0.6551 -0.2125
  198SOL     OW 3225   9.506  10.126   5.504 -0.9265 -0.1528  0.2390
  198SOL    HW1 3226   9.557  10.111   5.584 -0.3686  0.8489  0.0779
  198SOL    HW2 3227   9.468  10.213   5.516  0.2341  0.5937 -1.1422
  199SOL     OW 3228   7.123   9.121   7.765  0.3855 -0.1543  0.3161
  199SOL    HW1 3229   7.184   9.179   7.809 -0.8583  3.3340 -2.1226
  199SOL    HW2 3230   7.178   9.068   7.707  1.3801  0.0557  1.0507
  200SOL     OW 3231   2.052   0.915   5.173 -0.0300  0.2057 -0.1079
  200SOL    HW1 3232   2.060   0.925   5.078  2.8335 -0.6855 -0.0581
  200SOL    HW2 3233   2.128   0.863   5.198 -1.4868 -0.8523  2.5354
  201SOL     OW 3234   0.752   8.694   8.865  0.2735 -0.3730  0.2417
  201SOL    HW1 3235   0.842   8.696   8.895  0.4052 -1.0661 -0.0912
  201SOL    HW2 3236   0.700   8.677   8.943  0.4395 -0.0620  0.4183
  202SOL     OW 3237   1.329   5.303   3.474  0.1846 -0.1772 -0.2056
  202SOL    HW1 3238   1.344   5.226   3.420  0.6483 -0.8623  0.8724
  202SOL    HW2 3239   1.296   5.369   3.413  0.5008 -0.9848 -1.2775
  203SOL     OW 3240   7.174  10.144   4.871  0.2303 -0.6026 -0.5526
  203SOL    HW1 3241   7.256  10.146   4.822  0.4531  0.7192 -0.1692
  203SOL    HW2 3242   7.172  10.227   4.918 -1.4489 -0.5086 -0.7330
  204SOL     OW 3243   8.940   6.315   5.102  0.1309  0.1502  0.5007
  204SOL    HW1 3244   8.861   6.290   5.150 -0.3085  1.5581  0.5548
  204SOL    HW2 3245   8.957   6.405   5.128  2.5288 -0.4986  1.4814
  205SOL     OW 3246   9.421   3.914   3.892  0.1247 -0.0291  0.4074
  205SOL    HW1 3247   9.484   3.858   3.848 -0.0775 -0.2746  0.4262
  205SOL    HW2 3248   9.376   3.960   3.821 -0.2801 -0.5079  0.3410
  206SOL     OW 3249   4.491   1.409   7.588 -0.5761 -0.3498 -0.1789
  206SOL    HW1 3250   4.415   1.432   7.535  0.8360  0.2017 -2.0460
  206SOL    HW2 3251   4.521   1.325   7.553  0.5693  0.1817 -0.5190
  207SOL     OW 3252   2.153   8.637   1.295  0.1758  0.0507 -0.5031
  207SOL    HW1 3253   2.082   8.701   1.287  0.6972  0.5600 -1.2885
  207SOL    HW2 3254   2.222   8.684   1.341 -0.1535 -0.5972  0.6974
  208SOL     OW 3255   0.564   5.607   6.522  0.4211 -0.1896  0.2664
  208SOL    HW1 3256   0.612   5.618   6.440  0.2164 -0.2402  0.1394
  208SOL    HW2 3257   0.618   5.649   6.588 -0.0673  1.0701 -0.1169
  209SOL     OW 3258   8.054   2.163   4.662  0.6727  0.0101 -0.7128
  209SOL    HW1 3259   8.013   2.172   4.576  0.8433  0.5063 -0.7448
  209SOL    HW2 3260   8.028   2.242   4.710 -0.4578 -0.8368  0.1406
  210SOL     OW 3261   9.810   2.545  10.057  0.3894 -0.4074  0.2569
  210SOL    HW1 3262   9.895   2.587  10.070  0.5220 -0.3514 -0.7389
  210SOL    HW2 3263   9.828   2.452  10.069  0.3931 -0.3195  0.9874
  211SOL     OW 3264   4.873   2.399   1.766  0.0105  0.0045  0.3324
  211SOL    HW1 3265   4.788   2.442   1.756 -0.2675 -0.8551 -1.4876
  211SOL    HW2 3266   4.857   2.309   1.738  1.2820 -0.4676  1.0501
  212SOL     OW 3267   1.509   9.941   3.940  0.3135 -0.0187  0.2642
  212SOL    HW1 3268   1.507   9.979   3.853  2.2978  0.5778  0.4200
  212SOL    HW2 3269   1.435   9.981   3.986 -0.8141 -0.4189 -1.1365
  213SOL     OW 3270   5.386   0.395   8.365 -0.3320  0.0875 -0.5000
  213SOL    HW1 3271   5.447   0.461   8.333 -0.3866  1.4431  1.8933
  213SOL    HW2 3272   5.299   0.429   8.342 -0.3298  0.5748  0.1585
  214SOL     OW 3273   1.529   7.342   7.894  0.1401  0.3077  0.4144
  214SOL    HW1 3274   1.484   7.271   7.850 -0.3486  1.9526 -1.9066
  214SOL    HW2 3275   1.462   7.382   7.950  0.7408 -1.7216  2.7933
  215SOL     OW 3276   7.318   4.971   8.166  0.1720 -0.3395 -0.0011
  215SOL    HW1 3277   7.412   4.976   8.151  0.2775  0.1240  0.7734
  215SOL    HW2 3278   7.301   4.878   8.181  0.6629 -0.2992  0.8325
  216SOL     OW 3279   3.160   6.157   1.699  0.4776 -0.1977 -0.0737
  216SOL    HW1 3280   3.248   6.132   1.726  0.6028 -0.1470 -0.4385
  216SOL    HW2 3281   3.103   6.119   1.766  0.8115  0.2088  0.4474
  217SOL     OW 3282  10.009   7.591   0.403 -0.2397  0.7899 -0.2063
  217SOL    HW1 3283  10.053   7.507   0.414  1.4763  1.5550 -0.7602
  217SOL    HW2 3284   9.922   7.578   0.440  0.8460 -0.4876  2.1391
  218SOL     OW 3285   4.887   8.808   5.217  0.2514 -0.6159  0.1320
  218SOL    HW1 3286   4.977   8.804   5.251  0.7542 -1.4240 -1.1898
  218SOL    HW2 3287   4.873   8.900   5.197  0.5101 -0.3713  1.0229
  219SOL     OW 3288   0.867   0.106   8.198  0.6446 -0.2839  0.3001
  219SOL    HW1 3289   0.817   0.154   8.264 -0.7154 -2.6355  1.1361
  219SOL    HW2 3290   0.929   0.054   8.249  0.6121 -0.9971 -0.3658
  220SOL     OW 3291   5.732   6.190   4.448 -0.0269  0.2826 -0.1451
  220SOL    HW1 3292   5.686   6.137   4.513  0.0506 -1.4897 -1.4579
  220SOL    HW2 3293   5.691   6.167   4.365  0.6036  1.6542 -0.8714
  221SOL     OW 3294   6.940   2.770   1.704 -0.1043  0.1930  0.8403
  221SOL    HW1 3295   6.910   2.849   1.660 -1.4585 -0.0570  1.2532
  221SOL    HW2 3296   7.023   2.794   1.744 -0.5880  1.4787  1.1294
  222SOL     OW 3297   2.317   6.770   4.428 -0.1381 -0.8553  0.2661
  222SOL    HW1 3298   2.306   6.795   4.336 -1.6797 -1.9605  0.1108
  222SOL    HW2 3299   2.403   6.727   4.430  1.4232  2.0269  0.0578
  223SOL     OW 3300   3.483   0.548   6.881 -0.3944 -0.5083  0.0513
  223SOL    HW1 3301   3.560   0.561   6.825 -0.3286 -1.6036 -0.1358
  223SOL    HW2 3302   3.466   0.634   6.919  1.0815 -0.2827  0.2810
  224SOL     OW 3303   8.024   5.946   5.343  0.6322  0.4669  0.6773
  224SOL    HW1 3304   8.105   5.899   5.324 -0.0876 -1.4367  2.0779
  224SOL    HW2 3305   7.956   5.897   5.297  0.2763  2.4951 -1.1501
  225SOL     OW 3306   4.376   5.532   6.264  0.4157 -0.0173 -0.3628
  225SOL    HW1 3307   4.339   5.610   6.305  0.3279  0.4616 -1.3267
  225SOL    HW2 3308   4.455   5.513   6.314  0.1688  0.3985  0.1887
  226SOL     OW 3309   9.198   8.741   5.367  1.4018  0.2060 -0.1146
  226SOL    HW1 3310   9.258   8.677   5.404  1.5371  0.1500 -0.4297
  226SOL    HW2 3311   9.158   8.696   5.292  2.8383  1.0853 -1.4644
  227SOL     OW 3312   4.916   4.134   2.084  0.3686  0.2328 -0.2562
  227SOL    HW1 3313   4.852   4.079   2.129  0.6726 -1.2740 -1.5703
  227SOL    HW2 3314   4.866   4.211   2.057 -0.0027  0.8105  1.8571
  228SOL     OW 3315   0.836   8.432  10.322  0.2472  0.4747 -0.0629
  228SOL    HW1 3316   0.788   8.349  10.324  1.0773 -0.0339 -0.7299
  228SOL    HW2 3317   0.772   8.497  10.352 -0.4434 -0.3843  0.3694
  229SOL     OW 3318   8.735   4.668   9.287  0.1796 -0.1542 -1.0152
  229SOL    HW1 3319   8.671   4.624   9.233  0.8551 -1.3948 -0.8364
  229SOL    HW2 3320   8.683   4.719   9.349 -0.6199 -0.6003 -1.3083
  230SOL     OW 3321   3.715   4.885   9.634  0.4073 -0.5185  0.1519
  230SOL    HW1 3322   3.786   4.915   9.578  0.8431 -1.3881  0.2134
  230SOL    HW2 3323   3.749   4.804   9.674  0.1200  0.0928  1.6826
  231SOL     OW 3324   6.342   5.258  10.282 -0.2067  0.3015  0.0699
  231SOL    HW1 3325   6.308   5.269  10.371  0.4573 -2.0442  0.6942
  231SOL    HW2 3326   6.327   5.165  10.263  0.2275  0.6241 -2.0502
  232SOL     OW 3327   5.578   6.992   5.291  0.5708  0.0937 -0.1408
  232SOL    HW1 3328   5.499   7.046   5.278 -0.1541 -0.7789  0.5326
  232SOL    HW2 3329   5.548   6.918   5.342  1.4809 -1.1517 -1.3474
  233SOL     OW 3330   0.203   6.413   0.265 -0.2705  0.5586  0.0162
  233SOL    HW1 3331   0.120   6.437   0.222 -0.6702  1.8557  1.4228
  233SOL    HW2 3332   0.254   6.494   0.265  1.2408 -0.3355 -1.2482
  234SOL     OW 3333   5.686   7.128   1.120  0.3900  0.4515 -0.2465
  234SOL    HW1 3334   5.622   7.128   1.191  1.7376  0.4345  1.0069
  234SOL    HW2 3335   5.763   7.083   1.156  0.1108 -2.2799 -2.6866
  235SOL     OW 3336   7.377   7.366   2.471  0.2696  0.6492  0.2154
  235SOL    HW1 3337   7.444   7.308   2.507  1.1901  1.1133 -0.6678
  235SOL    HW2 3338   7.398   7.452   2.508  0.9915  1.0532 -1.0792
  236SOL     OW 3339   9.238   8.700   6.187 -0.1802  0.1158 -0.3820
  236SOL    HW1 3340   9.156   8.655   6.164  0.1533  0.2302 -1.8974
  236SOL    HW2 3341   9.237   8.780   6.134  0.6063  0.4582  0.1014
  237SOL     OW 3342   5.583   6.016   2.657  0.0091 -0.8754  0.5369
  237SOL    HW1 3343   5.550   6.039   2.570  0.5756  0.3461  0.6205
  237SOL    HW2 3344   5.673   5.987   2.642  1.0063  1.7136  0.9065
  238SOL     OW 3345   0.158   2.159   5.112  0.2099 -0.2637 -0.1912
  238SOL    HW1 3346   0.176   2.235   5.167 -0.6954 -1.0508  1.2264
  238SOL    HW2 3347   0.105   2.101   5.166 -1.2461 -0.8158 -2.0884
  239SOL     OW 3348   1.091   4.382   5.402 -0.2588  0.1473 -0.2424
  239SOL    HW1 3349   1.101   4.386   5.497  0.2206 -1.1300 -0.2206
  239SOL    HW2 3350   1.154   4.446   5.368 -0.2300  0.4009  0.2948
  240SOL     OW 3351   4.174   2.904   2.338  0.6616  0.0068 -0.2640
  240SOL    HW1 3352   4.128   2.822   2.357  0.4836 -0.4396 -2.3637
  240SOL    HW2 3353   4.107   2.971   2.339  0.6161 -0.0417  0.3374
  241SOL     OW 3354   0.686   8.472   4.156  0.4890  0.4127  0.1724
  241SOL    HW1 3355   0.763   8.524   4.132 -0.0068  1.9976  1.8477
  241SOL    HW2 3356   0.612   8.522   4.122  0.1483 -1.3949 -1.9433
  242SOL     OW 3357  10.153   7.810   2.037  0.1648  0.0309 -0.2771
  242SOL    HW1 3358  10.088   7.772   1.978 -1.1326  1.1579  0.3655
  242SOL    HW2 3359  10.213   7.858   1.979 -0.5492  0.3443 -0.7731
  243SOL     OW 3360   2.307   6.235   6.683 -0.0481  0.1825 -0.0875
  243SOL    HW1 3361   2.306   6.142   6.707  0.3801 -0.0327 -0.8716
  243SOL    HW2 3362   2.268   6.280   6.759 -1.1718 -0.7267 -0.1014
  244SOL     OW 3363   2.949   5.893   5.099 -0.0544  0.1932 -0.2355
  244SOL    HW1 3364   3.043   5.875   5.101 -0.0483  0.0381 -1.1385
  244SOL    HW2 3365   2.931   5.913   5.006 -0.8502  0.5452 -0.0160
  245SOL     OW 3366   7.520   8.567   0.780 -0.1669  0.6401  0.2555
  245SOL    HW1 3367   7.594   8.595   0.727 -0.4690 -1.1167 -1.1828
  245SOL    HW2 3368   7.525   8.472   0.780 -1.7372  0.5192  1.1429
  246SOL     OW 3369   8.382   3.501   0.495  0.2124  0.7596 -0.0484
  246SOL    HW1 3370   8.390   3.592   0.522  2.3172  0.6157  0.0307
  246SOL    HW2 3371   8.429   3.452   0.564 -0.2459 -0.2979 -0.4681
  247SOL     OW 3372   9.747   1.728   7.970 -0.0490 -0.3949 -0.8533
  247SOL    HW1 3373   9.763   1.774   7.887 -0.9134  1.8477  0.1492
  247SOL    HW2 3374   9.658   1.694   7.961 -0.9501  1.6110 -0.1617
  248SOL     OW 3375   4.227   1.572   2.052  0.1847 -0.0824 -0.1620
  248SOL    HW1 3376   4.321   1.575   2.035  0.2436 -0.7132  0.0430
  248SOL    HW2 3377   4.216   1.622   2.133  0.6147 -1.6379  0.9079
  249SOL     OW 3378   7.846   6.897   5.983  0.4382 -0.1580 -0.3535
  249SOL    HW1 3379   7.826   6.806   5.964 -0.2662 -1.2056  4.1357
  249SOL    HW2 3380   7.776   6.947   5.939  0.1686 -1.8377 -1.9316
  250SOL     OW 3381   1.525   8.696   3.477  0.2221 -0.6236 -0.7088
  250SOL    HW1 3382   1.541   8.756   3.551  1.1634 -0.9983 -0.5867
  250SOL    HW2 3383   1.505   8.612   3.519  0.7289 -0.8300 -0.8694
  251SOL     OW 3384   0.198   7.432   7.986  0.3384 -0.2570 -0.4635
  251SOL    HW1 3385   0.236   7.345   8.000  1.6686  0.2817 -0.5312
  251SOL    HW2 3386   0.123   7.435   8.045  1.2260 -0.8892  0.7643
  252SOL     OW 3387   3.871   7.750   5.694  0.2688 -0.2674 -0.3160
  252SOL    HW1 3388   3.874   7.795   5.778  1.3517 -0.5335 -0.1904
  252SOL    HW2 3389   3.839   7.662   5.714  1.0694 -0.5144 -0.0806
  253SOL     OW 3390   6.532   9.847   9.763 -0.3892  0.4959  0.2075
  253SOL    HW1 3391   6.606   9.901   9.790  0.5973  0.4606 -2.2072
  253SOL    HW2 3392   6.571   9.767   9.730 -1.7634 -1.1147  2.2552
  254SOL     OW 3393   5.030   5.142   3.231 -0.0079 -0.6850  0.0201
  254SOL    HW1 3394   4.949   5.192   3.242  1.0431  1.3081 -0.8447
  254SOL    HW2 3395   5.003   5.064   3.183 -1.4200 -0.0287 -0.3144
  255SOL     OW 3396   5.623   7.003   7.329  0.2085 -0.2124 -0.1702
  255SOL    HW1 3397   5.610   6.945   7.405  1.2517 -0.0871  0.1268
  255SOL    HW2 3398   5.690   7.065   7.358 -0.3782  0.7134 -0.7327
  256SOL     OW 3399   0.857   1.062   7.785  0.3444 -0.2851  0.6003
  256SOL    HW1 3400   0.875   1.089   7.694 -0.1286 -2.0750 -0.0625
  256SOL    HW2 3401   0.914   0.987   7.799 -0.5213 -0.8047  1.3610
  257SOL     OW 3402   9.947   8.389   3.170  0.5161 -0.2024 -0.2318
  257SOL    HW1 3403   9.855   8.381   3.193 -0.3582 -0.8215 -3.4050
  257SOL    HW2 3404   9.986   8.305   3.194 -0.0468 -0.4239 -0.1013
  258SOL     OW 3405   5.998   9.802   4.851 -0.2891  0.4658  0.2589
  258SOL    HW1 3406   6.081   9.756   4.838 -0.1388  0.0104  2.4022
  258SOL    HW2 3407   5.938   9.764   4.786  0.5589 -0.8600  0.2129
  259SOL     OW 3408   0.131   6.514   4.482  0.0160  0.2856 -0.6903
  259SOL    HW1 3409   0.074   6.566   4.425 -0.6982  0.9814  0.6004
  259SOL    HW2 3410   0.219   6.527   4.446 -0.5991 -0.9245 -2.8173
  260SOL     OW 3411   2.139   3.212   3.305 -0.1811  0.0964 -0.4485
  260SOL    HW1 3412   2.084   3.232   3.380 -0.8789  0.9999 -1.1731
  260SOL    HW2 3413   2.169   3.298   3.273  0.1300 -0.2687 -1.1773
  261SOL     OW 3414   2.332  10.330   9.578 -0.6100  0.0515  0.4807
  261SOL    HW1 3415   2.348  10.241   9.610 -0.9585 -0.1008  0.2377
  261SOL    HW2 3416   2.326  10.383   9.658  0.1913 -0.0357  0.6053
  262SOL     OW 3417   5.111   8.206   4.054  0.0001 -0.8024  0.2459
  262SOL    HW1 3418   5.119   8.125   4.105  1.2793 -0.9307 -0.1047
  262SOL    HW2 3419   5.080   8.271   4.116  0.7577 -1.1419  1.0059
  263SOL     OW 3420   0.978   1.928   8.602 -0.0863 -0.4713  0.0679
  263SOL    HW1 3421   0.937   2.013   8.616 -2.1481 -1.5632  1.0080
  263SOL    HW2 3422   1.071   1.948   8.592 -0.6445  1.9855 -0.8931
  264SOL     OW 3423   9.415   2.696   8.085 -0.2682  0.1721 -0.0681
  264SOL    HW1 3424   9.385   2.717   7.996 -3.9286 -0.8464  0.7346
  264SOL    HW2 3425   9.356   2.745   8.142 -0.7307 -2.2860  1.7320
  265SOL     OW 3426   3.051   5.736   3.169 -0.0020 -0.3372  0.3468
  265SOL    HW1 3427   3.105   5.661   3.193 -0.7010 -0.0790  3.1384
  265SOL    HW2 3428   2.966   5.699   3.146 -0.0331 -0.4878  0.6906
  266SOL     OW 3429   6.009   2.025   0.261  0.1588  0.2478 -0.1590
  266SOL    HW1 3430   6.004   1.970   0.183  0.8032  1.2631 -0.9366
  266SOL    HW2 3431   5.956   1.979   0.326  0.9594 -1.4674 -0.6617
  267SOL     OW 3432   1.689   6.997   2.695 -0.2238  0.1417  0.2557
  267SOL    HW1 3433   1.760   7.051   2.660 -1.3610  1.2320 -0.4678
  267SOL    HW2 3434   1.701   6.912   2.652  0.1268  0.5824 -0.5513
  268SOL     OW 3435   2.322   7.139   1.486  0.8678  0.3551 -0.5739
  268SOL    HW1 3436   2.230   7.166   1.482  0.4431 -0.9268  0.0204
  268SOL    HW2 3437   2.319   7.049   1.520  2.3428  0.3027 -0.5319
  269SOL     OW 3438   7.178   4.615   7.039 -0.1477  0.8198 -0.2582
  269SOL    HW1 3439   7.182   4.702   7.078 -0.1562  0.9960 -0.6429
  269SOL    HW2 3440   7.156   4.557   7.111  1.5232  0.8947  0.3661
  270SOL     OW 3441   5.395   9.758   0.041 -0.3670  0.0992  0.3875
  270SOL    HW1 3442   5.303   9.735   0.027 -0.3575 -0.9233  1.7565
  270SOL    HW2 3443   5.397   9.853   0.036 -1.6539  0.1869  1.0288
  271SOL     OW 3444   5.214   2.540   4.350 -0.0271 -0.3050  0.0056
  271SOL    HW1 3445   5.219   2.635   4.364  4.6432 -0.1832 -1.0159
  271SOL    HW2 3446   5.225   2.502   4.437 -1.5520 -0.0194  0.3662
  272SOL     OW 3447   5.782   6.522   2.192  0.0246  0.1223  0.4803
  272SOL    HW1 3448   5.754   6.431   2.201  0.8425 -0.0784  1.1028
  272SOL    HW2 3449   5.847   6.521   2.122 -0.9831  0.4695 -0.4767
  273SOL     OW 3450   2.190   8.671   5.648 -0.1703 -0.4437 -0.1741
  273SOL    HW1 3451   2.268   8.618   5.665  0.3222  0.1761 -0.4664
  273SOL    HW2 3452   2.219   8.737   5.585  0.2047  2.3664  2.6809
  274SOL     OW 3453   4.381   4.453   3.215  0.1649  0.1544 -0.3223
  274SOL    HW1 3454   4.325   4.444   3.139 -1.9890  0.0737  1.1869
  274SOL    HW2 3455   4.433   4.372   3.216 -0.3216 -0.1822 -1.2746
  275SOL     OW 3456   6.633   6.283   9.718  0.3442  0.3369  0.4829
  275SOL    HW1 3457   6.564   6.307   9.780 -0.5313  2.2638 -1.1209
  275SOL    HW2 3458   6.704   6.345   9.736  0.5888  0.0921  0.3707
  276SOL     OW 3459   4.753   3.508   6.859  0.2701  0.5011 -0.0027
  276SOL    HW1 3460   4.669   3.490   6.902  0.2779 -0.8464 -0.4866
  276SOL    HW2 3461   4.808   3.543   6.928 -1.2425  3.3372 -0.0892
  277SOL     OW 3462   7.089   4.126   3.241  0.0150  0.1509  0.1104
  277SOL    HW1 3463   7.023   4.170   3.294 -0.2273  1.4046 -1.1663
  277SOL    HW2 3464   7.043   4.103   3.160  1.3181  1.9068 -1.2129
  278SOL     OW 3465   9.453   9.107   2.859  0.0245  0.0373  0.2042
  278SOL    HW1 3466   9.542   9.075   2.876  0.0194  0.4456  1.0599
  278SOL    HW2 3467   9.466   9.183   2.802  0.0180 -1.5672 -2.1085
  279SOL     OW 3468   8.076   1.203   1.920  0.1679 -0.6637 -0.5830
  279SOL    HW1 3469   8.114   1.186   1.834  0.7824  0.7778 -0.6280
  279SOL    HW2 3470   8.003   1.262   1.902  0.2132 -0.4679 -0.1386
  280SOL     OW 3471   3.558   9.848   9.641 -0.4161  0.0669  0.0255
  280SOL    HW1 3472   3.588   9.886   9.559 -1.6152 -1.4022 -1.1552
  280SOL    HW2 3473   3.633   9.796   9.672 -0.1747  0.1169 -0.4698
  281SOL     OW 3474   8.919   6.853   2.291 -0.2032  0.1700 -0.1437
  281SOL    HW1 3475   8.868   6.879   2.368 -0.4208 -0.9139  0.0879
  281SOL    HW2 3476   8.929   6.934   2.240 -0.7838  0.7161  0.5992
  282SOL     OW 3477   3.090   4.912   0.042 -0.1332 -0.0890 -0.0680
  282SOL    HW1 3478   3.129   4.963   0.113 -0.7097 -2.1191  1.7914
  282SOL    HW2 3479   3.035   4.975  -0.004  0.7933  1.4489  0.8112
  283SOL     OW 3480   2.330   4.357   4.354  0.1805  0.1153 -0.0383
  283SOL    HW1 3481   2.356   4.377   4.264  1.7286  0.1046  0.3788
  283SOL    HW2 3482   2.336   4.262   4.360  2.2749  0.2395  0.6593
  284SOL     OW 3483   9.440   4.796   7.055 -0.3160  0.3798  0.4876
  284SOL    HW1 3484   9.350   4.814   7.085  0.6837  4.0774  1.8319
  284SOL    HW2 3485   9.446   4.838   6.970 -0.4006 -1.8890 -0.7231
  285SOL     OW 3486   3.358  10.047   9.826  0.0411  0.7096  0.2762
  285SOL    HW1 3487   3.322   9.965   9.793  1.9712 -0.2556  0.4352
  285SOL    HW2 3488   3.392  10.092   9.748  1.9853 -0.2325  0.5236
  286SOL     OW 3489   4.297   7.800   1.671  0.4255 -0.5966  0.1252
  286SOL    HW1 3490   4.346   7.748   1.735  0.6648  0.9060  1.2000
  286SOL    HW2 3491   4.305   7.750   1.589  2.3699 -1.2225  0.6395
  287SOL     OW 3492   6.357   3.315   6.169 -0.5090 -0.3491  0.1463
  287SOL    HW1 3493   6.411   3.242   6.200  0.2178  1.0369  2.4145
  287SOL    HW2 3494   6.301   3.337   6.244 -0.1060  1.9356 -0.1528
  288SOL     OW 3495   4.858   4.420   4.521 -0.0056 -0.5985 -0.2464
  288SOL    HW1 3496   4.885   4.497   4.572  0.6010 -1.2305  0.3930
  288SOL    HW2 3497   4.863   4.450   4.430 -0.4745  0.3413  0.0149
  289SOL     OW 3498   2.755   5.477   9.954  0.4268  0.3981  0.0408
  289SOL    HW1 3499   2.733   5.384   9.942 -1.0883  0.8547 -1.0136
  289SOL    HW2 3500   2.703   5.504  10.029  2.1493  0.0305  1.4278
  290SOL     OW 3501   4.573   4.420   4.537  0.1276 -0.2814 -0.3232
  290SOL    HW1 3502   4.667   4.432   4.521 -0.0617 -0.2912 -1.5172
  290SOL    HW2 3503   4.541   4.509   4.555  0.2453 -0.1794 -0.6100
  291SOL     OW 3504   1.258   3.826   8.389 -0.0182  0.2387  0.1286
  291SOL    HW1 3505   1.281   3.901   8.445 -0.4770  0.4038  0.0955
  291SOL    HW2 3506   1.221   3.762   8.450  3.4007 -1.3722  0.7743
  292SOL     OW 3507   0.574   4.921   2.777 -0.2056  0.1276  0.2748
  292SOL    HW1 3508   0.597   4.918   2.870  0.8542 -2.6029  0.0170
  292SOL    HW2 3509   0.508   4.852   2.766 -0.0232  0.1271 -1.0503
  293SOL     OW 3510   7.011   9.459   3.479  0.2783  0.1158  0.0650
  293SOL    HW1 3511   6.928   9.506   3.469  0.7215  1.0933  0.7679
  293SOL    HW2 3512   7.064   9.488   3.404  0.2192  0.0053 -0.0196
  294SOL     OW 3513   4.547   9.215  10.180  0.3984  0.3213 -0.0721
  294SOL    HW1 3514   4.481   9.157  10.142  0.0552 -0.2848  1.3758
  294SOL    HW2 3515   4.623   9.159  10.196  0.0608  0.2211  1.3419
  295SOL     OW 3516   8.998   0.420   4.716  0.2721 -0.2488 -0.3437
  295SOL    HW1 3517   8.933   0.463   4.771 -0.0427 -1.8624  0.6139
  295SOL    HW2 3518   9.044   0.492   4.673  0.0559  1.0682  1.4931
  296SOL     OW 3519   4.125   4.368   6.434 -0.3748  0.4692 -0.0491
  296SOL    HW1 3520   4.173   4.374   6.351 -1.1351 -0.8469 -0.6150
  296SOL    HW2 3521   4.186   4.402   6.500  0.9967 -0.3441 -0.8658
  297SOL     OW 3522   7.765   6.453   1.323  0.1323  0.0943  0.0611
  297SOL    HW1 3523   7.745   6.418   1.236  0.9539 -0.0083 -0.0969
  297SOL    HW2 3524   7.710   6.401   1.382 -1.9109  1.4697 -0.5342
  298SOL     OW 3525   7.676   8.896   2.240  0.2151  0.1999  0.1104
  298SOL    HW1 3526   7.732   8.969   2.212  0.7489 -0.8593 -1.7171
  298SOL    HW2 3527   7.727   8.818   2.221 -1.6281 -0.7855 -1.0294
  299SOL     OW 3528   2.553   7.359   6.942  0.5440 -0.7076 -0.0083
  299SOL    HW1 3529   2.487   7.322   6.883  0.0626 -1.7151  1.1398
  299SOL    HW2 3530   2.623   7.388   6.883 -1.6608  2.2038 -1.4972
  300SOL     OW 3531   9.171   0.723   9.809  0.1571 -0.0134  0.0295
  300SOL    HW1 3532   9.091   0.674   9.794 -0.1567  0.7530 -0.9380
  300SOL    HW2 3533   9.224   0.667   9.866  0.0789 -1.7290 -1.5159
  301SOL     OW 3534   7.221   8.480   2.580 -0.2468 -0.2847  0.6988
  301SOL    HW1 3535   7.132   8.512   2.596  0.2981  1.7416  0.0275
  301SOL    HW2 3536   7.223   8.459   2.487  0.1326  0.2277  0.5895
  302SOL     OW 3537   0.999   8.722  10.262  0.4754 -0.0339  0.5913
  302SOL    HW1 3538   0.997   8.692  10.353  2.0176 -0.3205  0.5566
  302SOL    HW2 3539   1.077   8.681  10.225  0.4095  0.8579 -0.5904
  303SOL     OW 3540   7.559   5.250   7.770  0.3878 -0.5461  0.5865
  303SOL    HW1 3541   7.500   5.194   7.720  0.7510  1.3651 -2.2201
  303SOL    HW2 3542   7.502   5.306   7.821 -0.0666 -1.3300  0.9549
  304SOL     OW 3543   3.119   3.020   3.797 -0.4211 -0.7695 -0.0081
  304SOL    HW1 3544   3.088   2.978   3.877 -0.6948 -0.8565 -0.1582
  304SOL    HW2 3545   3.126   3.112   3.820  1.1701 -1.0231  0.6302
  305SOL     OW 3546   7.256   9.538   8.234  0.0572  0.5517 -0.0337
  305SOL    HW1 3547   7.215   9.599   8.173  0.5174  0.4748 -0.4256
  305SOL    HW2 3548   7.211   9.553   8.317 -0.3752  0.8620 -0.3221
  306SOL     OW 3549   5.701   7.548   8.786  0.0088 -0.4368 -0.8988
  306SOL    HW1 3550   5.620   7.599   8.775  1.0141  0.8926 -2.7183
  306SOL    HW2 3551   5.672   7.457   8.790 -1.7769  0.1476  1.4673
  307SOL     OW 3552   8.763   6.423   8.530 -0.0017  0.6487 -0.1688
  307SOL    HW1 3553   8.676   6.415   8.570 -0.2440  0.8355 -0.6463
  307SOL    HW2 3554   8.792   6.511   8.555  0.9404 -0.1350  1.7062
  308SOL     OW 3555   6.692  10.229   3.520 -0.2874  0.5422  0.6170
  308SOL    HW1 3556   6.601  10.215   3.493 -0.6925 -0.9343  2.5134
  308SOL    HW2 3557   6.685  10.284   3.598  0.3502 -0.4528  1.3916
  309SOL     OW 3558   8.266   6.574   7.267  0.3605  0.5252  0.0830
  309SOL    HW1 3559   8.296   6.606   7.182  0.7438 -0.7922 -0.2962
  309SOL    HW2 3560   8.171   6.584   7.265  0.4403  1.2781 -0.1646
  310SOL     OW 3561   4.215   7.694   8.881 -0.1397 -0.2809  0.2890
  310SOL    HW1 3562   4.206   7.673   8.788  0.4094  3.2514 -0.6964
  310SOL    HW2 3563   4.309   7.697   8.896 -0.1894  1.0497  0.4313
  311SOL     OW 3564   4.128   4.661   2.756 -0.7813  0.0555  0.1682
  311SOL    HW1 3565   4.107   4.716   2.832 -0.4068  1.9577 -1.0343
  311SOL    HW2 3566   4.045   4.650   2.710 -0.5838  1.0013 -0.4392
  312SOL     OW 3567   3.445  10.336   8.754  0.1768  0.4018  0.0339
  312SOL    HW1 3568   3.485  10.250   8.768  0.2627  0.3696 -0.3994
  312SOL    HW2 3569   3.353  10.324   8.776 -0.0023 -0.0376 -0.9191
  313SOL     OW 3570   2.016   7.418   8.619 -0.1867  0.1041  0.2331
  313SOL    HW1 3571   2.105   7.384   8.623 -0.0731  0.3913  0.1995
  313SOL    HW2 3572   1.964   7.356   8.669  0.3669  0.9939  2.0115
  314SOL     OW 3573  10.126   9.927   9.858 -0.1586 -0.1450 -0.7272
  314SOL    HW1 3574  10.075   9.862   9.809 -2.1204  1.1005 -0.4377
  314SOL    HW2 3575  10.151   9.992   9.792 -3.7485  2.1216 -0.0993
  315SOL     OW 3576   4.311  10.092   8.665  0.4180 -0.0166 -0.2576
  315SOL    HW1 3577   4.236  10.137   8.704  0.7607 -1.1987  1.9545
  315SOL    HW2 3578   4.285   9.999   8.665  0.1946 -0.0530 -3.5920
  316SOL     OW 3579   5.509   7.677   9.904  0.3523  0.0883 -0.1030
  316SOL    HW1 3580   5.423   7.699   9.939  0.8760 -0.0959  1.3768
  316SOL    HW2 3581   5.491   7.634   9.820 -1.0779 -1.3600  0.8819
  317SOL     OW 3582   3.910   8.055   8.627 -0.6595 -0.1586  0.2446
  317SOL    HW1 3583   3.918   7.960   8.620 -3.4028 -0.3976 -1.3755
  317SOL    HW2 3584   3.882   8.070   8.717 -1.2834 -1.0288  0.2109
  318SOL     OW 3585   9.017   3.644   9.946  0.4045 -0.4105  0.8446
  318SOL    HW1 3586   9.073   3.718   9.969 -1.4633  0.7049  2.0671
  318SOL    HW2 3587   8.982   3.613  10.030  1.0205 -2.6368  0.3551
  319SOL     OW 3588   7.999   1.675   4.137 -0.1032 -0.0537 -0.2386
  319SOL    HW1 3589   7.955   1.592   4.153 -0.2994 -0.0242 -0.6128
  319SOL    HW2 3590   7.929   1.736   4.115 -0.2546  0.8531  2.4337
  320SOL     OW 3591   0.175   7.443   1.474 -0.4866  0.1076  0.6360
  320SOL    HW1 3592   0.126   7.444   1.557 -0.2209  0.7520  0.7923
  320SOL    HW2 3593   0.122   7.389   1.416 -1.2223  0.5115  0.9086
  321SOL     OW 3594   0.380   0.125   4.538 -0.0547 -0.0919  0.2417
  321SOL    HW1 3595   0.356   0.152   4.449  1.1407  1.1992  0.2839
  321SOL    HW2 3596   0.318   0.055   4.559 -0.1815 -0.6419 -1.7167
  322SOL     OW 3597   0.388   3.573   0.058 -0.1582  0.4131  0.4514
  322SOL    HW1 3598   0.418   3.492   0.100  0.3554  0.2661 -0.1915
  322SOL    HW2 3599   0.352   3.624   0.130  1.9355  0.7489  1.3459
  323SOL     OW 3600   3.292   0.022   5.869  0.3706  0.2358  0.6038
  323SOL    HW1 3601   3.327  -0.036   5.937 -1.0177  1.2381  2.2669
  323SOL    HW2 3602   3.264  -0.036   5.799  1.1646 -0.8933  1.2015
  324SOL     OW 3603   7.079   3.592   4.363 -0.5782 -0.6407 -0.1012
  324SOL    HW1 3604   7.090   3.686   4.347  1.6254 -0.7571  0.3239
  324SOL    HW2 3605   6.991   3.584   4.400 -1.1080  1.1429 -0.8541
  325SOL     OW 3606   5.294   4.117   1.597 -0.1351  0.6259 -0.6569
  325SOL    HW1 3607   5.253   4.201   1.578 -2.2001 -0.3612 -0.7824
  325SOL    HW2 3608   5.328   4.087   1.513  0.0261  1.0319 -0.7377
  326SOL     OW 3609   9.295   7.883   5.423  0.1985  0.6170 -0.3022
  326SOL    HW1 3610   9.371   7.941   5.420  0.2458  0.4983 -1.9741
  326SOL    HW2 3611   9.290   7.856   5.515  1.5276  1.4593  0.0493
  327SOL     OW 3612   0.486   3.975   4.601 -0.5707 -0.3507  0.4972
  327SOL    HW1 3613   0.535   4.012   4.527 -0.9420  3.9931  2.1580
  327SOL    HW2 3614   0.554   3.948   4.663 -0.2488  0.1573  0.3751
  328SOL     OW 3615   7.993   0.959   0.210 -0.6154  0.4484 -0.4660
  328SOL    HW1 3616   8.079   0.964   0.169  0.2809 -0.4518  1.2169
  328SOL    HW2 3617   7.945   0.894   0.158 -0.2887  0.9246 -1.3887
  329SOL     OW 3618   7.143   7.805   1.111 -0.1310 -0.2037 -0.1972
  329SOL    HW1 3619   7.218   7.784   1.056  0.8585  2.9890 -0.2127
  329SOL    HW2 3620   7.069   7.761   1.068  1.4516 -2.3180 -0.9076
  330SOL     OW 3621   8.990   1.853   0.464  0.5692  0.3211 -0.0198
  330SOL    HW1 3622   9.084   1.849   0.447  0.5557 -0.6242  0.0666
  330SOL    HW2 3623   8.970   1.770   0.509 -0.3798  0.3091 -0.4407
  331SOL     OW 3624   8.078   2.773   9.206  0.5661 -0.5344 -0.8051
  331SOL    HW1 3625   8.025   2.694   9.216 -1.2449  0.4300 -2.1938
  331SOL    HW2 3626   8.073   2.794   9.113  2.0741  0.5265 -0.6818
  332SOL     OW 3627   5.152  10.195   8.706 -0.4882  0.0371  0.2082
  332SOL    HW1 3628   5.241  10.206   8.737 -0.5535  0.9056  0.0961
  332SOL    HW2 3629   5.129  10.105   8.731 -0.3583  0.5155  2.2280
  333SOL     OW 3630   9.066   0.019   7.212 -0.5321 -0.2595  0.1280
  333SOL    HW1 3631   8.985   0.047   7.256  0.6034  2.7366  0.5304
  333SOL    HW2 3632   9.113  -0.029   7.280 -1.4742 -1.0796  0.2266
  334SOL     OW 3633   3.515   4.096   5.865 -0.2442  0.4863 -0.5601
  334SOL    HW1 3634   3.448   4.151   5.905  0.5265  0.9316  0.1571
  334SOL    HW2 3635   3.476   4.065   5.783 -0.9924  1.4488 -0.5765
  335SOL     OW 3636   6.001   4.450   3.433 -0.0500  0.2706 -0.5392
  335SOL    HW1 3637   5.919   4.493   3.410 -0.5264 -0.1128  0.3661
  335SOL    HW2 3638   5.998   4.443   3.529  1.4302  1.0288 -0.3969
  336SOL     OW 3639   7.393   8.184   2.190 -0.3268  0.3717 -0.4229
  336SOL    HW1 3640   7.317   8.150   2.143  1.2157 -1.6907 -1.6288
  336SOL    HW2 3641   7.422   8.110   2.244  0.8967  1.0607 -0.1114
  337SOL     OW 3642   0.724   0.470   1.690  0.2844  0.7686 -0.2478
  337SOL    HW1 3643   0.766   0.455   1.775  0.8203 -0.0613 -0.6446
  337SOL    HW2 3644   0.794   0.456   1.626  0.2670  2.8870 -0.7882
  338SOL     OW 3645   2.330   8.950   1.803 -0.1628 -0.9354  0.1415
  338SOL    HW1 3646   2.310   8.860   1.830  1.1624 -0.8957  1.3558
  338SOL    HW2 3647   2.344   8.943   1.709 -1.4083 -1.7437 -0.0126
  339SOL     OW 3648   2.246   7.710   3.018 -0.5258  0.5901 -0.0383
  339SOL    HW1 3649   2.182   7.664   2.963 -0.0669  0.6679 -0.6527
  339SOL    HW2 3650   2.280   7.643   3.077 -0.1203  0.2127 -0.6901
  340SOL     OW 3651   2.382   7.218   6.812 -0.4437 -0.0339  0.0060
  340SOL    HW1 3652   2.374   7.140   6.868 -2.5536  0.5585  0.6137
  340SOL    HW2 3653   2.339   7.192   6.730  0.7507 -0.1833 -0.5952
  341SOL     OW 3654   7.904   5.791   4.020  0.2195 -0.1860 -0.2278
  341SOL    HW1 3655   7.867   5.725   3.961  0.4898 -1.2635  0.7823
  341SOL    HW2 3656   7.969   5.745   4.071 -0.9121  0.3683  1.8540
  342SOL     OW 3657   5.435  10.260   1.289 -0.5192 -0.7521 -0.4580
  342SOL    HW1 3658   5.523  10.294   1.303 -0.9722  0.7973 -1.1236
  342SOL    HW2 3659   5.391  10.269   1.374 -1.5909  3.4435 -1.2716
  343SOL     OW 3660   4.615   1.451   9.174 -0.1383 -0.4583  0.5186
  343SOL    HW1 3661   4.534   1.489   9.207 -1.1251 -2.5534  0.6754
  343SOL    HW2 3662   4.680   1.520   9.185 -1.5790  0.7795  1.7561
  344SOL     OW 3663   5.122   5.771   6.482 -0.0897  0.2376 -0.2007
  344SOL    HW1 3664   5.210   5.808   6.489 -0.0366  0.1403 -0.3512
  344SOL    HW2 3665   5.121   5.701   6.548  0.0917 -0.0473 -0.4976
  345SOL     OW 3666   9.704   9.945   2.516 -0.7772 -0.3674 -0.1404
  345SOL    HW1 3667   9.731  10.034   2.536 -2.2637  0.0005  0.3268
  345SOL    HW2 3668   9.618   9.954   2.475 -0.1169 -1.4721 -1.9285
  346SOL     OW 3669   1.262   5.811   2.308  0.4874  0.3977 -1.0219
  346SOL    HW1 3670   1.307   5.858   2.379 -0.2039 -0.3269 -0.0830
  346SOL    HW2 3671   1.252   5.877   2.239  0.8433  1.2270 -0.3126
  347SOL     OW 3672   6.036   8.823   1.292 -0.2915 -0.1943  0.0090
  347SOL    HW1 3673   5.975   8.766   1.339 -1.7187  0.3573 -1.0907
  347SOL    HW2 3674   6.034   8.905   1.341 -1.5364  0.2780 -0.7956
  348SOL     OW 3675   2.922   4.614   5.358  0.4300 -0.4826 -0.1597
  348SOL    HW1 3676   2.932   4.519   5.360  3.2882 -0.4344 -3.2574
  348SOL    HW2 3677   2.836   4.628   5.319 -1.0979 -1.6275  2.5264
  349SOL     OW 3678   5.186   4.528   7.887  0.7937 -0.2080 -0.2049
  349SOL    HW1 3679   5.105   4.484   7.862  0.5236 -0.3080  0.8089
  349SOL    HW2 3680   5.171   4.556   7.977  1.2050  1.3812 -0.5968
  350SOL     OW 3681   9.067   0.814   0.759 -0.1418  0.3974 -0.2296
  350SOL    HW1 3682   9.027   0.900   0.772  0.4281  0.6741 -0.2671
  350SOL    HW2 3683   8.994   0.757   0.733 -0.7973  0.5076  1.2705
  351SOL     OW 3684   8.288   7.962   0.475  0.5123 -0.4143 -0.5292
  351SOL    HW1 3685   8.193   7.964   0.490  0.3446 -0.1257 -1.5431
  351SOL    HW2 3686   8.320   7.892   0.532 -0.6143 -2.0372 -1.8153
  352SOL     OW 3687   2.877   0.003   0.991  0.2137 -0.0473 -0.7381
  352SOL    HW1 3688   2.826   0.035   1.066 -0.3862 -0.5354 -0.9299
  352SOL    HW2 3689   2.831   0.037   0.915  0.5977  0.1163 -0.8985
  353SOL     OW 3690   4.819   9.628   0.766 -0.1552  0.6264 -0.3036
  353SOL    HW1 3691   4.766   9.635   0.845 -0.1958  0.8796 -0.3534
  353SOL    HW2 3692   4.849   9.717   0.749 -0.3373  0.6126 -0.7064
  354SOL     OW 3693   9.809   2.016   6.739 -0.6630 -0.3816  0.2500
  354SOL    HW1 3694   9.783   1.958   6.668 -1.8242 -0.9477  1.0999
  354SOL    HW2 3695   9.812   1.959   6.816  0.0514  0.3224  0.7671
  355SOL     OW 3696   8.212   2.475   0.990 -0.4788 -0.6019  0.0112
  355SOL    HW1 3697   8.240   2.522   1.068 -0.0798 -0.0945 -0.4215
  355SOL    HW2 3698   8.122   2.502   0.976 -0.8279 -1.3531  0.7698
  356SOL     OW 3699   1.661   7.322   7.086  0.4631 -0.2657 -0.0243
  356SOL    HW1 3700   1.659   7.227   7.097  1.2296 -0.2820  0.0234
  356SOL    HW2 3701   1.593   7.354   7.145 -1.3345 -0.9105 -1.6106
  357SOL     OW 3702   6.713  10.158   5.007  0.2019 -0.6202 -0.2570
  357SOL    HW1 3703   6.695  10.117   5.092  2.0612  0.6339  0.8003
  357SOL    HW2 3704   6.793  10.115   4.976  1.0597  0.7804 -0.0582
  358SOL     OW 3705   9.099   1.873   7.674  0.1429 -0.7758  0.7100
  358SOL    HW1 3706   9.184   1.916   7.668  0.4022 -1.2867  0.6388
  358SOL    HW2 3707   9.095   1.817   7.596 -1.2187  0.9210 -0.5125
  359SOL     OW 3708   5.010   0.890   8.658 -0.9595  0.1341 -0.3216
  359SOL    HW1 3709   4.928   0.870   8.704 -1.6268  1.4680 -0.8808
  359SOL    HW2 3710   5.013   0.985   8.653  0.9695  0.1439  0.2498
  360SOL     OW 3711   5.896   2.042   2.227 -0.4330  0.0001 -0.0878
  360SOL    HW1 3712   5.838   2.005   2.160 -1.2746 -0.0461  0.6584
  360SOL    HW2 3713   5.844   2.108   2.272 -0.4593 -1.1527  1.6571
  361SOL     OW 3714   2.700   3.643   1.431 -0.1935 -0.4237 -0.2567
  361SOL    HW1 3715   2.691   3.664   1.338  0.1845 -2.0741 -0.7151
  361SOL    HW2 3716   2.744   3.719   1.470 -0.3919  0.3002 -1.4123
  362SOL     OW 3717   3.272   8.369   3.167 -0.0690  0.2289  0.9572
  362SOL    HW1 3718   3.253   8.277   3.182  2.0179 -0.6072 -0.9165
  362SOL    HW2 3719   3.227   8.390   3.085 -1.1301  1.1146  1.7457
  363SOL     OW 3720   4.091   0.676   6.960 -0.1826  0.2609  0.3369
  363SOL    HW1 3721   4.059   0.663   6.871 -1.4412 -0.9946  0.9359
  363SOL    HW2 3722   4.187   0.682   6.951 -0.2744 -0.1082 -1.0454
  364SOL     OW 3723  10.319   1.808   9.425 -0.5905 -0.0558 -0.0662
  364SOL    HW1 3724  10.407   1.805   9.387  0.8652  2.1305  2.7385
  364SOL    HW2 3725  10.329   1.767   9.511 -2.4654 -0.1751  0.1336
  365SOL     OW 3726   9.660   1.342   0.466 -0.5585  0.3808 -0.1675
  365SOL    HW1 3727   9.572   1.306   0.479 -0.8979  0.6751 -1.5060
  365SOL    HW2 3728   9.671   1.404   0.537 -0.8827 -0.6584  0.8223
  366SOL     OW 3729   7.472   5.130   9.821 -0.6948 -0.2564  0.4453
  366SOL    HW1 3730   7.499   5.055   9.769 -0.5705  1.3920 -2.0465
  366SOL    HW2 3731   7.459   5.095   9.909 -1.2885 -3.2770 -0.7317
  367SOL     OW 3732   7.285   4.577   0.796 -0.0214  0.4868  0.1339
  367SOL    HW1 3733   7.240   4.534   0.724 -0.7539  0.9438  0.3062
  367SOL    HW2 3734   7.302   4.666   0.765  0.0982  0.5396  0.3433
  368SOL     OW 3735   4.305   4.865   3.671 -0.3494 -0.3564  0.4157
  368SOL    HW1 3736   4.277   4.914   3.748 -1.9988  1.0422 -0.9768
  368SOL    HW2 3737   4.228   4.813   3.646  0.0341 -0.5147 -0.4820
  369SOL     OW 3738   1.035   2.515   7.365 -0.1681 -0.1727  0.1204
  369SOL    HW1 3739   0.969   2.527   7.297 -0.2245  0.3964  0.2696
  369SOL    HW2 3740   1.118   2.519   7.319 -0.2292 -0.7170 -0.0432
  370SOL     OW 3741   2.202   7.138  10.135 -0.4396 -0.1745 -0.2892
  370SOL    HW1 3742   2.130   7.154  10.074  0.3984  3.1771 -0.6460
  370SOL    HW2 3743   2.163   7.149  10.222 -1.1787 -2.8138 -0.2029
  371SOL     OW 3744   1.814   0.823   4.009 -0.1487 -0.2017 -0.1155
  371SOL    HW1 3745   1.745   0.766   4.043 -1.5258  0.8475 -1.0527
  371SOL    HW2 3746   1.787   0.844   3.920  0.8558  1.0758 -0.1569
  372SOL     OW 3747   2.399  10.037   2.321 -0.0767 -0.1138  0.1468
  372SOL    HW1 3748   2.350  10.041   2.239 -0.0857  1.7996  0.1986
  372SOL    HW2 3749   2.491  10.033   2.295  0.0628  2.6903 -0.0411
  373SOL     OW 3750   4.943   4.649   4.025 -0.1154  0.0653 -0.3734
  373SOL    HW1 3751   4.993   4.705   4.086 -2.9845  2.9218 -0.3987
  373SOL    HW2 3752   4.985   4.664   3.940 -0.5491  1.9641 -0.3043
  374SOL     OW 3753   5.136   6.155   8.057  0.2098  0.1596  0.0748
  374SOL    HW1 3754   5.081   6.100   8.001 -0.3812  0.2526  0.5512
  374SOL    HW2 3755   5.121   6.244   8.025  2.1421 -0.0136 -1.5395
  375SOL     OW 3756   5.665   3.679   3.230  0.1181 -0.3035 -0.3230
  375SOL    HW1 3757   5.654   3.624   3.153 -1.1261 -0.0039 -0.3852
  375SOL    HW2 3758   5.669   3.617   3.303 -1.3815 -0.5070 -0.3838
  376SOL     OW 3759   7.803   4.793   1.828 -0.6846  0.4480 -0.0279
  376SOL    HW1 3760   7.779   4.868   1.882 -1.3576  0.4760 -0.3546
  376SOL    HW2 3761   7.743   4.723   1.855  0.3926 -0.1893  0.7558
  377SOL     OW 3762   5.564   8.853   1.053  0.0386 -0.5789 -1.0370
  377SOL    HW1 3763   5.523   8.926   1.101 -0.9289 -1.3812 -0.6187
  377SOL    HW2 3764   5.657   8.858   1.077 -0.1405  0.0793 -0.4373
  378SOL     OW 3765   2.859   5.013   7.963 -0.1013  0.2507  0.0932
  378SOL    HW1 3766   2.906   4.932   7.982 -0.2908  0.3485  1.0528
  378SOL    HW2 3767   2.819   5.037   8.047 -0.6535  0.9421 -0.3585
  379SOL     OW 3768   3.537   2.010   2.967 -0.0005  0.3057  0.4035
  379SOL    HW1 3769   3.467   2.075   2.962 -1.6215 -1.4872 -2.8233
  379SOL    HW2 3770   3.602   2.040   2.903  1.3842  0.9177  1.9984
  380SOL     OW 3771   9.149   4.598   0.971 -0.0447  0.4332 -0.6558
  380SOL    HW1 3772   9.165   4.515   0.924 -0.2972 -0.1395  0.2549
  380SOL    HW2 3773   9.230   4.613   1.019 -0.0872  0.6007 -0.6379
  381SOL     OW 3774  10.028   6.982   2.319 -0.2966  0.2503 -0.0660
  381SOL    HW1 3775  10.013   7.047   2.388  0.3973  0.0673  0.2660
  381SOL    HW2 3776  10.024   7.033   2.238  2.1405  1.1131  0.2772
  382SOL     OW 3777   0.239   3.978   1.248  0.0518  0.2368  0.0194
  382SOL    HW1 3778   0.149   4.009   1.239 -0.1984 -0.4473  0.0570
  382SOL    HW2 3779   0.236   3.919   1.324 -0.7216 -4.0516 -3.0023
  383SOL     OW 3780   1.830   9.020   3.174 -0.0155 -0.6067  0.1153
  383SOL    HW1 3781   1.910   9.060   3.207  0.1480 -1.3146  0.5902
  383SOL    HW2 3782   1.853   8.929   3.159 -0.5178 -0.6387 -0.5036
  384SOL     OW 3783   6.966   9.251   3.921  0.1063 -0.0570 -0.1918
  384SOL    HW1 3784   6.952   9.162   3.888 -0.1244 -1.0890  2.4538
  384SOL    HW2 3785   6.986   9.303   3.843  0.8145 -2.5380 -1.7654
  385SOL     OW 3786   6.971  10.051   6.308  0.1809 -0.0185  0.0792
  385SOL    HW1 3787   6.897  10.031   6.250 -1.8349  1.2201  2.0186
  385SOL    HW2 3788   6.993   9.968   6.349  0.6951 -0.6314 -1.3699
  386SOL     OW 3789   5.510   5.688   7.070  0.0242  0.2800 -0.0258
  386SOL    HW1 3790   5.485   5.755   7.007 -0.9565 -0.5180 -0.5331
  386SOL    HW2 3791   5.429   5.672   7.120  0.0512 -0.9484 -0.3387
  387SOL     OW 3792   4.873   0.568   3.995  0.1174 -0.3937 -0.1257
  387SOL    HW1 3793   4.948   0.510   3.986 -0.7011 -1.4872 -0.1111
  387SOL    HW2 3794   4.797   0.511   3.987 -0.7342  0.7808 -0.8950
  388SOL     OW 3795   0.773   2.704   2.399 -0.0547  0.0445 -0.1412
  388SOL    HW1 3796   0.761   2.674   2.489 -2.7566  0.3926 -0.3036
  388SOL    HW2 3797   0.701   2.766   2.384  0.8492  0.6931 -2.2695
  389SOL     OW 3798   9.080   7.288   5.252  0.0444  0.5567 -0.0586
  389SOL    HW1 3799   9.168   7.320   5.232  0.5109 -1.4623 -1.4481
  389SOL    HW2 3800   9.040   7.271   5.167 -0.5620 -1.4643  0.5859
  390SOL     OW 3801   2.805   8.800   4.898 -0.1503 -0.5181  0.2339
  390SOL    HW1 3802   2.822   8.884   4.854 -0.6443 -0.4629  0.1356
  390SOL    HW2 3803   2.748   8.753   4.837 -1.3766 -0.1820  1.0759
  391SOL     OW 3804   1.588   7.047   7.116  0.2378 -0.3702  0.4838
  391SOL    HW1 3805   1.519   6.980   7.122 -0.7307  0.6925  1.8025
  391SOL    HW2 3806   1.646   7.028   7.190  0.2839 -0.0924  0.5183
  392SOL     OW 3807   5.670   0.638   0.881 -0.1667  0.1805 -0.5340
  392SOL    HW1 3808   5.763   0.618   0.882 -0.4334 -1.1862  0.2697
  392SOL    HW2 3809   5.665   0.733   0.877  1.3227  0.4404  1.8996
  393SOL     OW 3810   7.611   0.641   6.212 -0.1632  0.1300  0.3562
  393SOL    HW1 3811   7.661   0.576   6.260 -1.5053 -0.6278  0.7881
  393SOL    HW2 3812   7.606   0.716   6.271 -0.0270 -0.0160  0.5539
  394SOL     OW 3813   8.395   0.099   9.913  0.3984  0.6237 -0.6558
  394SOL    HW1 3814   8.396   0.191   9.887  0.3321  0.8732  0.1666
  394SOL    HW2 3815   8.470   0.091   9.973  1.7600 -0.3978 -2.4193
  395SOL     OW 3816   0.395   6.930   0.330 -0.3020  0.4253  0.2007
  395SOL    HW1 3817   0.310   6.970   0.310 -1.0233 -0.8885  0.4577
  395SOL    HW2 3818   0.427   6.899   0.246 -1.6453 -1.9255  0.4621
  396SOL     OW 3819   7.430   1.489   3.619 -0.1518  0.2184 -0.6625
  396SOL    HW1 3820   7.420   1.537   3.702 -0.9044 -0.4389 -0.3555
  396SOL    HW2 3821   7.479   1.549   3.563 -1.2600  1.4688 -0.3797
  397SOL     OW 3822   7.670   1.810   9.611 -0.1529  0.7537 -0.3164
  397SOL    HW1 3823   7.651   1.722   9.579 -1.8664  0.9133  0.1736
  397SOL    HW2 3824   7.587   1.842   9.646  1.2078  1.2023  2.8648
  398SOL     OW 3825  10.314   9.287   4.696  0.6715  0.3688  0.5230
  398SOL    HW1 3826  10.343   9.352   4.631  0.4900 -0.5390 -0.5063
  398SOL    HW2 3827  10.296   9.337   4.775 -0.1416  1.6695 -0.4524
  399SOL     OW 3828   9.698   0.905   8.967 -0.1285 -0.4426 -0.1691
  399SOL    HW1 3829   9.765   0.932   9.029 -0.1438 -0.6816 -0.0475
  399SOL    HW2 3830   9.630   0.972   8.975  0.0459 -0.2585 -0.2152
  400SOL     OW 3831   8.847   8.726   6.486  0.6415  0.4336  0.3368
  400SOL    HW1 3832   8.792   8.763   6.418 -0.5590  1.9767  2.0661
  400SOL    HW2 3833   8.934   8.719   6.446 -0.2406  0.3236 -1.6374
  401SOL     OW 3834   3.645   1.683   4.795 -0.4681  0.2312 -0.2233
  401SOL    HW1 3835   3.586   1.723   4.859  0.2281  1.8518 -0.5504
  401SOL    HW2 3836   3.591   1.672   4.716 -0.9639 -0.5617  0.2025
  402SOL     OW 3837   0.271   9.797   1.823  0.0632 -0.3561  0.8999
  402SOL    HW1 3838   0.317   9.864   1.773  1.3581  0.1851  2.6990
  402SOL    HW2 3839   0.195   9.775   1.770  1.3414  0.1669 -1.2622
  403SOL     OW 3840   5.000   7.951   4.900  0.1697 -0.2728  0.8895
  403SOL    HW1 3841   4.969   7.988   4.983  0.5605 -1.1480  1.4434
  403SOL    HW2 3842   5.086   7.991   4.887  0.2986 -0.4589  1.1418
  404SOL     OW 3843   2.160   4.458   9.739  0.1039  0.3833  0.0316
  404SOL    HW1 3844   2.090   4.406   9.699 -0.8170 -0.4863  2.5330
  404SOL    HW2 3845   2.114   4.522   9.793  1.1927 -0.2563  1.8056
  405SOL     OW 3846   4.528   1.823   5.864  0.4222 -0.0251 -0.1095
  405SOL    HW1 3847   4.500   1.790   5.779  1.3862  0.6085 -0.6797
  405SOL    HW2 3848   4.579   1.901   5.845  0.4851  0.2455  1.0642
  406SOL     OW 3849   1.836   2.752   6.340  0.1263 -0.3461 -0.1435
  406SOL    HW1 3850   1.801   2.755   6.251  0.6514 -0.9724 -0.3763
  406SOL    HW2 3851   1.878   2.837   6.352  0.0806 -0.2719 -0.5003
  407SOL     OW 3852   1.286   0.502   7.076 -0.4397 -0.2099  0.0088
  407SOL    HW1 3853   1.223   0.547   7.019  0.4022 -1.1763 -1.7693
  407SOL    HW2 3854   1.242   0.498   7.161 -1.5692  1.6846 -0.4138
  408SOL     OW 3855  10.084   3.574   3.063 -0.6277  0.6444  0.7635
  408SOL    HW1 3856  10.074   3.506   3.130  1.1675  1.9797  2.5131
  408SOL    HW2 3857  10.081   3.656   3.112  1.0689  1.6823 -0.7291
  409SOL     OW 3858   3.962   2.704   8.703  0.4436 -0.0226  0.4031
  409SOL    HW1 3859   3.945   2.648   8.627 -0.7294 -1.0691  1.4005
  409SOL    HW2 3860   3.881   2.753   8.715  0.9790  0.8958  0.3907
  410SOL     OW 3861   4.820   5.133   9.603 -0.2198  0.0111  0.4211
  410SOL    HW1 3862   4.877   5.192   9.553  0.8121 -0.2092  1.3160
  410SOL    HW2 3863   4.822   5.167   9.692 -0.2199 -0.9205  0.7893
  411SOL     OW 3864   2.799   3.021   8.460 -0.0475 -0.2702  0.5191
  411SOL    HW1 3865   2.751   2.950   8.503 -0.2530 -0.4401  0.0112
  411SOL    HW2 3866   2.797   2.998   8.367  0.6540 -0.0635  0.4485
  412SOL     OW 3867   8.443   9.390   3.330  0.0698  0.0344  0.0808
  412SOL    HW1 3868   8.499   9.429   3.397 -0.8617  0.4512  0.6361
  412SOL    HW2 3869   8.437   9.458   3.262 -0.3869  0.3068  0.3854
  413SOL     OW 3870   4.199   2.294   9.372 -0.2256 -0.0348  0.3808
  413SOL    HW1 3871   4.285   2.254   9.360  0.1753  0.5012  1.3294
  413SOL    HW2 3872   4.138   2.235   9.327  0.5643 -0.7343  0.2138
  414SOL     OW 3873   4.760   5.377   7.387  0.0411 -0.2281  0.0118
  414SOL    HW1 3874   4.794   5.295   7.351  1.1124  0.2448 -0.0876
  414SOL    HW2 3875   4.790   5.445   7.326 -0.7499  0.2587  0.1465
  415SOL     OW 3876   6.556   3.906   5.957 -0.3154 -0.7786 -0.2584
  415SOL    HW1 3877   6.588   3.951   5.878 -0.6375 -1.3861 -0.7439
  415SOL    HW2 3878   6.609   3.826   5.962  0.8823  0.0590  1.1097
  416SOL     OW 3879   7.483   6.704   7.857 -0.1412  0.4916 -0.3737
  416SOL    HW1 3880   7.412   6.728   7.797 -1.4434 -0.8818  0.5392
  416SOL    HW2 3881   7.536   6.783   7.865 -1.8502  1.7168 -0.7101
  417SOL     OW 3882   4.432   8.347   9.611 -0.5547 -0.5973  0.1232
  417SOL    HW1 3883   4.462   8.421   9.559  0.1508 -0.0610  1.2581
  417SOL    HW2 3884   4.487   8.273   9.582 -0.0569 -0.2671  0.2118
  418SOL     OW 3885   9.220   8.047   8.530 -0.4265 -0.3640 -0.1568
  418SOL    HW1 3886   9.302   7.998   8.528 -0.1776 -0.1800  2.2351
  418SOL    HW2 3887   9.170   8.014   8.456  0.2261 -3.4032  0.6148
  419SOL     OW 3888   8.406   3.708   2.959  0.1975 -0.4719  0.0904
  419SOL    HW1 3889   8.323   3.746   2.929  0.4774  0.0227 -0.0762
  419SOL    HW2 3890   8.472   3.771   2.930  0.6466 -0.9470  0.0764
  420SOL     OW 3891   7.120   2.332   0.345 -0.0881 -0.5014  0.1968
  420SOL    HW1 3892   7.184   2.262   0.358 -1.2536 -1.6626 -0.1498
  420SOL    HW2 3893   7.133   2.390   0.420  0.4629 -1.4279  0.8347
  421SOL     OW 3894   7.645   9.673   9.759 -0.1646  0.2133  0.4193
  421SOL    HW1 3895   7.589   9.678   9.836 -0.8470 -1.9851  0.1275
  421SOL    HW2 3896   7.727   9.714   9.786 -0.3325 -0.6228  2.3727
  422SOL     OW 3897   4.374   8.525   0.916  0.3649 -0.3008  0.4720
  422SOL    HW1 3898   4.366   8.584   0.841  1.3308  0.6927  1.1171
  422SOL    HW2 3899   4.301   8.464   0.907  2.5747 -2.7454 -3.4665
  423SOL     OW 3900   5.459   9.586   8.658 -0.2198 -0.0387 -0.0515
  423SOL    HW1 3901   5.547   9.586   8.622  0.2149  0.6456  0.9414
  423SOL    HW2 3902   5.403   9.555   8.587  0.6598  0.7237 -1.1003
  424SOL     OW 3903   8.477   1.833   1.858  0.5357 -0.1546  0.1867
  424SOL    HW1 3904   8.415   1.896   1.896  0.3048 -0.4049  0.2279
  424SOL    HW2 3905   8.498   1.774   1.930  0.6029 -0.2436  0.0944
  425SOL     OW 3906   3.861   1.074   4.474 -0.0512 -0.2892  0.5538
  425SOL    HW1 3907   3.873   1.048   4.383 -3.1846 -0.6881  0.1415
  425SOL    HW2 3908   3.845   1.168   4.470  1.9018  0.1150  1.0079
  426SOL     OW 3909   2.186   9.993   6.488 -0.3610 -0.4647 -0.4919
  426SOL    HW1 3910   2.140   9.910   6.502  1.1034 -1.3366 -0.6855
  426SOL    HW2 3911   2.165  10.045   6.565 -1.0585 -1.1221 -0.2215
  427SOL     OW 3912   6.265   1.868   5.673  0.4418  0.2820  0.0404
  427SOL    HW1 3913   6.196   1.851   5.609 -0.5484  0.3572  1.0550
  427SOL    HW2 3914   6.274   1.964   5.674  0.2569  0.2960  0.2298
  428SOL     OW 3915  10.058   3.519   4.144  0.2411 -0.3270 -0.4343
  428SOL    HW1 3916   9.970   3.514   4.182 -0.8782  0.8688 -2.6504
  428SOL    HW2 3917  10.068   3.611   4.120  2.0755 -0.4704 -0.3852
  429SOL     OW 3918   8.371   1.359   9.714  0.3467 -0.4810 -0.0177
  429SOL    HW1 3919   8.391   1.296   9.784 -2.0066 -0.8632  0.3898
  429SOL    HW2 3920   8.306   1.314   9.660 -1.0552  1.3857  0.0172
  430SOL     OW 3921   7.779   6.675   8.119  0.7662  0.2206  0.1270
  430SOL    HW1 3922   7.799   6.768   8.128 -0.0874  0.4017  0.1881
  430SOL    HW2 3923   7.743   6.666   8.031 -0.6528  0.2323  0.6864
  431SOL     OW 3924   6.044   6.497   6.413 -0.5903 -0.4156 -0.1816
  431SOL    HW1 3925   6.127   6.500   6.366 -0.3837 -0.3502  0.1790
  431SOL    HW2 3926   6.045   6.576   6.468 -0.0834 -1.3058  1.1479
  432SOL     OW 3927   2.657   6.230   5.861  0.4043  0.2343  0.3497
  432SOL    HW1 3928   2.697   6.281   5.791 -0.3759  0.4314  0.0431
  432SOL    HW2 3929   2.579   6.280   5.886 -0.6161 -1.0092 -0.2544
  433SOL     OW 3930   2.636   4.437   6.705  0.3585  0.0676  0.3784
  433SOL    HW1 3931   2.722   4.466   6.675  0.0554  2.7260  1.7871
  433SOL    HW2 3932   2.651   4.410   6.796  0.2580 -2.7193 -0.3404
  434SOL     OW 3933   3.263   5.212   8.828  0.0462  0.3020  0.4119
  434SOL    HW1 3934   3.353   5.199   8.858  0.1115 -0.9656 -0.2880
  434SOL    HW2 3935   3.270   5.227   8.734 -0.5554 -1.3203  0.0702
  435SOL     OW 3936   4.934   4.999   9.401 -0.6912  0.5001 -0.3313
  435SOL    HW1 3937   4.887   4.931   9.354 -1.5934  1.2438 -0.5206
  435SOL    HW2 3938   4.877   5.023   9.474  0.1864  0.1656  0.4952
  436SOL     OW 3939   9.316   8.606   7.679 -0.2403 -0.1821 -0.1692
  436SOL    HW1 3940   9.385   8.657   7.721  0.4039 -1.2875  0.1373
  436SOL    HW2 3941   9.235   8.636   7.721 -0.4211  3.2909 -2.5201
  437SOL     OW 3942   8.350   3.113   0.464 -0.3947 -0.0721 -0.2057
  437SOL    HW1 3943   8.289   3.178   0.429 -1.2934 -0.6621  0.2180
  437SOL    HW2 3944   8.326   3.104   0.556 -0.0475 -0.7313 -0.1722
  438SOL     OW 3945   0.946   4.638   0.287 -0.9702  0.1285 -0.1233
  438SOL    HW1 3946   0.975   4.697   0.356  0.0827 -0.9439  0.3868
  438SOL    HW2 3947   0.886   4.576   0.330 -0.6678 -0.2681 -0.2639
  439SOL     OW 3948   1.983   5.443   7.747 -0.5190 -0.0893 -0.0984
  439SOL    HW1 3949   2.038   5.520   7.732 -3.4096  2.0082 -0.7628
  439SOL    HW2 3950   1.995   5.389   7.669  1.8862 -0.6092  0.5676
  440SOL     OW 3951   4.368   9.865   3.482  0.0131 -0.2912 -0.3949
  440SOL    HW1 3952   4.392   9.917   3.560  0.2052 -0.3582 -0.4072
  440SOL    HW2 3953   4.342   9.780   3.517  0.6560 -0.5146 -0.4377
  441SOL     OW 3954   4.973   7.794   2.834 -0.2422  0.1319 -0.2210
  441SOL    HW1 3955   5.027   7.730   2.879  0.8689  0.1790 -1.4334
  441SOL    HW2 3956   4.984   7.774   2.741 -2.7036 -0.1538 -0.5220
  442SOL     OW 3957   8.175   6.950   3.138  0.1557 -0.6847 -0.0537
  442SOL    HW1 3958   8.218   6.911   3.215 -1.4804 -0.8761  0.8102
  442SOL    HW2 3959   8.152   7.039   3.167 -1.4286 -1.1190  0.0817
  443SOL     OW 3960   5.601   5.615  10.334 -0.5111  0.3646  0.4457
  443SOL    HW1 3961   5.617   5.699  10.377 -0.4936 -0.3684  1.9335
  443SOL    HW2 3962   5.675   5.560  10.360 -0.6028 -0.1656 -0.3816
  444SOL     OW 3963   0.394   6.689   4.512  1.0656 -0.3785  0.1143
  444SOL    HW1 3964   0.390   6.597   4.483  0.7022 -0.3095 -0.0603
  444SOL    HW2 3965   0.405   6.683   4.607 -0.9900 -0.6294  0.3993
  445SOL     OW 3966   9.286   4.228  10.010  0.8535  0.2088  0.0592
  445SOL    HW1 3967   9.345   4.264  10.077 -0.4045  0.5722  1.0126
  445SOL    HW2 3968   9.212   4.289  10.007 -0.7684 -1.6006  0.8489
  446SOL     OW 3969   7.474   0.237   8.249 -0.0845 -0.2294  0.2266
  446SOL    HW1 3970   7.418   0.309   8.278 -0.4857 -0.3255 -0.3072
  446SOL    HW2 3971   7.488   0.253   8.156  1.3346  0.1682  0.4748
  447SOL     OW 3972   9.245   6.431   3.455  0.0549  0.2939  0.1274
  447SOL    HW1 3973   9.203   6.435   3.541 -0.9701 -0.1582 -0.3335
  447SOL    HW2 3974   9.195   6.364   3.407  1.9300 -1.0204 -0.1096
  448SOL     OW 3975   2.471   7.803   3.907  0.0037  0.2373  0.1684
  448SOL    HW1 3976   2.473   7.879   3.966 -0.3497  0.4688 -0.1110
  448SOL    HW2 3977   2.533   7.741   3.945  0.4526  0.7509  0.2832
  449SOL     OW 3978   3.377   7.811  10.103  0.2854 -0.0425  0.1189
  449SOL    HW1 3979   3.335   7.817  10.189  1.2286 -0.0631  0.5972
  449SOL    HW2 3980   3.364   7.897  10.064  0.5085  0.2175  0.6050
  450SOL     OW 3981   3.108   5.227   0.600  0.0278  0.2439 -0.3999
  450SOL    HW1 3982   3.177   5.287   0.569  1.4437 -1.3550 -0.5007
  450SOL    HW2 3983   3.156   5.150   0.630 -1.6022 -0.0024  1.7532
  451SOL     OW 3984   1.597   7.654   0.422 -0.3788  0.3512 -0.3181
  451SOL    HW1 3985   1.685   7.649   0.386 -0.4548 -1.8357 -0.3491
  451SOL    HW2 3986   1.544   7.601   0.362 -1.4665  0.6650  0.3401
  452SOL     OW 3987   9.565   2.430   9.736  0.5285  0.1255 -0.2845
  452SOL    HW1 3988   9.473   2.402   9.738  0.8329 -1.1181 -1.6738
  452SOL    HW2 3989   9.578   2.477   9.818 -1.2973  0.1612  0.0254
  453SOL     OW 3990   0.456   2.809   9.827 -0.1319 -0.1643 -0.0572
  453SOL    HW1 3991   0.436   2.897   9.794  0.9453  0.5500  1.0875
  453SOL    HW2 3992   0.432   2.750   9.755 -0.5846  1.0885 -0.9670
  454SOL     OW 3993   8.197   1.852   4.200 -0.0020 -0.1428 -0.0091
  454SOL    HW1 3994   8.171   1.908   4.274  1.3690  0.0631  0.3345
  454SOL    HW2 3995   8.125   1.789   4.193 -0.2719 -0.0328  1.3581
  455SOL     OW 3996   2.367   6.238   1.377  0.4275  0.4113 -0.8725
  455SOL    HW1 3997   2.384   6.246   1.283  0.6606  1.7485 -0.7398
  455SOL    HW2 3998   2.439   6.285   1.418  0.3501 -0.2038 -0.0119
  456SOL     OW 3999   6.128   8.874   7.566  0.1814  0.9357 -0.0583
  456SOL    HW1 4000   6.157   8.791   7.530 -1.1865  0.8202 -0.9627
  456SOL    HW2 4001   6.206   8.930   7.564  0.5495  0.3996 -1.6221
  457SOL     OW 4002   7.147   1.652   0.875  0.0207  0.7045  0.8586
  457SOL    HW1 4003   7.098   1.733   0.860 -2.4678 -0.7677  0.5298
  457SOL    HW2 4004   7.111   1.590   0.811 -0.0521 -1.4082  2.8452
  458SOL     OW 4005   7.216   3.345   3.979 -0.0562  0.0132  0.0317
  458SOL    HW1 4006   7.210   3.252   3.957 -1.4482  0.4107 -1.4935
  458SOL    HW2 4007   7.127   3.377   3.970  0.6257  1.7783 -0.9126
  459SOL     OW 4008   7.693   1.962   1.039 -0.6879 -0.2828 -0.1114
  459SOL    HW1 4009   7.734   1.885   1.078  1.9403  1.3293  0.5121
  459SOL    HW2 4010   7.733   2.036   1.084 -3.4404  1.5181 -0.3572
  460SOL     OW 4011   3.413   4.351   2.776 -0.0917 -0.0881  0.0135
  460SOL    HW1 4012   3.366   4.375   2.696  2.8513 -1.2214 -2.2694
  460SOL    HW2 4013   3.414   4.255   2.775  2.1127 -0.1049 -0.0153
  461SOL     OW 4014   8.464   5.116   7.031  0.0047  0.0789  0.5729
  461SOL    HW1 4015   8.377   5.154   7.015  0.9046  1.7644 -0.6737
  461SOL    HW2 4016   8.518   5.149   6.959  1.4241 -1.9058  0.6271
  462SOL     OW 4017   5.960   7.399   1.663 -0.0040  0.1759  0.1753
  462SOL    HW1 4018   6.021   7.326   1.668  0.6981  0.8223  1.6564
  462SOL    HW2 4019   5.878   7.360   1.631 -0.0819 -1.5819  2.2651
  463SOL     OW 4020   3.437   2.664   1.665 -0.6518 -0.2983 -0.5326
  463SOL    HW1 4021   3.432   2.581   1.711  0.6412  0.1748  0.4981
  463SOL    HW2 4022   3.499   2.649   1.594 -0.1926 -0.1276 -0.1660
  464SOL     OW 4023   5.228   0.260   9.188  0.0035  0.1371 -0.0461
  464SOL    HW1 4024   5.219   0.340   9.136 -3.5231 -0.7295 -1.0372
  464SOL    HW2 4025   5.243   0.292   9.277 -0.3889  1.8784 -0.5500
  465SOL     OW 4026   6.779   2.228   5.327  0.5037 -0.2563  0.1516
  465SOL    HW1 4027   6.714   2.275   5.275 -0.5173 -0.6682  1.0131
  465SOL    HW2 4028   6.804   2.289   5.396 -1.6346 -1.2388  1.9298
  466SOL     OW 4029   7.424   8.654   5.337  0.0440 -0.2320  0.4301
  466SOL    HW1 4030   7.513   8.627   5.361  0.8984  1.2710 -0.8115
  466SOL    HW2 4031   7.383   8.575   5.303  0.8847 -0.9633  1.0760
  467SOL     OW 4032   5.267  10.153   1.704  0.4770 -0.1921 -0.2703
  467SOL    HW1 4033   5.270  10.105   1.786 -0.6837 -1.2518 -0.8055
  467SOL    HW2 4034   5.292  10.242   1.727 -2.2430  0.1844  1.7462
  468SOL     OW 4035   9.870   7.800   8.744 -0.2846  0.1072  0.2917
  468SOL    HW1 4036   9.906   7.816   8.831 -0.8871 -1.5385  0.8758
  468SOL    HW2 4037   9.935   7.743   8.701  0.0458  0.9648 -0.3871
  469SOL     OW 4038   7.851   4.344   5.539 -0.0222 -0.0832 -0.2012
  469SOL    HW1 4039   7.879   4.381   5.623 -0.9866 -2.8840  1.4899
  469SOL    HW2 4040   7.932   4.310   5.500  0.6763  2.5629 -1.2222
  470SOL     OW 4041   3.750   7.111   6.279 -0.3441  0.0928 -0.1541
  470SOL    HW1 4042   3.825   7.164   6.306  1.5302 -1.8320 -1.3018
  470SOL    HW2 4043   3.730   7.055   6.354  1.2142 -1.3136 -0.7369
  471SOL     OW 4044   9.805  10.195   2.017 -0.4599 -0.4753  0.1262
  471SOL    HW1 4045   9.832  10.287   2.014 -0.0374 -0.6168 -1.1486
  471SOL    HW2 4046   9.764  10.180   1.932 -3.5485 -0.6105  1.4929
  472SOL     OW 4047   9.636   4.874   7.551  0.1279  0.6760  0.2360
  472SOL    HW1 4048   9.665   4.787   7.524  0.0791  0.3401  1.2351
  472SOL    HW2 4049   9.606   4.915   7.471  3.2042  0.9888 -0.9062
  473SOL     OW 4050   5.149  10.238   4.154  0.1351 -0.3543 -0.4238
  473SOL    HW1 4051   5.216  10.173   4.176  0.3460  0.1353  0.4227
  473SOL    HW2 4052   5.191  10.295   4.089  0.6376  0.0858  0.2692
  474SOL     OW 4053   9.813   9.115   3.785  0.9563  0.5507  0.3129
  474SOL    HW1 4054   9.782   9.143   3.699  1.1609 -1.1528 -0.3591
  474SOL    HW2 4055   9.900   9.152   3.794  1.5519 -0.4887 -0.9031
  475SOL     OW 4056   3.138   3.432   6.284  0.0358  0.2345  0.3998
  475SOL    HW1 4057   3.103   3.378   6.213  1.1791 -0.0725  0.0425
  475SOL    HW2 4058   3.151   3.518   6.245  2.0464 -0.3008 -0.2385
  476SOL     OW 4059   1.445   7.612   5.801 -0.4578 -0.3330 -0.0612
  476SOL    HW1 4060   1.467   7.520   5.815 -1.5740 -0.6678 -0.3644
  476SOL    HW2 4061   1.521   7.660   5.833 -0.5378 -1.2816  1.7286
  477SOL     OW 4062   5.003   6.353   4.009  0.1717  0.2933 -0.1967
  477SOL    HW1 4063   4.925   6.409   4.016 -0.5061 -0.7256  0.8669
  477SOL    HW2 4064   5.046   6.382   3.928 -1.2182  0.9928 -0.7288
  478SOL     OW 4065   4.010   5.338   8.136  0.1910 -0.1644  0.2362
  478SOL    HW1 4066   3.917   5.315   8.136  0.4511 -1.2824  0.2532
  478SOL    HW2 4067   4.055   5.256   8.118  1.1568  0.4873 -0.4331
  479SOL     OW 4068   4.015   7.755   4.223  0.4756  0.3931 -0.3673
  479SOL    HW1 4069   4.071   7.678   4.210 -1.1134 -0.6979 -1.1731
  479SOL    HW2 4070   3.941   7.740   4.165 -1.2077  1.2025  1.4617
  480SOL     OW 4071   0.760   9.836   0.997 -0.2843  0.4720  0.0120
  480SOL    HW1 4072   0.705   9.836   1.075  0.1458  0.4981  0.3138
  480SOL    HW2 4073   0.708   9.882   0.931 -0.4795  0.8050  0.4000
  481SOL     OW 4074   2.187   7.129   8.024  0.7872 -0.3623 -0.3299
  481SOL    HW1 4075   2.154   7.200   8.078  1.6250  1.0552 -1.6103
  481SOL    HW2 4076   2.144   7.050   8.058 -0.5434  0.8126  0.7978
  482SOL     OW 4077   5.112   4.360   1.533 -0.4309 -0.3996 -0.0496
  482SOL    HW1 4078   5.110   4.354   1.438 -2.5369 -2.8288  0.0382
  482SOL    HW2 4079   5.047   4.426   1.555  0.7673  0.9022 -0.2540
  483SOL     OW 4080   0.458   4.822   7.118  0.6797 -0.2044  0.2759
  483SOL    HW1 4081   0.511   4.788   7.190  0.0178  0.4927  1.1037
  483SOL    HW2 4082   0.521   4.862   7.058  1.1308  0.1887  1.0071
  484SOL     OW 4083   2.616   3.455   9.505  0.1957  0.4659 -0.5427
  484SOL    HW1 4084   2.681   3.488   9.567 -1.6253  0.8145  1.2891
  484SOL    HW2 4085   2.565   3.533   9.481 -0.4888 -0.0440 -0.7567
  485SOL     OW 4086   2.596   4.835   0.628  0.0788 -0.8451 -0.6444
  485SOL    HW1 4087   2.573   4.744   0.613  0.5778 -0.8707 -1.2482
  485SOL    HW2 4088   2.512   4.878   0.646 -0.1768 -1.3792 -0.5403
  486SOL     OW 4089   2.275   0.222   6.761  0.7076 -0.2136  0.1692
  486SOL    HW1 4090   2.185   0.201   6.732  0.0469  3.1278 -0.5598
  486SOL    HW2 4091   2.297   0.151   6.821 -1.7281 -2.1152 -0.9720
  487SOL     OW 4092   1.369   5.836   9.225  0.2964  0.0934  0.4902
  487SOL    HW1 4093   1.427   5.894   9.275  0.6690  0.0226  0.1513
  487SOL    HW2 4094   1.422   5.809   9.150 -0.0941 -0.1782  0.3095
  488SOL     OW 4095   8.056   4.745   4.528  0.3828 -0.2504  0.1607
  488SOL    HW1 4096   8.117   4.704   4.466  0.4145 -1.1554  0.7793
  488SOL    HW2 4097   7.998   4.674   4.554 -1.1223  0.6506 -0.6113
  489SOL     OW 4098   7.028   7.063   2.583 -0.0405  0.0106  0.1483
  489SOL    HW1 4099   7.013   7.128   2.513 -0.1094 -1.2070 -1.0042
  489SOL    HW2 4100   6.956   7.076   2.644 -1.5390 -0.6761 -1.4097
  490SOL     OW 4101   0.787   6.570   2.738  0.3537  0.0607 -0.2249
  490SOL    HW1 4102   0.739   6.638   2.691  1.5627  0.3470 -1.0652
  490SOL    HW2 4103   0.757   6.579   2.829 -0.0116  1.2578 -0.4476
  491SOL     OW 4104   3.047   7.380   4.266 -0.3934  0.7638 -0.0770
  491SOL    HW1 4105   2.971   7.360   4.211 -0.7158  1.3597  0.1370
  491SOL    HW2 4106   3.009   7.415   4.346  0.1207  1.4745 -0.1382
  492SOL     OW 4107   6.945   2.178   8.735  0.5288 -0.0068 -0.2300
  492SOL    HW1 4108   6.902   2.101   8.698 -0.0240  1.5188 -3.0342
  492SOL    HW2 4109   7.020   2.194   8.677  1.2231  1.0021  0.8873
  493SOL     OW 4110   5.014   2.509   0.343 -0.1224  0.1696 -0.8119
  493SOL    HW1 4111   5.069   2.571   0.296 -0.2865 -0.0860 -1.3481
  493SOL    HW2 4112   5.074   2.438   0.368 -0.2051 -0.1139 -1.4047
  494SOL     OW 4113   6.958   7.243   1.698  0.5235 -0.3622  0.5326
  494SOL    HW1 4114   6.926   7.167   1.746 -0.6393 -0.2158  0.0345
  494SOL    HW2 4115   6.941   7.317   1.755 -1.8032 -0.0642 -0.4325
  495SOL     OW 4116   2.378   9.229   7.316  0.4997  0.0186  0.1425
  495SOL    HW1 4117   2.304   9.168   7.313  1.1628 -0.8333  0.5410
  495SOL    HW2 4118   2.365   9.279   7.396  1.2108 -1.2817  1.1107
  496SOL     OW 4119   0.007   2.633   9.399 -0.2597 -0.2084 -0.7646
  496SOL    HW1 4120  -0.067   2.674   9.353 -0.2325 -0.4565 -1.0331
  496SOL    HW2 4121   0.008   2.543   9.366 -0.2860 -0.4115 -0.2207
  497SOL     OW 4122   6.739   1.456   3.168 -0.2959  0.1476  0.4732
  497SOL    HW1 4123   6.695   1.388   3.118 -1.8937  1.1495  0.4536
  497SOL    HW2 4124   6.754   1.526   3.103 -2.1609  1.3584  1.2724
  498SOL     OW 4125   4.402   1.022   1.505  0.0008  0.1017 -0.8053
  498SOL    HW1 4126   4.479   0.979   1.467  1.3696  0.3158  1.5178
  498SOL    HW2 4127   4.364   0.956   1.564  1.0315  1.3208  1.3744
  499SOL     OW 4128   7.930   0.290   1.979  0.1968  0.0864 -0.7055
  499SOL    HW1 4129   7.905   0.205   2.015  1.3105 -0.2683 -0.7225
  499SOL    HW2 4130   7.948   0.272   1.887  0.0734  0.4261 -0.7988
  500SOL     OW 4131   0.279   1.114   7.058  0.2466 -0.0419  0.6017
  500SOL    HW1 4132   0.208   1.130   6.995 -0.5667 -2.3822  0.8385
  500SOL    HW2 4133   0.294   1.200   7.099 -3.0411  0.4178  1.1377
  501SOL     OW 4134   3.136   1.004   2.035  0.1571  0.1529  0.2286
  501SOL    HW1 4135   3.211   0.991   1.978 -0.3680  1.3887 -0.7984
  501SOL    HW2 4136   3.072   1.050   1.981 -0.7806  0.4185  1.5001
  502SOL     OW 4137   7.846   0.316   8.511  0.1169 -0.3012 -1.1077
  502SOL    HW1 4138   7.824   0.374   8.584  0.4723  0.0247 -1.2598
  502SOL    HW2 4139   7.794   0.349   8.437 -1.0299 -1.2479 -0.7617
  503SOL     OW 4140   3.968   4.370   8.782 -0.7101  0.2025  0.3514
  503SOL    HW1 4141   3.906   4.435   8.814 -0.0872  0.9261  0.0973
  503SOL    HW2 4142   4.053   4.399   8.814 -0.2094  0.3904 -1.0645
  504SOL     OW 4143   6.918   3.970   9.948 -0.2656 -0.1596  0.7871
  504SOL    HW1 4144   6.978   3.961   9.873 -1.2468  0.4920 -0.0987
  504SOL    HW2 4145   6.882   4.058   9.939  0.0862  0.1731  2.4175
  505SOL     OW 4146   2.300   7.315   3.532  0.5064 -0.0147  0.4763
  505SOL    HW1 4147   2.249   7.375   3.478 -0.7117 -1.8231 -0.4756
  505SOL    HW2 4148   2.295   7.352   3.620 -0.4995  1.0860 -0.0216
  506SOL     OW 4149   7.179   2.574   6.802  0.7484 -0.0792 -0.4241
  506SOL    HW1 4150   7.111   2.520   6.842  0.2352  0.9928  0.1743
  506SOL    HW2 4151   7.136   2.611   6.724  0.1199  1.7880  0.7536
  507SOL     OW 4152   4.822   4.248   2.580  0.0255 -0.0975 -0.3065
  507SOL    HW1 4153   4.737   4.288   2.561  0.3174  1.5442  1.4833
  507SOL    HW2 4154   4.862   4.235   2.495 -1.3331  0.7075 -1.0990
  508SOL     OW 4155  10.268   5.344   1.865  0.1859  0.0398  0.0699
  508SOL    HW1 4156  10.342   5.312   1.814 -0.6229 -0.5633 -0.7579
  508SOL    HW2 4157  10.250   5.432   1.829 -0.8963 -0.6976 -1.3154
  509SOL     OW 4158   5.895   5.455   0.568  0.4613 -0.2992 -0.4705
  509SOL    HW1 4159   5.960   5.443   0.637  0.3834 -2.3750 -0.6975
  509SOL    HW2 4160   5.908   5.381   0.509 -1.2236 -0.0275 -1.2501
  510SOL     OW 4161   5.120   7.520   4.496  0.5126  0.0195  0.0238
  510SOL    HW1 4162   5.136   7.431   4.465  1.5526 -0.3317  1.5020
  510SOL    HW2 4163   5.204   7.565   4.486  1.3405 -0.5124  3.5159
  511SOL     OW 4164   3.761   6.152   9.208 -0.0194 -0.3736  0.0036
  511SOL    HW1 4165   3.831   6.217   9.211 -0.4074  0.0119  1.4388
  511SOL    HW2 4166   3.806   6.068   9.201  0.4740  0.0358 -2.4454
  512SOL     OW 4167   6.756   0.142   2.184  0.0250  0.1542  0.2269
  512SOL    HW1 4168   6.699   0.195   2.127  0.2592 -0.7402 -0.8861
  512SOL    HW2 4169   6.720   0.054   2.178  1.7957 -0.5565 -0.9656
  513SOL     OW 4170   6.747   5.722   1.278  0.3744 -0.2208  0.4670
  513SOL    HW1 4171   6.739   5.649   1.217  1.9426  0.4815 -0.6338
  513SOL    HW2 4172   6.790   5.685   1.354  0.9171 -0.5140  0.0251
  514SOL     OW 4173  10.213  10.062   9.227  0.4772  0.2089  0.4307
  514SOL    HW1 4174  10.280  10.004   9.261  0.8528  0.5943  0.3624
  514SOL    HW2 4175  10.261  10.125   9.173  0.0530  0.4397  0.3152
  515SOL     OW 4176   5.003   5.368   1.436  0.1436 -0.3105  0.1847
  515SOL    HW1 4177   4.953   5.310   1.494 -0.6775 -0.0171 -0.2132
  515SOL    HW2 4178   5.093   5.337   1.443 -0.0082 -0.5740  1.2694
  516SOL     OW 4179   6.149   3.852   4.017 -0.3260 -0.0466 -0.0120
  516SOL    HW1 4180   6.078   3.789   4.002  0.4804 -1.3244  1.2713
  516SOL    HW2 4181   6.223   3.798   4.043  1.3014  1.2102 -1.7826
  517SOL     OW 4182   0.259   5.074   5.591  0.1174  0.2157  0.4861
  517SOL    HW1 4183   0.259   5.079   5.687  2.0986 -2.8455  0.7966
  517SOL    HW2 4184   0.333   5.128   5.564  1.3526 -1.1578  0.9891
  518SOL     OW 4185   4.683   7.877   0.592 -0.0375 -0.5199 -0.1034
  518SOL    HW1 4186   4.642   7.963   0.583  0.8947  0.1243  1.3361
  518SOL    HW2 4187   4.682   7.840   0.504 -1.6865  0.3831 -0.4928
  519SOL     OW 4188   6.271   7.683   1.719 -0.3549 -0.4185 -0.6445
  519SOL    HW1 4189   6.235   7.680   1.808 -0.8736  0.6029 -0.8043
  519SOL    HW2 4190   6.206   7.639   1.665 -0.2563 -0.6327 -0.5899
  520SOL     OW 4191   7.586   3.894   0.495  0.0904  0.0064  0.1997
  520SOL    HW1 4192   7.657   3.831   0.496  0.5966  0.5686  0.3707
  520SOL    HW2 4193   7.546   3.886   0.409  1.4125  0.8398 -0.5198
  521SOL     OW 4194   4.314   6.465   0.319 -0.3892  0.2226 -0.0698
  521SOL    HW1 4195   4.249   6.531   0.296 -0.8651 -0.3356 -0.3313
  521SOL    HW2 4196   4.376   6.512   0.375 -0.9746  0.7735  0.1308
  522SOL     OW 4197   8.289   1.855   0.550  0.2141  0.1860  0.1212
  522SOL    HW1 4198   8.274   1.948   0.563  0.3014  0.0236  1.4873
  522SOL    HW2 4199   8.222   1.812   0.602  1.8350 -0.5084  1.7611
  523SOL     OW 4200   3.014   8.998   3.668  0.1110  0.0377 -0.0606
  523SOL    HW1 4201   3.063   9.076   3.644 -0.7198  0.4459 -0.4457
  523SOL    HW2 4202   2.975   8.968   3.586 -1.3132  0.4396  0.4440
  524SOL     OW 4203   6.093   4.880   0.364  0.0588  0.0356 -0.4703
  524SOL    HW1 4204   6.112   4.818   0.435  0.7554 -0.5862 -1.1928
  524SOL    HW2 4205   6.000   4.865   0.344  0.5098 -1.6139 -1.4282
  525SOL     OW 4206   4.090   3.858   5.579 -0.1852 -0.1279  0.3839
  525SOL    HW1 4207   4.043   3.824   5.503  0.8752 -0.2702 -0.2290
  525SOL    HW2 4208   4.035   3.929   5.612 -0.6705 -0.0828 -0.5043
  526SOL     OW 4209   5.549   3.127   4.818  0.0625 -0.4832  0.4035
  526SOL    HW1 4210   5.487   3.066   4.856 -0.7873 -1.1388 -1.8562
  526SOL    HW2 4211   5.510   3.213   4.833 -1.0116 -0.8305 -0.2704
  527SOL     OW 4212   2.060   9.749   4.994  0.2097 -0.1334  0.0873
  527SOL    HW1 4213   2.103   9.671   4.958  1.0485  0.3739 -0.0405
  527SOL    HW2 4214   2.130   9.814   4.998  0.0766 -0.0545  2.3198
  528SOL     OW 4215   2.669   7.731   0.633 -0.5007  0.0555  0.6261
  528SOL    HW1 4216   2.620   7.702   0.556 -0.6963 -0.1892  0.8380
  528SOL    HW2 4217   2.723   7.803   0.602 -1.2674  0.5671  0.4640
  529SOL     OW 4218  10.056   5.329   1.581  0.0077  0.3612  0.1531
  529SOL    HW1 4219   9.997   5.343   1.507 -0.9386 -4.3731 -0.3566
  529SOL    HW2 4220   9.999   5.299   1.652  1.3898 -0.6712  0.8845
  530SOL     OW 4221   0.453   3.375   3.772  0.0419  0.3470 -0.4975
  530SOL    HW1 4222   0.450   3.446   3.708  2.4244  3.3244  2.2853
  530SOL    HW2 4223   0.371   3.383   3.822 -1.0067 -0.8450 -1.9456
  531SOL     OW 4224   2.372   3.955   8.136 -0.1554 -0.0650 -0.0628
  531SOL    HW1 4225   2.362   4.016   8.208 -2.5230  1.2795 -1.3870
  531SOL    HW2 4226   2.452   3.982   8.091  0.2604  0.3219  0.8875
  532SOL     OW 4227   8.095   8.146   8.217  0.1483  0.2062  0.4460
  532SOL    HW1 4228   8.011   8.119   8.255  0.0254  0.5826  0.4462
  532SOL    HW2 4229   8.099   8.102   8.133 -0.6062  1.1499 -0.0977
  533SOL     OW 4230   9.669   2.255   8.239  0.1559  0.2371  0.0417
  533SOL    HW1 4231   9.687   2.221   8.327  0.3921  3.0070  1.1464
  533SOL    HW2 4232   9.579   2.286   8.243  0.7278  1.9912 -0.1068
  534SOL     OW 4233   7.773   3.941   3.213 -0.2840 -0.5544 -0.1625
  534SOL    HW1 4234   7.682   3.963   3.235  0.0667  0.2370  0.5842
  534SOL    HW2 4235   7.795   3.999   3.140 -0.3108 -0.5840 -0.1940
  535SOL     OW 4236   0.681  10.077   1.321  0.2686 -0.7515  0.1559
  535SOL    HW1 4237   0.601  10.046   1.279  0.8098 -1.8952 -0.0719
  535SOL    HW2 4238   0.740  10.096   1.248  0.4510 -0.5949  0.3444
  536SOL     OW 4239   6.287   4.243   6.599 -0.2921 -0.2098  0.3489
  536SOL    HW1 4240   6.347   4.251   6.525  1.0088  1.9085  1.5364
  536SOL    HW2 4241   6.344   4.228   6.675 -1.5980 -2.5877  0.9556
  537SOL     OW 4242   3.211   4.743   0.897  0.2002  0.6276 -0.0624
  537SOL    HW1 4243   3.239   4.834   0.891  0.6786  0.4837 -0.0281
  537SOL    HW2 4244   3.253   4.700   0.823 -0.4768  0.5486 -0.4056
  538SOL     OW 4245   7.090  10.190   0.726  0.5973  0.3452 -0.5646
  538SOL    HW1 4246   7.147  10.117   0.702  1.3193  0.7428 -0.0521
  538SOL    HW2 4247   7.072  10.235   0.643  2.7804  1.4891 -0.4743
  539SOL     OW 4248   0.699   1.107   4.468  0.0406  0.0512 -0.3538
  539SOL    HW1 4249   0.683   1.026   4.419  1.7449 -0.5250 -0.0290
  539SOL    HW2 4250   0.641   1.171   4.428  0.1065 -0.8402 -1.9548
  540SOL     OW 4251   1.779   1.484   3.074 -0.6157 -0.0552 -0.3863
  540SOL    HW1 4252   1.728   1.450   3.000 -0.8127 -1.2874  0.2894
  540SOL    HW2 4253   1.793   1.577   3.053  2.7214 -1.0915 -3.9092
  541SOL     OW 4254   8.230  10.195   2.153 -0.1463 -0.0874  0.2610
  541SOL    HW1 4255   8.266  10.234   2.233 -0.4230 -0.4969  0.5851
  541SOL    HW2 4256   8.143  10.164   2.177 -1.7744  3.0071 -1.0993
  542SOL     OW 4257   5.827   6.454   1.468 -0.1996 -0.2459  0.1051
  542SOL    HW1 4258   5.787   6.507   1.399  1.2773 -0.1619 -0.7320
  542SOL    HW2 4259   5.887   6.396   1.422  1.1652  0.1211  1.3408
  543SOL     OW 4260  10.261   0.004   8.491 -0.1444 -0.2957 -0.0781
  543SOL    HW1 4261  10.305  -0.056   8.431  0.0932 -0.2551  0.0521
  543SOL    HW2 4262  10.230  -0.052   8.562 -0.0782 -0.2901 -0.0448
  544SOL     OW 4263   8.771   0.003   7.565  0.2531  0.0284  1.0851
  544SOL    HW1 4264   8.806  -0.066   7.621  3.4059  0.2914 -0.3605
  544SOL    HW2 4265   8.685  -0.030   7.537  1.2555 -2.9185  1.1789
  545SOL     OW 4266   0.342   0.848   5.029 -0.2721 -0.1679 -0.0905
  545SOL    HW1 4267   0.252   0.817   5.034 -0.5437  0.7839  1.4698
  545SOL    HW2 4268   0.394   0.769   5.046 -0.8714 -0.4376  0.5918
  546SOL     OW 4269   9.633   0.258   8.972  0.0905 -0.3048 -0.3484
  546SOL    HW1 4270   9.692   0.234   9.043  0.1759 -0.4530 -0.4692
  546SOL    HW2 4271   9.625   0.179   8.919 -0.5489 -0.4095 -0.1059
  547SOL     OW 4272   6.255   1.987   6.291  0.2297 -0.6069  0.3601
  547SOL    HW1 4273   6.287   2.023   6.208  1.5554  0.1837  1.1852
  547SOL    HW2 4274   6.201   2.057   6.327 -2.5640 -1.9049 -0.9930
  548SOL     OW 4275  10.228   9.123   5.512  0.1111  0.1182  0.1611
  548SOL    HW1 4276  10.134   9.138   5.522  0.2681  1.7094 -0.3687
  548SOL    HW2 4277  10.267   9.210   5.524  1.4446 -0.3785 -0.3875
  549SOL     OW 4278   8.762   6.604   2.298  0.0245 -0.1827  0.2768
  549SOL    HW1 4279   8.801   6.538   2.354 -0.4207 -0.4612  0.2706
  549SOL    HW2 4280   8.817   6.681   2.308 -0.2235 -0.1314  1.3238
  550SOL     OW 4281   8.346   0.505   1.461  0.5987  0.3219 -0.3388
  550SOL    HW1 4282   8.439   0.515   1.482  1.0785  0.6079 -2.4117
  550SOL    HW2 4283   8.344   0.434   1.397 -0.5150  0.7855 -0.8383
  551SOL     OW 4284   9.153   8.635   5.713  0.6964 -0.1053  0.4908
  551SOL    HW1 4285   9.097   8.704   5.747 -0.7473 -0.3614 -1.2324
  551SOL    HW2 4286   9.219   8.682   5.661 -1.6535  0.0408 -2.6592
  552SOL     OW 4287   0.203   1.797   8.769 -0.0644  0.1686 -0.2614
  552SOL    HW1 4288   0.244   1.717   8.803 -1.8233 -0.0596  1.5299
  552SOL    HW2 4289   0.268   1.866   8.784  1.2108 -0.7812 -1.2174
  553SOL     OW 4290   7.906   5.453   8.251  0.2078 -0.4224 -0.3158
  553SOL    HW1 4291   7.930   5.398   8.325 -2.0842  0.6025  1.3124
  553SOL    HW2 4292   7.989   5.492   8.221  1.0626  0.4040  2.8009
  554SOL     OW 4293   8.620   3.492   2.985 -0.0141 -0.9608 -0.1000
  554SOL    HW1 4294   8.563   3.562   2.952 -0.1788 -1.8436 -1.7862
  554SOL    HW2 4295   8.639   3.518   3.075 -0.4809  1.0039 -0.5056
  555SOL     OW 4296   3.471   7.115   2.673  0.2309  0.1795 -1.0149
  555SOL    HW1 4297   3.421   7.099   2.752 -0.2232 -2.3061 -1.7195
  555SOL    HW2 4298   3.425   7.188   2.630 -1.4223 -0.5305 -0.5302
  556SOL     OW 4299   0.577   4.777   7.511 -0.4057 -0.7163 -0.0768
  556SOL    HW1 4300   0.555   4.737   7.595 -0.7307  1.7373  1.1098
  556SOL    HW2 4301   0.651   4.834   7.530  1.5797 -2.4241 -2.2020
  557SOL     OW 4302   5.801   8.031   5.678 -0.4753  0.0428 -0.1674
  557SOL    HW1 4303   5.785   8.009   5.769 -0.7032 -0.0749 -0.2337
  557SOL    HW2 4304   5.713   8.036   5.639 -0.3751 -0.0032 -0.4010
  558SOL     OW 4305   5.768   3.234   7.054 -0.6188  0.5968  0.5478
  558SOL    HW1 4306   5.791   3.171   7.122 -0.6075  1.3041  1.2101
  558SOL    HW2 4307   5.688   3.276   7.086 -1.8836 -0.6004 -0.9008
  559SOL     OW 4308  10.291   0.987   2.574 -0.1764  0.6744 -0.1059
  559SOL    HW1 4309  10.368   1.009   2.521 -0.2342  1.4837  0.1318
  559SOL    HW2 4310  10.281   1.061   2.634 -1.1014  0.5494 -0.0850
  560SOL     OW 4311   6.307   1.736   8.064 -0.2849 -0.2813 -0.1612
  560SOL    HW1 4312   6.320   1.678   8.138  1.7862  1.0544  0.6188
  560SOL    HW2 4313   6.305   1.678   7.988 -1.0623 -1.5630  0.7977
  561SOL     OW 4314   0.758   0.962   1.647  0.0126 -0.1431 -0.3379
  561SOL    HW1 4315   0.741   0.996   1.559 -0.8693 -0.1310 -0.1711
  561SOL    HW2 4316   0.714   0.877   1.649 -0.6706  0.2201  0.3513
  562SOL     OW 4317   7.847   3.936   2.290 -0.2925  0.1355 -0.4300
  562SOL    HW1 4318   7.829   3.991   2.214  0.4458  0.8461 -0.1039
  562SOL    HW2 4319   7.917   3.878   2.262 -0.5389 -0.1163 -0.5279
  563SOL     OW 4320   3.105   5.442   1.065 -0.2872 -0.1720 -0.4500
  563SOL    HW1 4321   3.050   5.367   1.045 -0.3914  0.0136 -0.8856
  563SOL    HW2 4322   3.151   5.460   0.983  1.9468 -1.5567  0.3946
  564SOL     OW 4323   9.583   6.827   0.329 -0.4444 -0.7087  0.3912
  564SOL    HW1 4324   9.574   6.894   0.396 -1.3731 -0.3892 -0.0392
  564SOL    HW2 4325   9.508   6.769   0.344  0.2819 -1.5984  0.6873
  565SOL     OW 4326   4.555   6.358   7.489 -0.3343  0.3355 -0.3933
  565SOL    HW1 4327   4.495   6.291   7.522  2.0794 -1.7722 -0.0236
  565SOL    HW2 4328   4.532   6.437   7.539 -2.0482 -0.6756  0.5041
  566SOL     OW 4329   1.998   6.636   6.834 -0.0211 -0.3344 -0.4394
  566SOL    HW1 4330   1.989   6.728   6.859 -0.4794 -0.2809 -0.7985
  566SOL    HW2 4331   1.910   6.599   6.844  0.8178 -1.7403  3.5600
  567SOL     OW 4332   5.327   9.317   4.498 -0.8420 -0.0436  0.2515
  567SOL    HW1 4333   5.299   9.226   4.489  0.8599 -0.6184  0.3247
  567SOL    HW2 4334   5.414   9.319   4.458 -1.7180  2.0792 -1.8211
  568SOL     OW 4335   4.277   9.036   6.152  0.4926  0.3620  0.6745
  568SOL    HW1 4336   4.307   9.100   6.216  2.1620  0.0368  0.2718
  568SOL    HW2 4337   4.356   9.012   6.103 -0.9444  2.0476 -2.8426
  569SOL     OW 4338   2.431   2.487   2.009  0.1767 -0.3025  0.3066
  569SOL    HW1 4339   2.521   2.509   2.033 -0.4525  1.8916  0.8023
  569SOL    HW2 4340   2.389   2.463   2.091 -0.1262  0.2912  0.3259
  570SOL     OW 4341   8.309   6.413   6.198  0.1613  0.4061  0.2594
  570SOL    HW1 4342   8.314   6.344   6.132  0.3275  0.4095  0.2671
  570SOL    HW2 4343   8.232   6.391   6.250  0.3007  0.1395  0.3584
  571SOL     OW 4344   8.914   2.104   3.208 -0.4884  0.2399  0.3658
  571SOL    HW1 4345   8.952   2.036   3.152 -1.3739  0.2300 -0.2502
  571SOL    HW2 4346   8.974   2.111   3.282  0.5328  0.0067 -0.4237
  572SOL     OW 4347   9.935   8.410   3.680  0.4328 -0.1124  0.7613
  572SOL    HW1 4348   9.854   8.452   3.709 -0.1226  0.5109 -1.4585
  572SOL    HW2 4349   9.972   8.472   3.617 -0.8425 -3.1122 -3.3832
  573SOL     OW 4350   6.348   0.158   7.860  0.0859  0.1969 -0.1775
  573SOL    HW1 4351   6.305   0.079   7.892  0.7343  0.1982  0.7296
  573SOL    HW2 4352   6.436   0.155   7.897 -0.2929  2.0000  1.0073
  574SOL     OW 4353   1.745   4.625   5.900 -0.2253 -0.8053  0.5542
  574SOL    HW1 4354   1.760   4.580   5.983 -0.9829  0.4051  1.3872
  574SOL    HW2 4355   1.741   4.555   5.834  1.5514 -1.6970  1.3449
  575SOL     OW 4356   1.744   5.264   6.388 -0.2931  0.5014  0.0655
  575SOL    HW1 4357   1.650   5.256   6.374 -0.1760  0.7417 -0.8910
  575SOL    HW2 4358   1.766   5.187   6.440 -0.6635 -0.7522 -1.5611
  576SOL     OW 4359   0.393   9.815   3.563  0.4046 -0.6544 -0.6343
  576SOL    HW1 4360   0.425   9.879   3.627  1.0154 -0.0093 -1.5593
  576SOL    HW2 4361   0.369   9.739   3.616  2.5987 -0.8323  0.2487
  577SOL     OW 4362   3.536   5.515   4.011  0.0934 -0.2506  0.1713
  577SOL    HW1 4363   3.453   5.469   4.020 -0.4616  0.5015 -0.9221
  577SOL    HW2 4364   3.568   5.525   4.101 -0.4798 -1.4408  0.5304
  578SOL     OW 4365   9.541   0.678   6.509  0.0704 -0.2585  0.0972
  578SOL    HW1 4366   9.570   0.601   6.459 -2.0171 -1.1895  0.1915
  578SOL    HW2 4367   9.573   0.661   6.598  2.8664  0.8856 -0.5758
  579SOL     OW 4368   0.809   2.580   8.704 -0.3192  0.4351  0.0363
  579SOL    HW1 4369   0.847   2.525   8.635 -1.3985  0.4538 -0.5989
  579SOL    HW2 4370   0.867   2.568   8.779 -0.4830 -1.5396 -0.0904
  580SOL     OW 4371   9.736   4.611   8.938 -0.8487  0.1360  0.3207
  580SOL    HW1 4372   9.830   4.622   8.925 -0.8811 -0.8483 -0.9493
  580SOL    HW2 4373   9.708   4.692   8.981  0.9380 -0.4851  2.9583
  581SOL     OW 4374   1.652   1.939   0.142  0.6147 -0.1508  0.0152
  581SOL    HW1 4375   1.612   1.972   0.061 -0.1081  2.9321  1.4537
  581SOL    HW2 4376   1.741   1.975   0.141  0.4922  0.1943  0.6988
  582SOL     OW 4377   7.939   8.505   9.993 -0.2501 -0.2146 -0.0889
  582SOL    HW1 4378   7.872   8.438   9.978 -0.7072 -0.3730  2.2382
  582SOL    HW2 4379   7.911   8.579   9.940 -0.9746 -1.0795 -0.9593
  583SOL     OW 4380   4.581   2.574   1.485  0.0157 -0.4477 -1.0263
  583SOL    HW1 4381   4.644   2.644   1.499 -1.3886  0.8632 -1.0331
  583SOL    HW2 4382   4.634   2.494   1.489  1.6548  0.5785 -0.9905
  584SOL     OW 4383   6.634   1.135   6.307  0.0522 -0.0932 -0.3829
  584SOL    HW1 4384   6.595   1.162   6.223 -1.3959  0.2550  0.3582
  584SOL    HW2 4385   6.563   1.145   6.370  0.8376 -1.2638  0.7393
  585SOL     OW 4386   9.813   2.986  10.120 -0.3413 -0.1527 -0.2508
  585SOL    HW1 4387   9.802   3.063  10.174 -0.2411 -1.5787  1.9207
  585SOL    HW2 4388   9.730   2.980  10.071 -0.1756  1.5175 -0.8009
  586SOL     OW 4389   3.335   8.144   5.547  0.1235 -0.2219  0.7792
  586SOL    HW1 4390   3.353   8.059   5.508 -0.1451 -0.0754  0.3265
  586SOL    HW2 4391   3.417   8.169   5.590  0.7512  0.0756 -0.5594
  587SOL     OW 4392   3.798   8.136   3.415  0.2866 -0.1781 -0.0134
  587SOL    HW1 4393   3.758   8.143   3.328 -0.8947  1.5482  0.6211
  587SOL    HW2 4394   3.840   8.050   3.414 -0.4868 -0.6072 -1.9581
  588SOL     OW 4395   3.686   2.294   0.765 -0.0156  0.2033 -0.0298
  588SOL    HW1 4396   3.774   2.256   0.767  0.1070  0.4916  0.0266
  588SOL    HW2 4397   3.690   2.359   0.695  0.4863  1.8521  1.4510
  589SOL     OW 4398   2.488   2.402   3.201 -0.2225 -0.2940  0.2401
  589SOL    HW1 4399   2.478   2.307   3.189  3.7305 -0.9888  1.1023
  589SOL    HW2 4400   2.429   2.424   3.273  0.9072 -2.7942  2.0863
  590SOL     OW 4401   4.522   8.948   9.004 -0.0287 -0.2260 -0.2815
  590SOL    HW1 4402   4.592   8.884   8.989  0.3649  0.4677 -1.5800
  590SOL    HW2 4403   4.521   9.002   8.924 -1.0058  0.7620  0.3653
  591SOL     OW 4404   3.152   1.855   0.186  0.3738 -0.2150  0.1018
  591SOL    HW1 4405   3.142   1.812   0.271  0.9135 -3.1935 -1.2329
  591SOL    HW2 4406   3.063   1.878   0.160  0.2735  1.5975  1.7906
  592SOL     OW 4407   7.329   2.069   6.258 -0.8435  0.5445  0.3677
  592SOL    HW1 4408   7.307   2.044   6.348 -1.4098 -1.0749 -0.1858
  592SOL    HW2 4409   7.251   2.046   6.208  0.4310 -1.1268 -0.9557
  593SOL     OW 4410   2.648   6.731   2.073 -0.2116  0.0514  0.3520
  593SOL    HW1 4411   2.714   6.708   2.139 -0.3156  0.9012  0.7575
  593SOL    HW2 4412   2.700   6.755   1.996 -0.0270  0.8168  0.7015
  594SOL     OW 4413   2.433   3.547   3.679  0.5620 -0.3575  0.2390
  594SOL    HW1 4414   2.468   3.478   3.622  0.3979  0.2043 -0.5495
  594SOL    HW2 4415   2.338   3.534   3.677  0.4073  0.7587 -1.0760
  595SOL     OW 4416   1.759   5.003   7.684  0.7935 -0.1374 -0.0729
  595SOL    HW1 4417   1.700   5.052   7.627  0.4538  0.5220  0.8368
  595SOL    HW2 4418   1.704   4.936   7.724  0.7386  0.2275  0.4719
  596SOL     OW 4419   1.269   3.692   8.132  0.5560 -0.1081  0.3410
  596SOL    HW1 4420   1.193   3.634   8.126 -0.3968  1.1238  0.0166
  596SOL    HW2 4421   1.254   3.742   8.212  1.6021 -0.6076  0.8635
  597SOL     OW 4422   0.988   7.723   3.542  0.1885  0.7630  0.2103
  597SOL    HW1 4423   1.030   7.736   3.457 -2.1595  0.0489 -1.1400
  597SOL    HW2 4424   0.980   7.628   3.551 -2.3390  0.8644 -0.2812
  598SOL     OW 4425   0.053   7.347   4.267 -0.4376 -0.4142  0.3017
  598SOL    HW1 4426   0.134   7.328   4.313  1.1471  3.4287 -0.4595
  598SOL    HW2 4427   0.072   7.325   4.175 -0.4808 -0.1298  0.2237
  599SOL     OW 4428   2.556   8.029   3.708 -0.5293  0.1025 -0.2898
  599SOL    HW1 4429   2.550   7.959   3.773 -5.2628  1.0677  0.6896
  599SOL    HW2 4430   2.539   7.985   3.624 -1.8834 -0.2074  0.1199
  600SOL     OW 4431   6.369   6.080   0.427  0.0147 -0.1632  0.4161
  600SOL    HW1 4432   6.290   6.058   0.377 -0.3963 -1.8191  1.6929
  600SOL    HW2 4433   6.380   6.006   0.488  2.2364  0.3036  0.6543
  601SOL     OW 4434   8.652   1.651   6.161  0.5001  0.3872 -0.1038
  601SOL    HW1 4435   8.678   1.721   6.101 -0.6818 -0.3218 -1.5178
  601SOL    HW2 4436   8.620   1.581   6.104  0.1527 -0.6732  1.3335
  602SOL     OW 4437   5.625  10.327   3.198  0.7929  0.2438  0.4387
  602SOL    HW1 4438   5.628  10.272   3.120 -1.0010 -0.4262  0.8120
  602SOL    HW2 4439   5.624  10.265   3.272  3.4273  0.8629  1.1123
  603SOL     OW 4440   7.628   9.056   1.142  0.2310  0.2114 -0.1758
  603SOL    HW1 4441   7.571   9.131   1.124  0.6227  0.6916  0.5680
  603SOL    HW2 4442   7.611   9.034   1.234  1.7043  0.7607  0.2480
  604SOL     OW 4443   0.799   4.794   2.001  0.0085  0.7825  0.4286
  604SOL    HW1 4444   0.867   4.806   1.935 -0.6219 -2.1847 -0.9201
  604SOL    HW2 4445   0.718   4.787   1.951 -0.6258 -0.4574  1.5648
  605SOL     OW 4446   0.600   3.740   2.664 -0.4798 -0.1164  0.5587
  605SOL    HW1 4447   0.695   3.748   2.655 -0.0080 -1.7457  3.0738
  605SOL    HW2 4448   0.576   3.669   2.604  0.3611 -1.5060  1.8073
  606SOL     OW 4449   8.669   9.686   7.626 -0.3984 -0.3413 -0.9219
  606SOL    HW1 4450   8.609   9.623   7.586 -0.4092 -0.6606 -0.4176
  606SOL    HW2 4451   8.733   9.631   7.672  0.3436 -0.0175 -1.5227
  607SOL     OW 4452   6.540   9.682   4.064 -0.6610 -0.0467  0.4166
  607SOL    HW1 4453   6.509   9.722   3.983 -0.5508  0.5351  0.6556
  607SOL    HW2 4454   6.617   9.733   4.088 -0.4907 -0.4315  0.7088
  608SOL     OW 4455   9.395   9.358   4.813 -0.0006  0.1767 -0.0766
  608SOL    HW1 4456   9.446   9.367   4.732 -0.5253 -1.6027 -0.6556
  608SOL    HW2 4457   9.314   9.405   4.795 -0.5539 -1.0753 -1.0232
  609SOL     OW 4458   7.600   1.364   5.673 -0.9574  0.1128  0.0619
  609SOL    HW1 4459   7.552   1.315   5.740 -1.5641  0.2629 -0.2547
  609SOL    HW2 4460   7.657   1.299   5.631 -3.2239 -0.8602 -1.7608
  610SOL     OW 4461   3.403   5.863   0.750 -0.2309 -0.2560  0.3442
  610SOL    HW1 4462   3.373   5.875   0.840  1.3007  1.4218  0.6886
  610SOL    HW2 4463   3.481   5.918   0.743  0.6882 -1.6784 -1.5197
  611SOL     OW 4464   8.550   3.229   0.067 -0.6085 -0.3249 -0.0497
  611SOL    HW1 4465   8.463   3.218   0.028 -0.1443 -0.5302 -1.0705
  611SOL    HW2 4466   8.545   3.312   0.114 -2.0592 -1.4371  1.9138
  612SOL     OW 4467   5.921   3.852   3.705  0.3433 -0.2987  0.8305
  612SOL    HW1 4468   5.960   3.784   3.760  1.3062 -1.1203 -0.8070
  612SOL    HW2 4469   5.894   3.920   3.767  0.8109 -1.4564  2.3612
  613SOL     OW 4470   5.464   2.806   4.393 -0.6188  0.4180 -0.1285
  613SOL    HW1 4471   5.431   2.895   4.407 -0.3385  0.4705  0.2163
  613SOL    HW2 4472   5.540   2.818   4.335 -1.1321  0.3079 -0.8337
  614SOL     OW 4473   5.775   0.692   0.500  0.0667  0.3512  0.2141
  614SOL    HW1 4474   5.779   0.771   0.445  0.4397 -0.9770 -1.7909
  614SOL    HW2 4475   5.866   0.677   0.527  0.0050  0.5569  0.5445
  615SOL     OW 4476   2.484   7.338   5.949 -0.4498 -0.0466  0.3507
  615SOL    HW1 4477   2.576   7.347   5.976  0.3305 -0.5695 -1.9079
  615SOL    HW2 4478   2.443   7.421   5.974  0.8275  0.5059  0.7007
  616SOL     OW 4479   7.273   2.754   3.504  0.4113  0.1630 -0.3209
  616SOL    HW1 4480   7.271   2.759   3.599 -1.8607 -1.9508 -0.1721
  616SOL    HW2 4481   7.185   2.780   3.476  1.0313  0.7262 -1.8762
  617SOL     OW 4482   4.291   6.540  10.285 -0.0012  0.5519 -0.5167
  617SOL    HW1 4483   4.374   6.572  10.321 -0.0070  1.6547 -1.4390
  617SOL    HW2 4484   4.245   6.619  10.256 -0.6084 -0.1864 -1.6313
  618SOL     OW 4485   1.140   0.683   8.994  0.5620  0.5921 -0.4168
  618SOL    HW1 4486   1.072   0.619   9.016 -0.2448  1.4204 -0.4062
  618SOL    HW2 4487   1.219   0.650   9.035  0.1112 -0.2786 -0.2240
  619SOL     OW 4488  10.032   3.353   2.564  0.0813 -0.0268  0.0584
  619SOL    HW1 4489  10.081   3.377   2.643  1.7149 -0.1126 -0.8807
  619SOL    HW2 4490   9.985   3.433   2.541  0.2385  0.2518  0.6623
  620SOL     OW 4491   5.109   5.142  10.235 -0.0414 -0.2522  0.0366
  620SOL    HW1 4492   5.127   5.049  10.242 -0.9257 -0.5198 -0.9289
  620SOL    HW2 4493   5.143   5.167  10.149  1.7684  0.7283  0.9768
  621SOL     OW 4494   9.759   7.534   1.847  0.4687  0.3108 -0.0084
  621SOL    HW1 4495   9.835   7.580   1.883 -0.8825  1.0121  2.1700
  621SOL    HW2 4496   9.773   7.442   1.869  0.6315  0.4660  0.5698
  622SOL     OW 4497   0.791   5.079   1.705  0.3531 -0.4840  0.0893
  622SOL    HW1 4498   0.766   4.996   1.664  0.5842 -0.7273  0.4391
  622SOL    HW2 4499   0.859   5.115   1.649 -0.3901 -0.0801 -0.5738
  623SOL     OW 4500   3.263   7.476  10.284 -0.2270 -0.2470 -0.0097
  623SOL    HW1 4501   3.298   7.417  10.217 -0.2131 -0.0525 -0.1744
  623SOL    HW2 4502   3.318   7.554  10.277 -0.4029 -0.1192  0.0432
  624SOL     OW 4503   9.422   5.361   0.420  0.6530  0.1490  0.9870
  624SOL    HW1 4504   9.402   5.328   0.508  0.7245 -1.2544  0.5140
  624SOL    HW2 4505   9.478   5.293   0.381 -1.2483 -0.4621 -0.9426
  625SOL     OW 4506   7.844   0.454   1.459 -0.2879  0.2262  0.6461
  625SOL    HW1 4507   7.889   0.531   1.494 -1.5093  1.7276 -0.9372
  625SOL    HW2 4508   7.795   0.487   1.384  2.1597 -2.7295 -2.5967
  626SOL     OW 4509   6.670   4.851   6.168 -0.3015  0.2105 -0.0440
  626SOL    HW1 4510   6.702   4.940   6.153  1.9159 -0.3467  1.0224
  626SOL    HW2 4511   6.620   4.856   6.250  0.7956  0.2870  0.6371
  627SOL     OW 4512   0.398   4.865   7.994 -0.1896  0.4949  0.5423
  627SOL    HW1 4513   0.460   4.929   8.028 -0.4524  0.5918  0.8455
  627SOL    HW2 4514   0.338   4.848   8.067 -1.5317  1.6602 -0.2219
  628SOL     OW 4515   0.366   9.606   6.687 -0.2442  0.1455  0.1819
  628SOL    HW1 4516   0.301   9.666   6.725 -0.5230 -0.9734  1.5654
  628SOL    HW2 4517   0.317   9.525   6.671  0.6621 -0.5138  0.6686
  629SOL     OW 4518   3.893   5.318   0.994 -0.0121 -0.2629  0.1130
  629SOL    HW1 4519   3.904   5.245   1.055  0.1536 -0.3008  0.0393
  629SOL    HW2 4520   3.823   5.371   1.032  0.2113 -0.1932  0.4263
  630SOL     OW 4521   8.824   5.586   3.207 -0.1164  0.2297 -0.4392
  630SOL    HW1 4522   8.766   5.550   3.140 -1.1128  0.6527  0.1759
  630SOL    HW2 4523   8.809   5.532   3.284  1.7794 -0.9158 -0.7837
  631SOL     OW 4524   1.025   9.900   9.066 -0.4171  0.3800 -0.4468
  631SOL    HW1 4525   1.116   9.928   9.075 -0.4779  1.2022 -2.0173
  631SOL    HW2 4526   1.014   9.831   9.131  1.7121 -0.6747 -1.1415
  632SOL     OW 4527  10.007   1.732   8.082 -0.2988  0.2396 -0.2577
  632SOL    HW1 4528  10.051   1.806   8.041 -0.7117 -0.4271 -1.9949
  632SOL    HW2 4529   9.918   1.733   8.047 -0.4423 -0.8268  0.0163
  633SOL     OW 4530   4.019   5.645   2.787  0.3268 -0.8017  0.5157
  633SOL    HW1 4531   3.982   5.730   2.761 -0.9825 -1.4656  0.1368
  633SOL    HW2 4532   4.056   5.610   2.705 -0.5782 -1.2959  0.3056
  634SOL     OW 4533   6.936   9.108   7.183 -0.1420  0.0665 -0.4400
  634SOL    HW1 4534   6.965   9.198   7.175  1.8009 -0.4171  0.4423
  634SOL    HW2 4535   6.939   9.073   7.094 -0.6726  0.7962 -0.7466
  635SOL     OW 4536   2.200   7.877   3.815 -0.2659 -0.0148 -0.3434
  635SOL    HW1 4537   2.201   7.889   3.720 -0.1913  1.6340 -0.1625
  635SOL    HW2 4538   2.288   7.847   3.836 -0.4553 -0.9697 -0.8398
  636SOL     OW 4539   6.481   8.115   3.101  0.7209  0.5099  0.2374
  636SOL    HW1 4540   6.494   8.209   3.116  2.8151  0.3343 -0.2199
  636SOL    HW2 4541   6.567   8.076   3.115 -0.4571 -1.6442  2.2626
  637SOL     OW 4542   4.799   3.691   1.471 -0.0942 -0.3569 -0.0754
  637SOL    HW1 4543   4.710   3.675   1.441 -0.6957  0.7737  1.0233
  637SOL    HW2 4544   4.842   3.734   1.397 -1.0043  0.7318  0.0110
  638SOL     OW 4545  10.170   0.626   0.741 -0.3342  0.1894  0.4600
  638SOL    HW1 4546  10.186   0.574   0.662  0.2967  0.4213  0.4247
  638SOL    HW2 4547  10.222   0.584   0.809  0.7889  1.1789  0.2581
  639SOL     OW 4548   3.867   0.269   3.246 -0.3384 -0.7259  0.0473
  639SOL    HW1 4549   3.901   0.356   3.270 -2.2809  0.3553 -0.9024
  639SOL    HW2 4550   3.871   0.219   3.327  1.7500 -0.1140  0.4020
  640SOL     OW 4551  10.181   3.073   3.060 -0.1225 -0.0072  0.1284
  640SOL    HW1 4552  10.256   3.100   3.113  0.2249 -0.5770 -0.0685
  640SOL    HW2 4553  10.170   2.980   3.080  0.3063 -0.3545 -1.1508
  641SOL     OW 4554   5.335   0.984   8.380  0.2512  0.3743  0.4109
  641SOL    HW1 4555   5.362   0.902   8.338 -1.9081  0.1190 -0.6298
  641SOL    HW2 4556   5.241   0.972   8.398  0.5849  1.3836  3.2774
  642SOL     OW 4557   9.515   0.445   5.812 -0.2947  0.1230 -0.1781
  642SOL    HW1 4558   9.541   0.418   5.724 -2.7446 -2.3523 -0.2756
  642SOL    HW2 4559   9.511   0.364   5.863 -2.8284  0.9056  1.0582
  643SOL     OW 4560   4.176   5.819   3.036 -0.3221 -0.1518 -0.0415
  643SOL    HW1 4561   4.142   5.789   3.121 -0.6849  0.6020  0.0858
  643SOL    HW2 4562   4.101   5.818   2.978 -0.7005  1.9030  0.3409
  644SOL     OW 4563   8.336   8.956   8.088 -0.0926 -0.4284  0.7839
  644SOL    HW1 4564   8.305   8.929   8.002 -0.2042  0.7148  0.4496
  644SOL    HW2 4565   8.397   8.887   8.114  0.9889 -0.1544 -0.8204
  645SOL     OW 4566   0.339   4.255   2.026  0.3834 -0.3132 -0.8081
  645SOL    HW1 4567   0.357   4.327   2.087 -1.8883  0.6840 -1.2328
  645SOL    HW2 4568   0.408   4.191   2.044  2.1184  1.6848  0.0059
  646SOL     OW 4569   0.506   5.781   1.409  0.7413 -0.2994  0.1466
  646SOL    HW1 4570   0.497   5.859   1.353 -0.6194 -1.8973 -2.0132
  646SOL    HW2 4571   0.600   5.769   1.418  0.9808  1.1848 -0.0738
  647SOL     OW 4572   9.654   7.874   4.860 -0.6781  0.2559  0.2302
  647SOL    HW1 4573   9.707   7.950   4.885  1.7169 -0.7428 -1.4421
  647SOL    HW2 4574   9.644   7.825   4.942  1.1648  0.4258  0.6181
  648SOL     OW 4575   4.139   9.235   6.341  0.1670  0.2989 -0.9625
  648SOL    HW1 4576   4.133   9.144   6.311  0.3622  0.2624 -0.8926
  648SOL    HW2 4577   4.231   9.259   6.327  0.5251 -0.0644  0.5554
  649SOL     OW 4578   2.189   5.937   2.129 -0.2844 -0.2927  0.3085
  649SOL    HW1 4579   2.137   5.868   2.171 -0.4113  0.6486  1.7641
  649SOL    HW2 4580   2.206   5.904   2.040  0.0029 -2.3599  1.0878
  650SOL     OW 4581   6.256   3.153   4.568  0.6339 -0.0341  0.3150
  650SOL    HW1 4582   6.206   3.232   4.589  0.1005 -0.2287 -0.1926
  650SOL    HW2 4583   6.199   3.103   4.510  0.2743 -1.5872  1.9271
  651SOL     OW 4584   7.297   0.530   2.036  0.5645  0.3554 -0.3951
  651SOL    HW1 4585   7.328   0.450   2.078 -1.8422 -0.8014 -0.6450
  651SOL    HW2 4586   7.226   0.501   1.978  1.0014  2.4268 -2.1169
  652SOL     OW 4587   7.574   2.141   4.563 -0.5967  0.3556 -0.2036
  652SOL    HW1 4588   7.662   2.176   4.556  0.1022 -1.2400  0.2322
  652SOL    HW2 4589   7.558   2.134   4.657 -1.5700  1.4753 -0.2534
  653SOL     OW 4590   1.238   8.100   6.317  0.3919  0.0164  0.8992
  653SOL    HW1 4591   1.194   8.182   6.294 -0.6251 -1.0761 -1.4211
  653SOL    HW2 4592   1.175   8.055   6.374 -1.4459 -1.2637 -1.9063
  654SOL     OW 4593   7.023   7.926   9.795 -0.5499 -0.2564  0.3519
  654SOL    HW1 4594   7.051   7.836   9.810 -0.6520 -0.3479  0.0133
  654SOL    HW2 4595   6.977   7.951   9.875  2.5871  0.7689  2.0276
  655SOL     OW 4596   6.969   5.151   5.706  0.3330 -0.5126 -0.3846
  655SOL    HW1 4597   7.041   5.095   5.736 -1.0435 -2.6107 -0.7377
  655SOL    HW2 4598   6.955   5.124   5.615 -1.2424 -0.5921 -0.1472
  656SOL     OW 4599   2.609   4.872   9.117  0.0228 -0.2283  0.3194
  656SOL    HW1 4600   2.557   4.932   9.063 -0.8471 -0.7754  0.5187
  656SOL    HW2 4601   2.697   4.875   9.079 -0.2383  0.4497 -0.2581
  657SOL     OW 4602   1.085   3.258   4.740  0.2842 -0.4176  0.5947
  657SOL    HW1 4603   1.053   3.248   4.830 -1.2139  0.6371  0.2208
  657SOL    HW2 4604   1.006   3.255   4.686  1.0369  0.1770 -0.5834
  658SOL     OW 4605   8.026   4.388   4.221 -0.0474 -0.1678  0.4281
  658SOL    HW1 4606   8.114   4.378   4.256  0.7483 -2.6721 -1.9772
  658SOL    HW2 4607   7.981   4.308   4.246 -0.8236 -0.0563 -0.5654
  659SOL     OW 4608   7.936   7.136   9.411  0.3460 -0.6272  0.1185
  659SOL    HW1 4609   7.950   7.059   9.357  2.3579 -0.6661  0.6431
  659SOL    HW2 4610   7.899   7.102   9.492  0.7392 -0.9867  0.1492
  660SOL     OW 4611   1.455   0.774   3.724 -0.7630 -0.5824  0.6592
  660SOL    HW1 4612   1.463   0.680   3.710 -1.4266 -0.4922 -0.4436
  660SOL    HW2 4613   1.538   0.811   3.692 -1.4187 -0.5908 -1.1488
  661SOL     OW 4614   3.581   7.685   5.900  0.5481  0.0399 -0.1685
  661SOL    HW1 4615   3.656   7.629   5.918  2.2840  1.9348 -1.0944
  661SOL    HW2 4616   3.583   7.697   5.805  0.0339  1.3655 -0.0336
  662SOL     OW 4617   2.310   4.881   2.199 -0.2688 -0.2326  0.6366
  662SOL    HW1 4618   2.320   4.832   2.117  0.0762 -2.3029  1.8589
  662SOL    HW2 4619   2.394   4.925   2.211 -0.2411 -0.1051  0.0116
  663SOL     OW 4620   6.095   2.919   1.177  0.0841  0.6401 -0.5489
  663SOL    HW1 4621   6.172   2.947   1.227 -0.5444  2.6156 -0.5762
  663SOL    HW2 4622   6.119   2.834   1.142  2.4034  1.3353 -0.8413
  664SOL     OW 4623   6.437   6.387   9.484  0.3204  0.5719  0.0190
  664SOL    HW1 4624   6.526   6.417   9.467  0.0682  1.4206  0.1850
  664SOL    HW2 4625   6.413   6.427   9.567 -0.5795  1.1524 -0.5093
  665SOL     OW 4626   9.427   6.728   3.020 -0.2005 -0.4347  0.5073
  665SOL    HW1 4627   9.334   6.711   3.038 -0.3267 -0.6401 -0.3154
  665SOL    HW2 4628   9.473   6.660   3.069 -0.4128  0.3374  1.8317
  666SOL     OW 4629   7.346  10.152   8.012  0.5097 -0.4123  0.1632
  666SOL    HW1 4630   7.419  10.214   8.011  0.8418 -0.7885 -1.4761
  666SOL    HW2 4631   7.306  10.164   8.099  2.0872  0.2808  0.8385
  667SOL     OW 4632   7.136   8.207   1.550 -0.3363  0.1166  0.1960
  667SOL    HW1 4633   7.197   8.276   1.574  2.5787 -2.2425  0.1814
  667SOL    HW2 4634   7.111   8.226   1.460  0.7822  0.9105  0.0369
  668SOL     OW 4635   1.254   2.039   1.872  0.2472  0.1596  0.2354
  668SOL    HW1 4636   1.199   2.076   1.803  0.2456 -0.9395 -0.3724
  668SOL    HW2 4637   1.329   2.001   1.826  2.3539  2.8772  1.1271
  669SOL     OW 4638   4.001   1.122   4.001  0.4575  0.1701  0.0324
  669SOL    HW1 4639   4.096   1.108   4.006  0.9270  3.1547  1.5840
  669SOL    HW2 4640   3.991   1.191   3.935 -0.3292  1.6775  1.6721
  670SOL     OW 4641   4.717   5.286   8.286  0.3758  0.7781 -0.1225
  670SOL    HW1 4642   4.694   5.206   8.335  0.2374  0.9935  0.1664
  670SOL    HW2 4643   4.669   5.278   8.204  1.4693 -0.1233 -0.7023
  671SOL     OW 4644   8.940   6.559   1.272 -0.0930  0.0760 -0.5803
  671SOL    HW1 4645   8.956   6.549   1.178 -1.3515  1.0299 -0.9281
  671SOL    HW2 4646   8.845   6.559   1.280 -0.0111  0.5415  0.6338
  672SOL     OW 4647   9.289   3.496   6.620 -0.3954 -0.8571 -0.4872
  672SOL    HW1 4648   9.372   3.542   6.611 -0.7152 -0.0069  0.6552
  672SOL    HW2 4649   9.296   3.421   6.561  0.8255 -0.3038 -1.0688
  673SOL     OW 4650   8.687   6.430   9.619  0.2666 -0.7027  0.2573
  673SOL    HW1 4651   8.727   6.381   9.547 -0.5553 -1.3851  0.2436
  673SOL    HW2 4652   8.712   6.381   9.697  0.8882 -0.1457  0.4126
  674SOL     OW 4653  10.322   8.845   6.581 -0.8212 -0.1355 -0.7481
  674SOL    HW1 4654  10.319   8.940   6.572  0.2436 -0.0595 -0.4437
  674SOL    HW2 4655  10.287   8.811   6.498 -0.0898  0.5265 -1.3427
  675SOL     OW 4656   7.034  10.040   7.216 -0.3965  0.7624 -0.2257
  675SOL    HW1 4657   6.984   9.963   7.189  1.1797  0.2560 -1.8895
  675SOL    HW2 4658   7.123  10.008   7.228  0.0463  2.0989  0.2578
  676SOL     OW 4659   5.754   6.208  10.175 -0.7002 -0.2670  0.2082
  676SOL    HW1 4660   5.672   6.182  10.133 -1.4202  0.4442  1.1347
  676SOL    HW2 4661   5.729   6.233  10.264  0.4419  0.4909  0.3386
  677SOL     OW 4662   5.121   3.444  10.099  0.7444  0.3604  0.6717
  677SOL    HW1 4663   5.210   3.471  10.120  0.6624  0.8718  0.3567
  677SOL    HW2 4664   5.076   3.446  10.184  0.6708  1.4689  0.6177
  678SOL     OW 4665   9.905   8.141   0.449  0.4680  0.2252 -0.0891
  678SOL    HW1 4666   9.821   8.151   0.495  0.5576  0.6481 -0.0144
  678SOL    HW2 4667   9.969   8.133   0.519  0.3891 -1.0289 -0.1430
  679SOL     OW 4668   2.936   8.878   3.463  0.5722  0.5205  1.1843
  679SOL    HW1 4669   3.012   8.859   3.407  0.5780  2.3876  0.5064
  679SOL    HW2 4670   2.864   8.830   3.422  0.6527  1.5667 -0.2459
  680SOL     OW 4671   4.690   9.303   8.772  0.3770 -0.2758 -0.4475
  680SOL    HW1 4672   4.665   9.374   8.831  1.1088 -0.5711  0.2505
  680SOL    HW2 4673   4.647   9.324   8.689  1.3877  1.5332 -0.5736
  681SOL     OW 4674   5.723   2.872   7.197 -0.1414 -0.7893 -0.6107
  681SOL    HW1 4675   5.645   2.855   7.144 -1.6845  2.4669  0.4062
  681SOL    HW2 4676   5.727   2.799   7.258 -2.4318 -1.0116 -0.6539
  682SOL     OW 4677   8.197   7.419   5.294 -0.2198  0.0966  0.0999
  682SOL    HW1 4678   8.127   7.448   5.353  0.7653 -0.0394  1.3755
  682SOL    HW2 4679   8.272   7.402   5.352  1.3719  1.7402 -1.3639
  683SOL     OW 4680   8.380   8.481   9.723 -0.0150  0.1710  0.2098
  683SOL    HW1 4681   8.425   8.536   9.659 -1.5698  0.5966 -0.5544
  683SOL    HW2 4682   8.289   8.511   9.722 -1.0008 -2.5559 -0.4409
  684SOL     OW 4683   1.688   6.346   0.942 -0.1911 -0.0158 -0.5358
  684SOL    HW1 4684   1.691   6.253   0.962 -0.5272 -0.1848 -1.2808
  684SOL    HW2 4685   1.771   6.380   0.976  0.4965 -0.8075 -1.3719
  685SOL     OW 4686   3.069   1.725   4.153 -0.0876  0.0694  0.1000
  685SOL    HW1 4687   3.015   1.802   4.137 -0.9508 -0.6275 -0.4488
  685SOL    HW2 4688   3.093   1.693   4.066  0.8695  0.1230  0.3296
  686SOL     OW 4689   7.920   2.080   3.259 -0.1479  0.6305 -0.0391
  686SOL    HW1 4690   7.926   2.044   3.170  0.6569  0.1649  0.1904
  686SOL    HW2 4691   7.913   2.175   3.246  2.7108  0.8688 -0.6001
  687SOL     OW 4692   9.987   9.790   7.020  0.2391  0.0662  0.3523
  687SOL    HW1 4693   9.994   9.784   6.925 -1.2799  0.3376  0.1924
  687SOL    HW2 4694   9.940   9.711   7.046 -1.2132  0.9820  0.6167
  688SOL     OW 4695   3.846   7.358   3.376 -0.2112 -0.5969 -0.3484
  688SOL    HW1 4696   3.816   7.302   3.305 -0.9843 -0.3188 -0.2565
  688SOL    HW2 4697   3.830   7.307   3.456  0.1254 -0.6872 -0.3393
  689SOL     OW 4698   3.866   0.014   1.049  0.4925  0.3007  0.2034
  689SOL    HW1 4699   3.889  -0.077   1.067  0.6998 -0.3860 -2.9346
  689SOL    HW2 4700   3.775   0.011   1.022  0.6322  0.9425 -0.3767
  690SOL     OW 4701   3.069   4.482   7.503 -0.0649  0.1997 -0.8434
  690SOL    HW1 4702   3.056   4.388   7.514  0.4502  0.3251  1.2635
  690SOL    HW2 4703   3.126   4.507   7.576 -0.7035  2.2475 -0.9876
  691SOL     OW 4704   3.771   2.465   0.236  0.2796  0.0293 -0.7661
  691SOL    HW1 4705   3.708   2.504   0.176  0.6700 -0.9306 -1.8356
  691SOL    HW2 4706   3.778   2.374   0.208 -0.1883 -0.7115  1.3058
  692SOL     OW 4707   8.645   4.843   1.331 -0.2942  0.4093 -0.6093
  692SOL    HW1 4708   8.577   4.796   1.380  0.8638  0.4711  1.1349
  692SOL    HW2 4709   8.658   4.790   1.252 -2.3206  0.3961 -0.9851
  693SOL     OW 4710   2.591   9.452  10.059  0.2559 -0.3517 -0.2979
  693SOL    HW1 4711   2.648   9.389  10.104  0.5380  0.6673  0.8240
  693SOL    HW2 4712   2.539   9.491  10.128  1.7018  2.2924 -0.5940
  694SOL     OW 4713   6.088   0.564   4.744  0.4109 -0.6610 -0.0129
  694SOL    HW1 4714   6.063   0.637   4.688  0.7682  1.0433  1.9242
  694SOL    HW2 4715   6.034   0.574   4.822  0.3535 -2.6015  0.2506
  695SOL     OW 4716   5.519   6.857   1.762 -0.0307  0.1361 -0.0852
  695SOL    HW1 4717   5.512   6.806   1.681 -1.7585  1.0377 -0.5543
  695SOL    HW2 4718   5.563   6.937   1.736 -0.0394  0.1678 -0.0024
  696SOL     OW 4719   3.734   2.140   6.607  0.0660  0.5959 -0.4324
  696SOL    HW1 4720   3.767   2.113   6.521  0.3282  0.5044 -0.3060
  696SOL    HW2 4721   3.705   2.230   6.595 -1.0364  0.1883 -0.9207
  697SOL     OW 4722  10.202   7.960   3.616 -0.0847  0.1175 -0.2552
  697SOL    HW1 4723  10.143   7.928   3.547 -1.6447  0.1145  1.0368
  697SOL    HW2 4724  10.176   8.051   3.629  0.7205  0.3407 -0.1765
  698SOL     OW 4725   7.040   5.320   5.276 -0.0940  0.4244  0.0068
  698SOL    HW1 4726   7.125   5.317   5.319  0.5391  0.2901 -1.1994
  698SOL    HW2 4727   7.059   5.354   5.189 -1.4732  1.5644  0.1253
  699SOL     OW 4728   2.006   7.431   7.408 -0.0853 -0.3854  0.1502
  699SOL    HW1 4729   2.071   7.391   7.350  1.8830  0.2411  1.7741
  699SOL    HW2 4730   1.943   7.361   7.425 -0.0710 -0.9207 -1.7670
  700SOL     OW 4731   2.606   1.968   8.922  0.3711 -0.2773 -0.4348
  700SOL    HW1 4732   2.576   1.912   8.851 -1.3073  0.1742 -0.1303
  700SOL    HW2 4733   2.596   2.057   8.888  0.6453 -0.0915 -0.0337
  701SOL     OW 4734   4.810   6.343   0.514 -0.0235 -0.2427 -0.1013
  701SOL    HW1 4735   4.720   6.310   0.506 -0.2181  0.0380  0.8819
  701SOL    HW2 4736   4.805   6.412   0.580  0.5872  1.0377 -1.3364
  702SOL     OW 4737   6.138   4.927   8.023 -0.2568  0.2618 -0.5272
  702SOL    HW1 4738   6.121   4.897   8.113  0.8527 -1.9663 -1.0143
  702SOL    HW2 4739   6.204   4.995   8.033  0.3958 -0.4689  0.3142
  703SOL     OW 4740   2.149   7.756   7.525  0.3686 -0.8824 -0.0903
  703SOL    HW1 4741   2.197   7.674   7.513  1.1379 -0.2545 -1.6111
  703SOL    HW2 4742   2.193   7.800   7.597  0.9834 -1.0903 -0.3341
  704SOL     OW 4743   6.149   2.186   5.133 -0.5249  0.1370 -0.0280
  704SOL    HW1 4744   6.161   2.210   5.041 -1.6437 -0.5496 -0.3822
  704SOL    HW2 4745   6.131   2.269   5.177  0.4110  0.5211 -0.3471
  705SOL     OW 4746   1.100   3.835   1.403 -0.2718 -0.0166  0.2280
  705SOL    HW1 4747   1.152   3.763   1.441  0.9363  0.1582 -1.0100
  705SOL    HW2 4748   1.047   3.792   1.336 -2.1290 -0.2647  1.7727
  706SOL     OW 4749   3.759   8.984   4.385  0.0030  0.0179  0.0791
  706SOL    HW1 4750   3.746   8.999   4.292  0.5730 -0.8744 -0.1539
  706SOL    HW2 4751   3.841   8.935   4.391 -0.3124 -0.4304  1.0059
  707SOL     OW 4752   4.963   9.216   0.534  0.3398 -0.0988  0.4913
  707SOL    HW1 4753   4.929   9.187   0.619  0.8778  0.2046  0.8162
  707SOL    HW2 4754   4.929   9.305   0.525  0.9751  0.1792  0.7847
  708SOL     OW 4755   0.296   8.380   8.729 -0.2643  0.1200 -0.1744
  708SOL    HW1 4756   0.345   8.436   8.790 -0.0170  0.9359 -1.0986
  708SOL    HW2 4757   0.225   8.344   8.782  2.1340 -2.3425  1.6597
  709SOL     OW 4758   3.247   8.139   3.854  0.2780 -0.0916 -0.2739
  709SOL    HW1 4759   3.228   8.095   3.937  1.1965 -0.4423 -0.2401
  709SOL    HW2 4760   3.316   8.201   3.875 -0.0545  0.3943 -0.6123
  710SOL     OW 4761   8.021   0.334   7.701 -0.0099 -0.0880  0.2129
  710SOL    HW1 4762   7.986   0.377   7.779  0.4750  2.1470 -0.7026
  710SOL    HW2 4763   8.062   0.254   7.733 -1.9011 -0.4714  1.8923
  711SOL     OW 4764   6.673  10.350   6.396  0.1197  0.3159 -0.0099
  711SOL    HW1 4765   6.584  10.318   6.387  0.4379 -1.0229  1.2903
  711SOL    HW2 4766   6.674  10.432   6.346 -1.1188 -0.9103 -2.2239
  712SOL     OW 4767   8.817   2.426   8.031 -0.2159  0.6430 -0.0649
  712SOL    HW1 4768   8.804   2.498   7.970  0.5285 -0.0718 -1.0984
  712SOL    HW2 4769   8.909   2.434   8.057 -0.2480  0.3236  0.1456
  713SOL     OW 4770   4.655   2.824   9.210  0.5963 -0.2087  0.1208
  713SOL    HW1 4771   4.586   2.823   9.144  0.6500 -1.8417  0.0346
  713SOL    HW2 4772   4.644   2.907   9.256 -0.5729  0.1521 -0.7681
  714SOL     OW 4773   6.197  10.230   2.318  0.0933  0.2872 -0.0498
  714SOL    HW1 4774   6.265  10.162   2.314 -0.8251 -0.6561 -0.0932
  714SOL    HW2 4775   6.209  10.271   2.403 -0.2521 -0.9333  0.6085
  715SOL     OW 4776   8.649   3.475   6.576  0.0941  0.1937 -0.3404
  715SOL    HW1 4777   8.621   3.560   6.540  1.6810 -0.9517 -5.0486
  715SOL    HW2 4778   8.571   3.420   6.571  0.0626  0.3083 -1.3984
  716SOL     OW 4779   0.865   6.375   6.283  0.3717  0.4521 -0.0244
  716SOL    HW1 4780   0.823   6.306   6.334  1.0866 -1.0688 -1.4100
  716SOL    HW2 4781   0.796   6.440   6.269 -1.0712 -1.2006 -0.8672
  717SOL     OW 4782   0.373   0.900   8.261  0.3945 -0.0055  0.2064
  717SOL    HW1 4783   0.329   0.815   8.257 -1.2850  0.7694  1.0018
  717SOL    HW2 4784   0.405   0.915   8.172  0.5293 -1.3525  0.0012
  718SOL     OW 4785  10.191   4.137   2.025  0.2264 -0.0262  0.1038
  718SOL    HW1 4786  10.236   4.147   2.109  1.3514  0.3468 -0.5192
  718SOL    HW2 4787  10.249   4.080   1.974  0.6360  1.4467 -1.1468
  719SOL     OW 4788   9.318   5.264   5.588 -0.1104 -0.3082  0.5839
  719SOL    HW1 4789   9.344   5.229   5.503  1.6564  1.4991  0.2961
  719SOL    HW2 4790   9.356   5.352   5.590 -1.8716  0.4920  2.4154
  720SOL     OW 4791   9.346   4.729   6.171 -0.1378  0.1682  0.8217
  720SOL    HW1 4792   9.410   4.767   6.111  0.5012 -0.8362  0.8465
  720SOL    HW2 4793   9.389   4.731   6.257 -0.5867  0.5298  1.0415
  721SOL     OW 4794   7.809   1.210   4.633  0.2557  0.3550 -0.3749
  721SOL    HW1 4795   7.751   1.177   4.565 -0.9658  1.1913  0.2172
  721SOL    HW2 4796   7.761   1.196   4.715  1.7164 -0.6894  0.3526
  722SOL     OW 4797   4.737   5.905   6.824 -0.4195 -0.1443  0.2025
  722SOL    HW1 4798   4.685   5.842   6.873 -1.4758  0.4556 -0.1183
  722SOL    HW2 4799   4.767   5.968   6.889 -1.0133  0.1140  0.2312
  723SOL     OW 4800   5.247   8.102   6.593 -0.5107 -0.2365 -0.0577
  723SOL    HW1 4801   5.169   8.048   6.606  0.8301 -1.9826  1.0993
  723SOL    HW2 4802   5.301   8.085   6.670  0.7547  1.4406 -0.5222
  724SOL     OW 4803   3.386   3.549   9.481  0.3557 -0.1661  0.0569
  724SOL    HW1 4804   3.361   3.473   9.533 -1.2101 -0.4949 -1.1190
  724SOL    HW2 4805   3.440   3.513   9.411  2.0045  0.2096  1.0736
  725SOL     OW 4806  10.204   6.782   0.677  0.5853 -0.1135 -0.0120
  725SOL    HW1 4807  10.245   6.846   0.619  2.1308  1.3594  2.5265
  725SOL    HW2 4808  10.277   6.743   0.725 -0.6114 -1.3021  0.9374
  726SOL     OW 4809   9.894   1.439   9.931 -0.5034  0.1587  0.5046
  726SOL    HW1 4810   9.971   1.427   9.987  0.9455  2.6808 -0.8116
  726SOL    HW2 4811   9.841   1.504   9.977 -1.3058 -0.6647  0.7961
  727SOL     OW 4812   8.677   2.661   3.201  0.1836 -0.1367 -0.0557
  727SOL    HW1 4813   8.670   2.615   3.117 -0.8521  1.1501 -0.7103
  727SOL    HW2 4814   8.588   2.660   3.236  0.4534  0.0530  0.6351
  728SOL     OW 4815   7.120   6.994   9.868 -0.2235  0.3658 -0.2390
  728SOL    HW1 4816   7.059   7.054   9.911  0.5921 -0.0367  1.5915
  728SOL    HW2 4817   7.189   7.050   9.833 -0.3939  0.6339 -0.1421
  729SOL     OW 4818   3.255   7.759   2.620  0.2574  0.0242  0.3288
  729SOL    HW1 4819   3.265   7.833   2.560 -0.9147 -1.1288 -1.3942
  729SOL    HW2 4820   3.175   7.777   2.669  0.6351  0.4685  0.7812
  730SOL     OW 4821   0.606   3.489   9.001  0.3196 -1.1183 -0.1730
  730SOL    HW1 4822   0.663   3.506   8.926  0.1045 -1.1982 -0.3562
  730SOL    HW2 4823   0.603   3.572   9.048  0.6046 -1.1193 -0.1481
  731SOL     OW 4824   7.707   0.508   3.843  0.3839  0.7969 -0.4475
  731SOL    HW1 4825   7.800   0.505   3.865  0.8970  2.7896 -2.0706
  731SOL    HW2 4826   7.697   0.441   3.775  0.3298 -0.2930  0.6052
  732SOL     OW 4827   4.239   4.423   7.352  0.1153 -0.1817 -0.3744
  732SOL    HW1 4828   4.326   4.424   7.391 -0.3320 -1.6475  0.7624
  732SOL    HW2 4829   4.182   4.456   7.421 -0.1883  1.3055 -1.3021
  733SOL     OW 4830   9.887   5.150   3.345  0.1475 -0.0765 -0.1663
  733SOL    HW1 4831   9.810   5.117   3.298 -1.2614 -0.0602  1.9753
  733SOL    HW2 4832   9.944   5.074   3.354 -0.4142 -0.5119 -0.2639
  734SOL     OW 4833   2.489   6.370   4.840  0.1032  0.4871  0.2909
  734SOL    HW1 4834   2.491   6.404   4.751  0.2737  0.0201  0.1107
  734SOL    HW2 4835   2.403   6.396   4.874  0.2905  1.2064  0.2106
  735SOL     OW 4836   7.532   4.669   4.086  0.2609 -0.2468  0.4288
  735SOL    HW1 4837   7.470   4.706   4.024 -1.6131  0.1715  2.4174
  735SOL    HW2 4838   7.613   4.716   4.070 -0.5886  0.8922 -0.6966
  736SOL     OW 4839   5.077   4.219   2.680 -0.1747 -0.4871  0.2109
  736SOL    HW1 4840   4.988   4.218   2.644 -0.0018  1.0103 -0.3254
  736SOL    HW2 4841   5.130   4.259   2.611  0.2171  2.2939  1.9705
  737SOL     OW 4842   8.613   7.361   2.174  0.0156 -0.2077 -0.3453
  737SOL    HW1 4843   8.557   7.397   2.105 -0.6499 -2.6551 -1.1694
  737SOL    HW2 4844   8.702   7.367   2.139 -0.0079  0.9986 -0.2507
  738SOL     OW 4845   0.148  10.217   8.739  0.0380 -0.4660  0.3669
  738SOL    HW1 4846   0.210  10.186   8.805 -1.8892 -2.0125  1.5999
  738SOL    HW2 4847   0.127  10.139   8.687  0.8598  0.5453 -1.5646
  739SOL     OW 4848   9.205   2.608   7.375 -0.2078 -0.3208 -0.3740
  739SOL    HW1 4849   9.255   2.546   7.321  1.3832  1.0118 -0.4884
  739SOL    HW2 4850   9.159   2.663   7.312  1.1950  0.8606 -0.4323
  740SOL     OW 4851   0.560   2.309   5.868  0.8078  0.4072  0.1360
  740SOL    HW1 4852   0.554   2.271   5.956 -1.0210  0.9649  0.2924
  740SOL    HW2 4853   0.579   2.402   5.884 -1.3487  0.9274  0.1051
  741SOL     OW 4854   8.414   4.718   7.820  0.7374  0.2583 -0.4503
  741SOL    HW1 4855   8.325   4.719   7.786  0.5665 -2.0631 -0.2608
  741SOL    HW2 4856   8.462   4.660   7.760  1.0849 -1.7681  1.6402
  742SOL     OW 4857   0.925   3.400   1.770  0.3149  0.2125 -0.1811
  742SOL    HW1 4858   0.852   3.430   1.716 -0.7912  0.4924  1.3991
  742SOL    HW2 4859   0.944   3.473   1.828  0.4415 -0.6055  0.8382
  743SOL     OW 4860   2.100   6.574   4.451 -0.0940  0.2417  0.3455
  743SOL    HW1 4861   2.179   6.603   4.406 -0.7695  0.1425 -0.9290
  743SOL    HW2 4862   2.050   6.655   4.465  0.5975  0.4317  1.9417
  744SOL     OW 4863   5.521   9.200   3.511 -0.7580 -0.1955 -0.3726
  744SOL    HW1 4864   5.450   9.155   3.558 -0.1755 -1.5889 -0.7747
  744SOL    HW2 4865   5.484   9.220   3.425 -1.3529  1.0540  0.1533
  745SOL     OW 4866   3.494   3.657   7.198 -0.0762 -0.1431 -0.0730
  745SOL    HW1 4867   3.401   3.661   7.178 -0.0561 -1.6861 -0.5969
  745SOL    HW2 4868   3.526   3.746   7.183 -1.7905  0.9054  1.9127
  746SOL     OW 4869   6.819   8.138   8.775 -0.5822  0.0375  0.3465
  746SOL    HW1 4870   6.815   8.052   8.817  0.4023 -0.7004 -0.9921
  746SOL    HW2 4871   6.867   8.123   8.694  2.0449  2.3624  1.3055
  747SOL     OW 4872   8.130   5.404   4.947 -0.0362  1.0043 -0.4697
  747SOL    HW1 4873   8.219   5.380   4.974 -0.3009 -0.8288 -1.0731
  747SOL    HW2 4874   8.134   5.405   4.851 -0.8515 -0.0448 -0.5374
  748SOL     OW 4875   3.478   5.464   7.571 -0.1333 -0.1598 -0.7084
  748SOL    HW1 4876   3.529   5.413   7.634  0.5103  1.4538  0.1387
  748SOL    HW2 4877   3.412   5.403   7.539  0.3634 -1.4139  0.5368
  749SOL     OW 4878   1.780   5.701   4.355  0.2405 -0.6642  0.6059
  749SOL    HW1 4879   1.751   5.771   4.414 -0.2472  0.4336 -0.8659
  749SOL    HW2 4880   1.734   5.719   4.272  0.2052 -2.6692  0.1390
  750SOL     OW 4881   3.530   5.311   9.900 -0.0058 -0.6410 -0.0909
  750SOL    HW1 4882   3.516   5.217   9.884 -1.1346 -0.3838 -0.6889
  750SOL    HW2 4883   3.502   5.324   9.991 -1.9618 -0.4964 -0.6812
  751SOL     OW 4884   9.848   9.928   6.435  0.7098 -0.0049  0.4212
  751SOL    HW1 4885   9.943   9.915   6.434  0.8985  1.2284 -1.4331
  751SOL    HW2 4886   9.812   9.847   6.397  1.1554  0.2971 -0.6729
  752SOL     OW 4887   7.938   8.306   9.551 -0.0591  0.4091  0.6376
  752SOL    HW1 4888   7.929   8.254   9.471  1.7427  0.3302  0.4409
  752SOL    HW2 4889   7.856   8.355   9.557 -1.5543 -1.9161  0.4735
  753SOL     OW 4890   0.538  10.123  10.007  0.1246 -0.7160  0.9779
  753SOL    HW1 4891   0.592  10.078   9.942 -1.3881 -1.6048  0.2672
  753SOL    HW2 4892   0.551  10.073  10.087  0.2822 -0.9736  0.7950
  754SOL     OW 4893   4.824   0.495   3.508  0.2217  0.0961  0.5029
  754SOL    HW1 4894   4.793   0.527   3.423  1.8955 -0.4007 -0.3564
  754SOL    HW2 4895   4.879   0.566   3.541  0.5633 -0.1905  0.5660
  755SOL     OW 4896  10.199   0.871   7.683 -0.3480 -0.0692  0.5967
  755SOL    HW1 4897  10.212   0.956   7.724  2.6677 -0.9247  1.6610
  755SOL    HW2 4898  10.192   0.810   7.756  0.4561 -1.0685 -0.1404
  756SOL     OW 4899   5.487   1.827   1.797  0.0556 -0.0475 -0.3504
  756SOL    HW1 4900   5.479   1.920   1.817  0.7786 -0.2691  1.1383
  756SOL    HW2 4901   5.581   1.812   1.789  0.0467 -0.8721  0.7453
  757SOL     OW 4902   0.154   8.956   8.654 -0.2549  0.3082 -0.3413
  757SOL    HW1 4903   0.239   8.999   8.659 -0.4548  0.6656  0.0222
  757SOL    HW2 4904   0.173   8.870   8.616  0.3468  0.1790  0.2328
  758SOL     OW 4905   9.062   6.423   8.248  0.4957 -0.1671 -0.0566
  758SOL    HW1 4906   9.092   6.342   8.289 -0.3684  0.4792  1.9258
  758SOL    HW2 4907   9.143   6.471   8.230  0.8886 -0.1830  1.5412
  759SOL     OW 4908   3.903   5.490   7.418  0.7978 -0.3094 -0.4633
  759SOL    HW1 4909   3.834   5.543   7.459  0.7498  0.9694 -2.0821
  759SOL    HW2 4910   3.977   5.550   7.408  1.1813 -0.8967 -1.2348
  760SOL     OW 4911   5.913   9.004   6.588 -0.1696  0.6235  0.2021
  760SOL    HW1 4912   5.906   9.028   6.496 -2.7634 -0.4996  0.0292
  760SOL    HW2 4913   5.912   9.087   6.635 -1.3678  1.1259 -0.6829
  761SOL     OW 4914   8.862   8.909   3.680  0.6763  0.1209 -0.6225
  761SOL    HW1 4915   8.911   8.890   3.600  0.9999  2.2602 -0.9958
  761SOL    HW2 4916   8.873   9.003   3.693  1.2079 -0.2363  2.3204
  762SOL     OW 4917   5.287   6.068   1.104  0.6186  0.0763  0.0202
  762SOL    HW1 4918   5.215   6.022   1.147  0.6350  1.2943  1.4349
  762SOL    HW2 4919   5.286   6.036   1.014 -1.5949 -0.0490  0.0471
  763SOL     OW 4920   1.196   9.690   2.851 -0.9965 -0.5065  0.4054
  763SOL    HW1 4921   1.254   9.682   2.775 -3.2478 -2.0796 -1.2445
  763SOL    HW2 4922   1.214   9.612   2.904 -1.0271 -0.5737  0.3176
  764SOL     OW 4923   6.096   8.417   7.368  0.5262  0.5993 -0.0895
  764SOL    HW1 4924   6.172   8.382   7.321  0.2356  0.1616 -0.2364
  764SOL    HW2 4925   6.038   8.450   7.300  0.0992 -0.0462 -0.0435
  765SOL     OW 4926   1.195   9.128   3.948 -0.1864  0.0928 -0.2908
  765SOL    HW1 4927   1.205   9.076   3.868  0.0094 -0.3396  0.0091
  765SOL    HW2 4928   1.283   9.158   3.969 -0.0511 -0.7327  0.3756
  766SOL     OW 4929   6.795   6.338   8.471  0.3468  0.5061 -0.1289
  766SOL    HW1 4930   6.770   6.406   8.534  0.8424  0.8354 -0.2826
  766SOL    HW2 4931   6.891   6.338   8.473  0.3556 -0.7364  0.4505
  767SOL     OW 4932   3.753   7.072   2.653 -0.1662  0.1853 -0.5054
  767SOL    HW1 4933   3.732   6.980   2.639 -0.9538  0.6467 -2.7932
  767SOL    HW2 4934   3.674   7.110   2.691  0.4601 -0.2096  1.2769
  768SOL     OW 4935   6.756   3.751   9.123  0.0969  0.3203 -0.0432
  768SOL    HW1 4936   6.754   3.826   9.183  1.4074  0.4887 -0.1681
  768SOL    HW2 4937   6.671   3.751   9.080 -0.3288  1.0659  0.7756
  769SOL     OW 4938   8.305   0.459   6.916  0.1311  0.5374 -0.4705
  769SOL    HW1 4939   8.340   0.374   6.941 -4.5860 -1.3915  0.6357
  769SOL    HW2 4940   8.283   0.502   6.999  2.7812  3.2447 -0.9741
  770SOL     OW 4941   8.331   2.768  10.202  0.7216  0.0333  0.2034
  770SOL    HW1 4942   8.309   2.831  10.133  0.7984 -0.6351 -0.4319
  770SOL    HW2 4943   8.418   2.794  10.231  0.3154  0.8971  0.7194
  771SOL     OW 4944   5.949   6.385   0.642  0.2108  0.3086 -0.0761
  771SOL    HW1 4945   5.893   6.322   0.597  0.7938 -1.4074  1.4770
  771SOL    HW2 4946   6.027   6.392   0.587  0.4100 -0.8369  0.0506
  772SOL     OW 4947   1.857   2.172   9.233  0.6198 -0.2080  0.0038
  772SOL    HW1 4948   1.949   2.198   9.240  1.0709 -1.3971 -1.0952
  772SOL    HW2 4949   1.860   2.077   9.221 -0.8101 -0.3959  0.8875
  773SOL     OW 4950   5.199   5.434   1.864 -0.2831  0.3429 -0.1790
  773SOL    HW1 4951   5.158   5.351   1.841  0.1799  0.7374 -2.7323
  773SOL    HW2 4952   5.252   5.456   1.787  1.7781  1.6701  1.5054
  774SOL     OW 4953  10.184   1.158   2.871  0.2565  0.2690  0.1123
  774SOL    HW1 4954  10.148   1.243   2.895 -0.9099  0.1353 -1.0077
  774SOL    HW2 4955  10.245   1.177   2.799  4.2325  0.7517  3.2841
  775SOL     OW 4956   2.811  10.303   3.630 -0.5404 -0.0096 -0.2434
  775SOL    HW1 4957   2.843  10.229   3.682  0.3043 -0.0114 -0.7445
  775SOL    HW2 4958   2.887  10.329   3.577 -1.0251  0.7930 -0.5486
  776SOL     OW 4959   7.489   5.942   6.855 -0.4414  0.2297  0.0668
  776SOL    HW1 4960   7.424   5.923   6.787 -0.7714  1.1318  0.1056
  776SOL    HW2 4961   7.459   5.893   6.931 -0.3226 -0.4307 -0.3084
  777SOL     OW 4962   2.878   8.944   0.712  0.6556 -0.3769 -0.1538
  777SOL    HW1 4963   2.874   9.040   0.704 -2.9747 -0.4161 -0.5818
  777SOL    HW2 4964   2.907   8.929   0.802 -0.2092  1.1980  0.4409
  778SOL     OW 4965   8.845   3.872   8.646  0.2380 -0.2730  0.4326
  778SOL    HW1 4966   8.889   3.818   8.712 -1.2378 -1.1667  0.7252
  778SOL    HW2 4967   8.789   3.931   8.697  0.3971  0.2214  0.0409
  779SOL     OW 4968   2.296   7.465   2.414 -0.0364 -0.1802  0.3032
  779SOL    HW1 4969   2.208   7.502   2.421 -0.8329 -1.5753 -1.3849
  779SOL    HW2 4970   2.290   7.405   2.339  2.5654  0.2403 -0.3249
  780SOL     OW 4971   3.725   3.024   9.385 -0.3335  0.5207  0.1697
  780SOL    HW1 4972   3.698   3.033   9.293  1.6946  2.0215 -0.3492
  780SOL    HW2 4973   3.782   2.948   9.386 -0.9591  0.0428  0.3713
  781SOL     OW 4974   4.165   4.887   9.323  0.3301 -0.5362  0.3909
  781SOL    HW1 4975   4.250   4.849   9.348 -0.0756 -1.5318  0.3075
  781SOL    HW2 4976   4.187   4.951   9.256  1.0638 -0.4806  0.6764
  782SOL     OW 4977   7.989   4.438   5.737 -0.0639  0.2035 -0.0131
  782SOL    HW1 4978   8.040   4.516   5.760  0.5674  0.7398 -2.8081
  782SOL    HW2 4979   7.905   4.450   5.781  0.3318  2.0372  0.3275
  783SOL     OW 4980   0.185   3.205   7.592 -0.6119 -0.1494 -0.4010
  783SOL    HW1 4981   0.194   3.293   7.631 -0.2148 -0.7654  0.9570
  783SOL    HW2 4982   0.275   3.172   7.589 -0.7894 -0.6071 -0.6716
  784SOL     OW 4983   3.238   5.464   4.904  0.6873 -0.1663 -0.7920
  784SOL    HW1 4984   3.309   5.490   4.962  0.1163 -1.1717  0.4098
  784SOL    HW2 4985   3.182   5.407   4.958 -0.6999  0.1036 -1.8708
  785SOL     OW 4986   6.200   1.282   0.515  0.2458  0.1113  0.4746
  785SOL    HW1 4987   6.130   1.289   0.580  0.2386  1.2797  0.3601
  785SOL    HW2 4988   6.167   1.219   0.451 -0.1083 -0.3983  1.1309
  786SOL     OW 4989   4.816   1.901   2.553  0.3334  0.2373  0.8599
  786SOL    HW1 4990   4.887   1.837   2.561 -2.3016 -2.9539  1.1804
  786SOL    HW2 4991   4.789   1.919   2.643  0.3548  0.9701  0.7261
  787SOL     OW 4992   7.189   1.604   3.010  0.5641  0.1011  0.5107
  787SOL    HW1 4993   7.218   1.569   2.926  0.7059  0.6300  0.3343
  787SOL    HW2 4994   7.252   1.571   3.074  0.6552 -0.0192  0.3578
  788SOL     OW 4995   9.118   1.916   2.262 -0.1133 -0.1715 -0.1364
  788SOL    HW1 4996   9.072   1.835   2.240 -0.1981 -0.2388  0.2758
  788SOL    HW2 4997   9.089   1.979   2.196 -2.0172  0.2242  1.0174
  789SOL     OW 4998   2.506   7.808   9.976 -0.0898  0.0392  0.6191
  789SOL    HW1 4999   2.532   7.741   9.912  0.7135  0.1415  0.8249
  789SOL    HW2 5000   2.491   7.760  10.057 -2.8953 -0.3559 -0.0234
  790SOL     OW 5001   1.286   1.948   2.631  0.1863  0.2419  0.3239
  790SOL    HW1 5002   1.310   1.861   2.598  0.0630  0.6008 -0.7315
  790SOL    HW2 5003   1.190   1.947   2.633  0.1789  0.4317  0.0900
  791SOL     OW 5004   9.464   4.458   2.164  0.4174  0.1731 -0.1019
  791SOL    HW1 5005   9.526   4.531   2.157 -0.1011  0.5726 -0.6779
  791SOL    HW2 5006   9.383   4.498   2.196 -0.0369 -0.0440 -0.9493
  792SOL     OW 5007   4.255   3.073   0.031 -0.4150 -0.7542  0.7804
  792SOL    HW1 5008   4.211   3.155   0.055 -3.0097 -2.1694  1.1653
  792SOL    HW2 5009   4.223   3.009   0.094  3.4974 -1.6495  2.0761
  793SOL     OW 5010   6.192   6.756   5.382  0.4799 -0.4901 -0.2326
  793SOL    HW1 5011   6.245   6.704   5.320 -0.3005 -0.9892 -0.4944
  793SOL    HW2 5012   6.123   6.794   5.328  0.4978  0.0677  0.1305
  794SOL     OW 5013   5.546   0.581   4.388  0.0833 -0.0347  0.4669
  794SOL    HW1 5014   5.585   0.611   4.471  0.4482  0.4712  0.1170
  794SOL    HW2 5015   5.607   0.610   4.321 -0.5738  0.1815 -0.0427
  795SOL     OW 5016   7.137   8.054   5.739  0.0337  0.0774 -0.2080
  795SOL    HW1 5017   7.141   8.034   5.645  0.7785  0.9038 -0.3716
  795SOL    HW2 5018   7.228   8.076   5.762  0.0767 -1.1945  0.9696
  796SOL     OW 5019   2.181   1.520   4.472  0.0870 -0.3175  0.4207
  796SOL    HW1 5020   2.136   1.541   4.390  1.8301 -0.0727 -0.5011
  796SOL    HW2 5021   2.234   1.597   4.491  0.0575 -0.5568  1.5555
  797SOL     OW 5022   5.527   9.426   6.033  0.0298 -0.0604  0.0227
  797SOL    HW1 5023   5.474   9.354   5.997 -2.0593  0.8361  1.1162
  797SOL    HW2 5024   5.546   9.481   5.957  1.4563 -1.5918 -0.7870
  798SOL     OW 5025   3.386   0.709   9.209 -0.0004  0.5111  0.2549
  798SOL    HW1 5026   3.298   0.720   9.172  0.6914  1.1150 -1.2951
  798SOL    HW2 5027   3.422   0.632   9.163 -0.9770 -2.1459  3.5073
  799SOL     OW 5028   4.003   1.100   4.887 -0.2249 -0.0550 -0.6692
  799SOL    HW1 5029   4.044   1.145   4.814  2.2868  1.5834  1.5677
  799SOL    HW2 5030   4.060   1.025   4.905  0.2036  0.5570  0.6536
  800SOL     OW 5031   3.952   5.837  10.055  0.6958  0.5362  0.1145
  800SOL    HW1 5032   3.860   5.863  10.056  0.2938 -0.5572 -2.3435
  800SOL    HW2 5033   3.950   5.742  10.048  2.0938  0.2435  2.5814
  801SOL     OW 5034  10.037   7.538   1.434 -0.6969 -0.4165 -0.7750
  801SOL    HW1 5035  10.041   7.475   1.505 -3.3402 -0.7416 -0.8033
  801SOL    HW2 5036  10.089   7.499   1.364  0.5260 -0.8928  0.3564
  802SOL     OW 5037   2.946   6.805   2.882  0.1778  0.1680 -0.2685
  802SOL    HW1 5038   2.875   6.771   2.937 -0.1159 -1.6396 -1.6603
  802SOL    HW2 5039   3.016   6.740   2.891 -0.3167 -0.8466 -2.8401
  803SOL     OW 5040   9.616   4.451   4.793 -0.0357 -0.2790  0.2738
  803SOL    HW1 5041   9.680   4.381   4.784 -0.0968 -0.0708 -2.7131
  803SOL    HW2 5042   9.662   4.530   4.764 -0.0744  0.9535  3.2490
  804SOL     OW 5043   0.764   5.480   9.184  0.1119 -1.0663 -0.4082
  804SOL    HW1 5044   0.776   5.493   9.090 -0.9664 -2.0611 -0.7129
  804SOL    HW2 5045   0.811   5.553   9.225 -0.1490 -0.1146 -1.7424
  805SOL     OW 5046   9.327   8.803   3.623 -0.1392  0.5376 -0.0734
  805SOL    HW1 5047   9.261   8.741   3.591 -1.7381  1.7670  0.7308
  805SOL    HW2 5048   9.405   8.783   3.571 -0.3772 -2.5228  0.5072
  806SOL     OW 5049   6.396   7.718   0.877 -0.0028 -0.7448  0.1807
  806SOL    HW1 5050   6.404   7.751   0.966 -2.8151 -0.5518  0.4539
  806SOL    HW2 5051   6.383   7.624   0.887 -1.1708 -0.6107  0.0766
  807SOL     OW 5052   0.758   5.921   9.943  0.8510 -0.4412 -0.2254
  807SOL    HW1 5053   0.702   5.941   9.868  2.1309 -0.9081 -1.3369
  807SOL    HW2 5054   0.706   5.861   9.997 -0.5374  0.8126 -0.1069
  808SOL     OW 5055   9.498   7.294   0.888 -0.0773 -0.4685  0.3074
  808SOL    HW1 5056   9.450   7.266   0.810 -0.6126  3.1307 -0.8485
  808SOL    HW2 5057   9.488   7.389   0.890  2.1682 -0.1217  3.3261
  809SOL     OW 5058   2.545   6.086   1.825 -0.3082  0.1340  0.8678
  809SOL    HW1 5059   2.491   6.029   1.771 -0.7148 -2.0507  3.3750
  809SOL    HW2 5060   2.486   6.156   1.853 -0.0295  1.4413 -1.5327
  810SOL     OW 5061   7.735   3.593   8.980 -0.6773  0.4103 -0.3944
  810SOL    HW1 5062   7.753   3.604   9.073  0.5524  1.1394 -0.6788
  810SOL    HW2 5063   7.668   3.658   8.960 -1.3853 -0.1680  0.0962
  811SOL     OW 5064   7.564   4.805   6.012  0.2073 -0.3186  0.2677
  811SOL    HW1 5065   7.571   4.863   5.936 -0.9560 -1.3828 -0.6695
  811SOL    HW2 5066   7.642   4.749   6.007  1.0099  0.6985  0.8329
  812SOL     OW 5067   4.963   5.956   0.017  0.1897  0.8070 -0.5264
  812SOL    HW1 5068   4.998   5.871  -0.009  1.5124  1.9719 -2.7535
  812SOL    HW2 5069   5.008   5.976   0.099 -1.9348 -1.6222  1.4467
  813SOL     OW 5070   3.161   5.374   2.926  0.3585 -0.3041 -0.3083
  813SOL    HW1 5071   3.196   5.463   2.915 -0.9910  0.2393 -0.3795
  813SOL    HW2 5072   3.142   5.345   2.837 -0.2125 -0.2384 -0.2091
  814SOL     OW 5073   9.476   5.243   8.251 -0.1157  0.5527  0.0026
  814SOL    HW1 5074   9.556   5.246   8.303 -0.5695  0.4547  0.7220
  814SOL    HW2 5075   9.468   5.152   8.224  0.2238  0.6418 -0.4174
  815SOL     OW 5076   1.674   7.032   5.849 -0.1207  0.3315  0.0597
  815SOL    HW1 5077   1.677   6.970   5.922  0.9504  0.3455  0.0449
  815SOL    HW2 5078   1.584   7.062   5.846 -0.2189  0.1756  1.2472
  816SOL     OW 5079   6.921   2.130   9.991  0.4030  0.5230  0.1475
  816SOL    HW1 5080   6.926   2.064   9.922  1.6332  0.5195  0.2306
  816SOL    HW2 5081   6.923   2.080  10.072 -1.7301  0.4763  0.2336
  817SOL     OW 5082   5.172   9.583   2.280 -0.0879  0.3609  0.6969
  817SOL    HW1 5083   5.220   9.661   2.307 -0.2138  0.3515  0.9551
  817SOL    HW2 5084   5.142   9.602   2.192  3.8361 -1.1716 -1.2006
  818SOL     OW 5085   5.488   5.793   0.205 -0.0016  0.7096 -0.2309
  818SOL    HW1 5086   5.401   5.794   0.164  0.0037  1.4324 -0.2328
  818SOL    HW2 5087   5.486   5.864   0.270  0.4414  0.4487  0.0771
  819SOL     OW 5088   2.235   0.538   6.734  0.0692  0.0898  0.0946
  819SOL    HW1 5089   2.317   0.572   6.697  0.7237 -0.9734  0.5124
  819SOL    HW2 5090   2.227   0.450   6.698 -1.4983  0.5631 -0.8195
  820SOL     OW 5091   5.805   0.428   7.172 -1.1352 -0.2992 -0.5369
  820SOL    HW1 5092   5.829   0.521   7.176  0.1429 -0.6382  0.0749
  820SOL    HW2 5093   5.748   0.422   7.095 -0.5217  0.8310 -1.1080
  821SOL     OW 5094   0.312   1.666   6.165 -0.1284 -0.6509  0.0080
  821SOL    HW1 5095   0.371   1.616   6.222 -2.2630 -2.4324  0.7875
  821SOL    HW2 5096   0.256   1.600   6.124 -1.1775  0.9113 -1.2048
  822SOL     OW 5097   5.368   8.937   3.031 -0.0023  0.2378  0.3777
  822SOL    HW1 5098   5.304   8.959   2.964 -1.7779 -0.8464  1.6444
  822SOL    HW2 5099   5.446   8.909   2.982 -0.9525  0.2584 -1.2099
  823SOL     OW 5100   2.938   3.571   4.715 -0.7400 -0.1223  0.3792
  823SOL    HW1 5101   2.843   3.574   4.702 -0.9600  1.1979  1.9926
  823SOL    HW2 5102   2.951   3.599   4.805  1.1719 -0.8514  0.3805
  824SOL     OW 5103   0.336   9.331   7.251 -0.4146 -0.2357 -0.1270
  824SOL    HW1 5104   0.350   9.308   7.159  0.0809 -0.5237  0.0190
  824SOL    HW2 5105   0.404   9.394   7.271 -0.3241 -0.4157  0.1322
  825SOL     OW 5106   4.067   5.445   9.456  0.6724 -0.3518 -0.3327
  825SOL    HW1 5107   4.029   5.527   9.488  0.4052 -0.1610 -1.1189
  825SOL    HW2 5108   3.998   5.379   9.470  1.4811 -0.8169  1.8647
  826SOL     OW 5109   1.599   2.436   7.831 -0.4403  0.4955 -0.2901
  826SOL    HW1 5110   1.549   2.513   7.805 -0.2295  0.4786 -0.7586
  826SOL    HW2 5111   1.680   2.441   7.781  0.7403  1.3370  1.5881
  827SOL     OW 5112   4.422   7.140   7.193  0.2748  0.2025  0.4086
  827SOL    HW1 5113   4.350   7.201   7.179  1.2080  1.4334  0.7859
  827SOL    HW2 5114   4.380   7.059   7.221 -1.2104 -0.2678 -2.7038
  828SOL     OW 5115   9.030   0.866   5.277  0.7806  0.1890  0.4446
  828SOL    HW1 5116   8.984   0.867   5.361 -0.1459 -1.1827 -0.0316
  828SOL    HW2 5117   8.961   0.864   5.211  1.4195  2.9915 -0.4899
  829SOL     OW 5118   5.484   2.466   5.538  0.6164 -0.9683 -0.3486
  829SOL    HW1 5119   5.486   2.407   5.463  0.3882  0.3772 -1.4720
  829SOL    HW2 5120   5.400   2.448   5.580 -0.3231 -0.2236 -1.7748
  830SOL     OW 5121   1.778   6.450   2.432 -0.2301  0.4641  0.3015
  830SOL    HW1 5122   1.842   6.509   2.392  0.2425  0.8608  1.5873
  830SOL    HW2 5123   1.697   6.465   2.382  0.0861  1.6250  0.1058
  831SOL     OW 5124   8.444   3.730   7.992 -0.2352 -0.2132 -0.5730
  831SOL    HW1 5125   8.524   3.754   7.946 -0.5179 -0.8893 -1.4657
  831SOL    HW2 5126   8.473   3.692   8.074  0.4194 -1.1975 -1.2302
  832SOL     OW 5127   0.994   6.167   8.728 -0.1337  0.2457  0.1141
  832SOL    HW1 5128   0.912   6.204   8.760 -0.9941 -1.7038  0.2799
  832SOL    HW2 5129   1.011   6.213   8.646 -3.0261 -1.3824 -1.5202
  833SOL     OW 5130   0.889   6.831  10.001  0.3538  0.1633 -0.1169
  833SOL    HW1 5131   0.940   6.905   9.967  0.2656  0.2700 -0.0190
  833SOL    HW2 5132   0.829   6.871  10.064  0.4739 -0.0258  0.1174
  834SOL     OW 5133   9.389   6.769   6.104  0.0102  0.4093 -0.2327
  834SOL    HW1 5134   9.300   6.769   6.069  0.4183 -1.9489 -1.4694
  834SOL    HW2 5135   9.421   6.858   6.089 -1.7050  0.9410 -0.9225
  835SOL     OW 5136   5.990   7.271   8.567  0.0689 -0.3050 -0.3438
  835SOL    HW1 5137   5.954   7.359   8.569  1.4012  0.2815 -0.8545
  835SOL    HW2 5138   6.085   7.284   8.568  0.3034 -1.7711  1.0229
  836SOL     OW 5139   0.536   4.702   7.785 -0.3418 -0.1399 -0.0642
  836SOL    HW1 5140   0.491   4.755   7.851 -1.0993 -2.0558  1.0149
  836SOL    HW2 5141   0.623   4.687   7.822 -1.0557 -1.9659  1.0062
  837SOL     OW 5142   5.538   8.359   3.690 -0.6623  0.0167 -0.1292
  837SOL    HW1 5143   5.495   8.404   3.617  0.5651 -0.6315 -1.2976
  837SOL    HW2 5144   5.522   8.415   3.766 -1.1476  1.2003 -1.0757
  838SOL     OW 5145   3.519   0.897   2.183  0.6562  0.2492  0.7170
  838SOL    HW1 5146   3.498   0.878   2.274  2.3198 -0.5027  0.9850
  838SOL    HW2 5147   3.577   0.825   2.157 -0.3119  0.0781 -1.1522
  839SOL     OW 5148   9.598  10.226   2.758  0.4228 -0.3056  0.0377
  839SOL    HW1 5149   9.592  10.215   2.663  0.9640  2.2609 -0.3546
  839SOL    HW2 5150   9.692  10.233   2.775  0.2672  0.9055  0.5034
  840SOL     OW 5151   3.444   6.780   1.038 -0.7778 -0.0212  0.0304
  840SOL    HW1 5152   3.396   6.811   0.961  0.6013 -2.5080 -2.0030
  840SOL    HW2 5153   3.536   6.786   1.012 -0.2874 -1.0173  1.4520
  841SOL     OW 5154   0.725   5.507   6.272 -0.3821  0.2996 -0.6524
  841SOL    HW1 5155   0.696   5.598   6.259 -3.7212 -0.4644  0.6224
  841SOL    HW2 5156   0.661   5.454   6.224  1.4578 -1.4530 -1.3035
  842SOL     OW 5157   4.495   9.375   5.454  0.2189  0.2982  0.3223
  842SOL    HW1 5158   4.444   9.315   5.509 -1.1792  0.8502 -0.3410
  842SOL    HW2 5159   4.579   9.382   5.500 -0.1087 -0.9839  1.2051
  843SOL     OW 5160   9.231   1.535   2.295  0.1735 -0.0232  0.3388
  843SOL    HW1 5161   9.163   1.593   2.260  0.5003  0.3085  0.2452
  843SOL    HW2 5162   9.309   1.557   2.244 -0.1099 -1.7877 -0.9643
  844SOL     OW 5163   8.247   7.308   4.721 -0.0685 -0.2126 -0.2695
  844SOL    HW1 5164   8.198   7.249   4.779  0.5381 -0.1355  0.3254
  844SOL    HW2 5165   8.214   7.395   4.743  0.8273 -0.0819  0.6548
  845SOL     OW 5166   7.505   0.094   3.334 -0.2109 -0.6725  0.3783
  845SOL    HW1 5167   7.438   0.064   3.273  2.2604 -0.2923 -2.7772
  845SOL    HW2 5168   7.569   0.023   3.336  0.6759  0.1169  1.0623
  846SOL     OW 5169   0.566   6.253   9.195 -0.3164  0.2375  0.1657
  846SOL    HW1 5170   0.600   6.341   9.177  1.0541 -0.1706  0.5925
  846SOL    HW2 5171   0.586   6.202   9.116  0.5971 -0.1389  0.6205
  847SOL     OW 5172   8.212   3.147   9.077 -0.7239 -0.5145  0.0568
  847SOL    HW1 5173   8.186   3.238   9.094  2.6369  0.7052 -0.6932
  847SOL    HW2 5174   8.139   3.111   9.025 -3.3088  0.8610  2.4464
  848SOL     OW 5175   6.193   9.204   1.922 -0.7768 -0.0856  0.5448
  848SOL    HW1 5176   6.278   9.240   1.950 -1.1493  1.5049 -0.2606
  848SOL    HW2 5177   6.129   9.249   1.978 -1.2111  0.0169 -0.0293
  849SOL     OW 5178   2.868   9.319   0.525 -0.7497 -0.5663  0.7679
  849SOL    HW1 5179   2.789   9.298   0.574 -1.8331  2.0037  0.2867
  849SOL    HW2 5180   2.907   9.392   0.574  0.2988 -0.5617 -0.0419
  850SOL     OW 5181   2.162  10.014   2.136  0.2103  0.1634  0.0957
  850SOL    HW1 5182   2.119  10.016   2.222  1.1980 -0.9563  0.6513
  850SOL    HW2 5183   2.107  10.068   2.081 -0.4490  0.9256  1.4403
  851SOL     OW 5184   1.469   4.012   0.129  0.4171  0.0651 -0.2391
  851SOL    HW1 5185   1.410   4.004   0.204  0.7860  0.1438  0.0633
  851SOL    HW2 5186   1.438   4.090   0.083 -1.2537 -1.2484 -1.4740
  852SOL     OW 5187   7.547   4.537   5.149  0.2665  0.4154  0.1048
  852SOL    HW1 5188   7.632   4.531   5.193 -0.1540 -0.9989  0.7801
  852SOL    HW2 5189   7.500   4.460   5.178 -0.1778 -0.4286 -2.5990
  853SOL     OW 5190   8.098   4.717   2.295  0.2338  0.1772 -0.2047
  853SOL    HW1 5191   8.094   4.775   2.371 -1.5427 -1.1818  0.8393
  853SOL    HW2 5192   8.008   4.685   2.285  0.6499 -0.5146 -2.2359
  854SOL     OW 5193   4.442   1.694   9.336  0.3063  0.5957  0.0523
  854SOL    HW1 5194   4.396   1.615   9.363  1.3355  0.5023  1.6492
  854SOL    HW2 5195   4.445   1.749   9.414  3.3259  0.3501  0.2357
  855SOL     OW 5196   5.897   9.032   2.764 -0.4560  0.4438 -0.2697
  855SOL    HW1 5197   5.850   9.030   2.847 -2.2939  2.2535 -1.1717
  855SOL    HW2 5198   5.989   9.031   2.788 -0.9350 -1.0478  1.6742
  856SOL     OW 5199   7.339   6.560  10.292 -0.0049 -0.3089 -0.0299
  856SOL    HW1 5200   7.329   6.627  10.360  2.7462 -0.8753  1.0277
  856SOL    HW2 5201   7.392   6.492  10.332 -1.5139 -2.5324 -1.5575
  857SOL     OW 5202   4.174   7.313   5.152 -0.0621  0.4023 -0.0664
  857SOL    HW1 5203   4.088   7.348   5.176  1.0851  2.3118  1.6470
  857SOL    HW2 5204   4.216   7.292   5.235  0.9311 -1.0813 -0.8935
  858SOL     OW 5205   1.198   6.782   9.982 -0.0648  0.6495 -0.5749
  858SOL    HW1 5206   1.119   6.731  10.001  1.0464 -1.2670 -0.8104
  858SOL    HW2 5207   1.229   6.810  10.067 -0.1371  0.0281 -0.3336
  859SOL     OW 5208   0.425   1.822   3.739 -0.3929  0.1087 -0.3110
  859SOL    HW1 5209   0.336   1.838   3.772 -0.1295  0.2138  0.3618
  859SOL    HW2 5210   0.428   1.869   3.656 -0.2470  2.0486  0.7400
  860SOL     OW 5211   0.241   8.857   7.719  0.6026 -0.4450 -0.4457
  860SOL    HW1 5212   0.287   8.843   7.802  2.3129  1.0123 -1.0905
  860SOL    HW2 5213   0.310   8.856   7.653 -0.5103  0.1529 -1.6495
  861SOL     OW 5214   3.997   7.822   2.654  0.0186  0.1618 -0.4728
  861SOL    HW1 5215   4.077   7.873   2.665 -0.5245  1.5600 -2.4443
  861SOL    HW2 5216   4.012   7.769   2.576  0.3819 -2.4586  1.2632
  862SOL     OW 5217   9.241   8.466   9.821  0.0558 -0.1847 -0.4862
  862SOL    HW1 5218   9.161   8.515   9.839  1.3314  1.1927  1.8515
  862SOL    HW2 5219   9.235   8.388   9.877  0.0308 -0.4852 -0.8965
  863SOL     OW 5220   6.737   0.894   9.534  0.1580 -0.0374  0.0098
  863SOL    HW1 5221   6.758   0.801   9.541  0.1300  0.0053  0.7835
  863SOL    HW2 5222   6.708   0.918   9.622 -0.7611  0.4759 -0.4198
  864SOL     OW 5223   2.323   3.697  10.241  0.1479 -0.3695  0.9433
  864SOL    HW1 5224   2.284   3.711  10.155 -1.3786 -1.8054  1.3466
  864SOL    HW2 5225   2.361   3.782  10.264  0.5775  0.0438 -1.1129
  865SOL     OW 5226   4.816   7.089   7.570 -0.0072 -0.2682  0.3107
  865SOL    HW1 5227   4.895   7.044   7.599  0.5431  1.0457  0.9202
  865SOL    HW2 5228   4.829   7.103   7.477  1.7861  2.3866  0.8824
  866SOL     OW 5229   1.586   3.856   4.987  0.1002  0.2424  0.3437
  866SOL    HW1 5230   1.510   3.798   4.978  1.3352 -1.5582  0.9141
  866SOL    HW2 5231   1.576   3.896   5.073 -1.6790  2.3529 -0.7547
  867SOL     OW 5232   7.853   6.216   1.622  0.6105  0.2483 -0.1151
  867SOL    HW1 5233   7.773   6.221   1.569 -1.0289  0.2899  2.1971
  867SOL    HW2 5234   7.893   6.133   1.597 -0.6520 -0.2178 -0.6963
  868SOL     OW 5235  10.052   7.274   1.865  0.4138 -0.5699  0.4242
  868SOL    HW1 5236   9.967   7.250   1.828  0.0131 -0.6840  1.3929
  868SOL    HW2 5237  10.089   7.335   1.801 -1.0627  0.6863  0.6906
  869SOL     OW 5238   3.659   7.330   7.017  0.1331 -0.5868  0.0870
  869SOL    HW1 5239   3.699   7.400   7.068  0.3637 -0.5326 -0.1652
  869SOL    HW2 5240   3.570   7.323   7.050  0.6343 -1.3888  1.3594
  870SOL     OW 5241   6.768   5.715  10.208 -0.0748  0.0026  0.5818
  870SOL    HW1 5242   6.752   5.634  10.159 -1.1636  0.6959 -0.2286
  870SOL    HW2 5243   6.822   5.686  10.283  1.2150 -1.1428 -0.7127
  871SOL     OW 5244   6.014   3.763   5.185 -0.0404 -0.2455  0.6054
  871SOL    HW1 5245   6.012   3.784   5.278 -1.4344  0.3625  0.4695
  871SOL    HW2 5246   6.093   3.709   5.173 -0.1476 -0.7920  2.2154
  872SOL     OW 5247   8.333   9.472   2.258 -0.2925  0.1318  0.2782
  872SOL    HW1 5248   8.411   9.519   2.230 -0.0835  0.3124  1.1410
  872SOL    HW2 5249   8.298   9.433   2.177  0.5501  0.2362 -0.1459
  873SOL     OW 5250   2.084   5.381   6.730  0.1438  0.0853  0.2550
  873SOL    HW1 5251   2.106   5.390   6.637 -0.5846 -0.0962  0.0636
  873SOL    HW2 5252   1.990   5.397   6.735  0.3397  1.0657  1.1012
  874SOL     OW 5253   6.055   7.345   3.929 -0.3107 -0.5901 -0.3465
  874SOL    HW1 5254   6.012   7.278   3.982 -0.2220 -0.6388 -0.3356
  874SOL    HW2 5255   6.002   7.424   3.942 -0.3292 -0.6198 -0.2398
  875SOL     OW 5256   3.913   3.213   6.379  0.3251 -0.3980 -0.8631
  875SOL    HW1 5257   3.841   3.181   6.326 -1.4305 -1.7695  2.1085
  875SOL    HW2 5258   3.871   3.265   6.448  2.5881  2.5744 -1.5213
  876SOL     OW 5259   3.348   0.070   7.016  0.6255 -0.0010 -0.1467
  876SOL    HW1 5260   3.346  -0.017   6.976 -1.3471  0.2803 -0.7907
  876SOL    HW2 5261   3.300   0.060   7.098  0.8640  0.3707  0.0420
  877SOL     OW 5262   8.007   2.895   7.752 -0.1597  0.0056  0.1120
  877SOL    HW1 5263   7.936   2.945   7.793 -1.0494 -1.2671  0.2030
  877SOL    HW2 5264   7.967   2.860   7.671  0.5365 -0.2591 -0.1218
  878SOL     OW 5265   7.492   7.485   0.801  0.9100 -0.2882  0.1608
  878SOL    HW1 5266   7.408   7.459   0.838  0.8188 -0.5234 -0.2029
  878SOL    HW2 5267   7.558   7.450   0.861  0.8278 -2.0776 -0.7171
  879SOL     OW 5268   0.088   4.443   7.261  0.0108  0.3923 -0.4093
  879SOL    HW1 5269   0.062   4.374   7.200 -0.8417  0.9118 -0.6646
  879SOL    HW2 5270   0.043   4.521   7.229  0.3661  0.9033  0.2987
  880SOL     OW 5271   8.666  10.270   7.937  0.3088 -0.1858 -0.2489
  880SOL    HW1 5272   8.587  10.221   7.916  0.6461 -0.7814 -0.1568
  880SOL    HW2 5273   8.728  10.204   7.967  1.3126  0.0668 -1.6433
  881SOL     OW 5274   2.713   3.040   9.525  0.4099 -0.5307 -0.5226
  881SOL    HW1 5275   2.697   2.993   9.443  0.9247  0.3378 -1.1333
  881SOL    HW2 5276   2.777   3.107   9.503  0.6588 -0.3586  0.6259
  882SOL     OW 5277   1.649   3.627   0.542 -0.6048  0.2229  0.1832
  882SOL    HW1 5278   1.633   3.687   0.615 -0.8426  1.8180 -1.1242
  882SOL    HW2 5279   1.728   3.661   0.500 -0.5710 -0.5632 -0.4112
  883SOL     OW 5280   2.638   3.519   7.631  0.3339  0.2092 -0.2177
  883SOL    HW1 5281   2.646   3.482   7.718  0.0767  1.0552  0.1795
  883SOL    HW2 5282   2.544   3.531   7.619  0.4742  2.2090  0.3299
  884SOL     OW 5283   7.345   0.527   8.955  0.0810 -0.2535 -0.0652
  884SOL    HW1 5284   7.431   0.488   8.971  0.2907 -0.1552 -0.9266
  884SOL    HW2 5285   7.283   0.466   8.995  0.4795 -0.9052 -0.4269
  885SOL     OW 5286   8.168   4.545   1.789 -0.0043  0.6706 -0.3390
  885SOL    HW1 5287   8.176   4.626   1.740 -2.1191  2.3766  1.8835
  885SOL    HW2 5288   8.238   4.548   1.854  0.6679  0.0800 -1.0151
  886SOL     OW 5289   1.431   0.212   3.777 -0.3017  0.1299 -0.3111
  886SOL    HW1 5290   1.415   0.205   3.871  0.7785  1.5739  0.0066
  886SOL    HW2 5291   1.344   0.203   3.738 -0.7689 -0.4889  0.8114
  887SOL     OW 5292   2.631   3.685   8.312  0.1298 -0.2505  0.2234
  887SOL    HW1 5293   2.630   3.729   8.227  0.6931 -1.4401 -0.4231
  887SOL    HW2 5294   2.646   3.756   8.375 -0.5929  0.6852 -0.6308
  888SOL     OW 5295   2.398  10.081   2.872  0.1079 -0.4277 -0.2322
  888SOL    HW1 5296   2.356  10.147   2.816  0.7515 -0.5144 -0.8264
  888SOL    HW2 5297   2.427  10.013   2.811 -2.1853 -2.2182  0.5176
  889SOL     OW 5298   9.931   6.621   4.096 -0.0134 -0.3139 -0.0157
  889SOL    HW1 5299  10.022   6.644   4.114  0.2400  1.3992 -2.8610
  889SOL    HW2 5300   9.937   6.553   4.029 -0.8112 -0.0412 -0.3746
  890SOL     OW 5301   0.893   1.381   1.097 -0.1675 -0.2478 -0.0715
  890SOL    HW1 5302   0.911   1.420   1.182  2.2986  0.7018 -0.9447
  890SOL    HW2 5303   0.932   1.294   1.101 -1.9687 -1.0652  0.4579
  891SOL     OW 5304   3.370   6.539   4.504 -0.2740 -0.3182 -0.5344
  891SOL    HW1 5305   3.391   6.600   4.434  1.3948  0.1028  0.2939
  891SOL    HW2 5306   3.388   6.587   4.584  1.1319 -1.8575  0.1365
  892SOL     OW 5307   9.665   4.792   5.168  0.3016 -0.1766 -0.1445
  892SOL    HW1 5308   9.686   4.770   5.259  2.2067 -0.0672 -0.5080
  892SOL    HW2 5309   9.592   4.734   5.146  0.9078 -1.4215  0.9422
  893SOL     OW 5310   0.897   9.218   4.260  0.1928 -0.1894 -0.2188
  893SOL    HW1 5311   0.881   9.309   4.284  0.2631 -0.5570  1.3684
  893SOL    HW2 5312   0.812   9.185   4.231 -0.4435 -0.2529  1.5548
  894SOL     OW 5313   9.347   0.798   1.196  0.1954 -0.2013  0.2864
  894SOL    HW1 5314   9.322   0.857   1.267 -2.2248 -0.3342 -0.3842
  894SOL    HW2 5315   9.405   0.850   1.141 -1.8601  1.6145 -0.2847
  895SOL     OW 5316   7.917   5.717   1.158  0.2444 -0.5730  0.2573
  895SOL    HW1 5317   7.893   5.624   1.153 -0.8062 -0.2828 -0.3759
  895SOL    HW2 5318   7.982   5.728   1.089  0.9174 -0.9826  0.8095
  896SOL     OW 5319   0.131   0.265   8.951 -0.7768 -0.1256  0.4590
  896SOL    HW1 5320   0.073   0.197   8.985  0.1088 -0.6719  0.9113
  896SOL    HW2 5321   0.166   0.228   8.870 -1.0931  0.2272  0.1572
  897SOL     OW 5322   8.685   9.722   2.437  0.2799 -0.5894  0.2815
  897SOL    HW1 5323   8.708   9.695   2.348  0.4692  0.5114 -0.0249
  897SOL    HW2 5324   8.702   9.645   2.491 -0.9410 -1.6741 -0.7877
  898SOL     OW 5325   5.411   4.258   0.221 -0.4729 -0.3911 -0.1096
  898SOL    HW1 5326   5.440   4.253   0.129  0.3242 -0.2476  0.1254
  898SOL    HW2 5327   5.482   4.216   0.270 -1.1433 -0.9435  0.3954
  899SOL     OW 5328  10.145   3.610   9.807  0.5760  0.6182  0.1058
  899SOL    HW1 5329  10.197   3.574   9.879 -0.6201  0.2460  0.8071
  899SOL    HW2 5330  10.098   3.684   9.846 -1.0195 -0.3336  0.0491
  900SOL     OW 5331   7.563   5.174   1.267 -0.1953  0.3852 -0.6562
  900SOL    HW1 5332   7.498   5.178   1.337 -0.0796  0.0401 -0.5280
  900SOL    HW2 5333   7.595   5.084   1.269  0.2091  0.5244 -0.7892
  901SOL     OW 5334   1.482   0.474   3.710  0.1090 -0.3205  0.1104
  901SOL    HW1 5335   1.472   0.379   3.722 -2.4841 -0.2792 -1.0193
  901SOL    HW2 5336   1.566   0.495   3.752  0.5080 -3.0113  0.8514
  902SOL     OW 5337   5.321   6.975   4.744  0.5718 -0.1351 -0.1408
  902SOL    HW1 5338   5.384   6.904   4.755  1.1370  0.3995  0.1752
  902SOL    HW2 5339   5.246   6.950   4.799  0.4023 -0.8872 -0.7049
  903SOL     OW 5340   3.583   7.540   5.045  0.4081  0.2119 -0.4931
  903SOL    HW1 5341   3.488   7.543   5.039  0.4461  0.3117 -1.1319
  903SOL    HW2 5342   3.610   7.496   4.965  0.8930 -0.0023 -0.2178
  904SOL     OW 5343   5.567   7.263   4.566  0.3645  0.1915 -0.3162
  904SOL    HW1 5344   5.660   7.277   4.586  0.0722  0.8140  0.6458
  904SOL    HW2 5345   5.562   7.271   4.471  1.4505 -0.7989 -0.4907
  905SOL     OW 5346   9.938   2.103   8.414 -0.2862  0.2804 -0.0289
  905SOL    HW1 5347   9.960   2.193   8.391  0.2276 -0.0847 -1.0555
  905SOL    HW2 5348  10.022   2.057   8.414 -0.2354  0.2197  2.6898
  906SOL     OW 5349   8.182   6.477   9.876 -0.8708  0.1829 -0.0797
  906SOL    HW1 5350   8.109   6.515   9.827 -0.9578 -0.2939 -0.3266
  906SOL    HW2 5351   8.210   6.547   9.935 -0.3805  0.9660 -1.2164
  907SOL     OW 5352   7.243   5.330   1.629  0.5663 -0.0413  0.4738
  907SOL    HW1 5353   7.194   5.334   1.711  0.3095  0.0899  0.3153
  907SOL    HW2 5354   7.334   5.349   1.654  0.1079  2.6283  0.3712
  908SOL     OW 5355   1.179   7.131   6.781 -0.2225 -0.5986  0.7220
  908SOL    HW1 5356   1.149   7.065   6.719  0.0446 -0.2587  0.2175
  908SOL    HW2 5357   1.100   7.183   6.800 -0.0400  0.0923 -0.3463
  909SOL     OW 5358   1.524   0.198   5.341 -0.1565 -0.4490 -0.7568
  909SOL    HW1 5359   1.531   0.290   5.365 -1.6769 -0.3381 -0.6499
  909SOL    HW2 5360   1.615   0.168   5.336  0.3527  0.9279 -0.3500
  910SOL     OW 5361   6.683   0.465   8.971 -0.2554  0.0448  0.7067
  910SOL    HW1 5362   6.598   0.421   8.968 -0.2816 -0.0652  2.1832
  910SOL    HW2 5363   6.671   0.536   9.034  0.3432  0.9761 -0.1924
  911SOL     OW 5364   1.544   5.861   0.154  0.1070 -0.1587 -0.1507
  911SOL    HW1 5365   1.567   5.949   0.184  1.1338 -0.0137 -1.2585
  911SOL    HW2 5366   1.628   5.815   0.148 -0.1338 -0.4181 -1.9730
  912SOL     OW 5367   9.275   1.987   7.931 -0.4401 -0.8535  0.1675
  912SOL    HW1 5368   9.248   2.058   7.989  0.1701 -0.0140 -0.5641
  912SOL    HW2 5369   9.213   1.991   7.858  1.6444  1.2476 -1.6552
  913SOL     OW 5370   4.880   9.389   5.932 -0.0795 -0.2746 -0.0301
  913SOL    HW1 5371   4.832   9.313   5.964 -1.3699  0.1534 -0.8302
  913SOL    HW2 5372   4.839   9.463   5.976 -0.3947  0.1279 -0.9663
  914SOL     OW 5373   2.209   6.808   4.171 -0.1726  0.2802  0.3489
  914SOL    HW1 5374   2.124   6.767   4.156  0.9114 -2.0136  0.1663
  914SOL    HW2 5375   2.259   6.790   4.091  1.1099 -0.1106  1.2041
  915SOL     OW 5376   2.911   3.683   3.665  0.6524  0.5500  0.0086
  915SOL    HW1 5377   2.936   3.775   3.652  0.4746  0.4807 -0.8969
  915SOL    HW2 5378   2.994   3.637   3.675  0.8979  0.4635 -2.0158
  916SOL     OW 5379   5.891   9.949   7.237  0.0630 -0.0182 -0.4960
  916SOL    HW1 5380   5.904   9.878   7.174  1.2983  0.3767 -0.7255
  916SOL    HW2 5381   5.911   9.909   7.322 -0.0124 -0.1474 -0.5393
  917SOL     OW 5382   0.522   4.550   1.465  0.4313 -0.8036 -0.8452
  917SOL    HW1 5383   0.558   4.478   1.517 -1.9651 -0.7040  1.1597
  917SOL    HW2 5384   0.431   4.525   1.450  0.0697  0.9374 -1.7643
  918SOL     OW 5385   2.953   7.458   8.745  0.0128  0.0188  0.1254
  918SOL    HW1 5386   2.931   7.495   8.830  0.9215  0.6901  0.0780
  918SOL    HW2 5387   2.955   7.364   8.759 -1.9243 -0.0328  0.3498
  919SOL     OW 5388   4.605   5.064   5.769  0.2527  0.5913  0.0790
  919SOL    HW1 5389   4.698   5.084   5.774  0.6313 -0.8024 -0.9911
  919SOL    HW2 5390   4.577   5.100   5.685  0.2615 -0.6235 -0.4577
  920SOL     OW 5391   5.510   2.187   3.408 -0.5181 -0.0892 -0.3873
  920SOL    HW1 5392   5.573   2.187   3.336 -0.9657 -2.5753 -0.8661
  920SOL    HW2 5393   5.562   2.167   3.486 -0.3066  0.7532 -0.3065
  921SOL     OW 5394   4.615   5.322   6.760  0.0754  0.0614  0.4822
  921SOL    HW1 5395   4.682   5.315   6.692 -1.2186 -0.3105 -0.7912
  921SOL    HW2 5396   4.589   5.414   6.758 -0.8592 -0.2023 -0.4483
  922SOL     OW 5397   8.461   5.694   1.831  0.0077 -0.0806 -0.2609
  922SOL    HW1 5398   8.468   5.759   1.761  1.5392  0.6752  0.5549
  922SOL    HW2 5399   8.378   5.715   1.874  0.8356  1.9304  0.5041
  923SOL     OW 5400   8.822   3.210   8.793  0.1746  0.3131 -0.1005
  923SOL    HW1 5401   8.783   3.127   8.765 -0.9500  1.3275 -1.6907
  923SOL    HW2 5402   8.831   3.261   8.712  0.4798  1.8929  0.8888
  924SOL     OW 5403   3.185   5.854   4.714  0.1940  0.2676 -0.2717
  924SOL    HW1 5404   3.182   5.921   4.646 -2.0667 -0.4947 -1.0158
  924SOL    HW2 5405   3.227   5.898   4.789  1.5056  1.5315 -1.6687
  925SOL     OW 5406   6.105   3.138   1.861 -0.2350 -0.5445  0.0185
  925SOL    HW1 5407   6.129   3.228   1.880 -0.0217 -0.1638 -1.8877
  925SOL    HW2 5408   6.127   3.090   1.941 -2.7086  1.4329  2.0721
  926SOL     OW 5409  10.056   2.155   9.814  0.2365  0.1758 -0.3679
  926SOL    HW1 5410   9.997   2.079   9.818 -1.6294  1.4407 -1.7849
  926SOL    HW2 5411  10.077   2.163   9.721  1.2194  0.8460 -0.1038
  927SOL     OW 5412   3.856   9.039   2.242 -0.1605 -0.4730  0.4643
  927SOL    HW1 5413   3.938   9.080   2.214  0.1589 -1.1615  0.3786
  927SOL    HW2 5414   3.822   8.997   2.164 -0.3810 -0.5522  0.6022
  928SOL     OW 5415   5.799   0.858   4.444  0.2053  0.0558 -0.1491
  928SOL    HW1 5416   5.792   0.900   4.530 -0.7569 -0.6973  0.1658
  928SOL    HW2 5417   5.712   0.869   4.405  0.5758  0.2247 -0.9580
  929SOL     OW 5418   4.151   6.519   5.516  0.6672  0.1043 -0.2751
  929SOL    HW1 5419   4.123   6.535   5.426  1.5139 -0.1937 -0.6014
  929SOL    HW2 5420   4.242   6.548   5.518  1.3613 -1.9351 -0.1212
  930SOL     OW 5421   8.513   8.714   0.599 -0.1471  0.9753  0.7055
  930SOL    HW1 5422   8.487   8.678   0.684  1.4601  0.7801  1.1511
  930SOL    HW2 5423   8.438   8.697   0.542 -0.8443  0.1611  1.8159
  931SOL     OW 5424   4.912   5.736   9.141  0.2994  0.1874  0.2423
  931SOL    HW1 5425   4.987   5.781   9.102 -0.1987 -1.3187 -2.7722
  931SOL    HW2 5426   4.836   5.770   9.094 -0.6334 -0.1609  1.4455
  932SOL     OW 5427   8.701   6.206   4.776  0.3678  0.1048 -0.0610
  932SOL    HW1 5428   8.673   6.233   4.688 -1.6022  1.2020  0.8305
  932SOL    HW2 5429   8.622   6.169   4.815  1.7509 -2.4218  0.5480
  933SOL     OW 5430   2.861   0.389   4.433  0.0625  0.4913 -0.4921
  933SOL    HW1 5431   2.877   0.452   4.503  0.1327 -0.4811  0.3958
  933SOL    HW2 5432   2.767   0.391   4.419  0.0495  0.6980 -0.3704
  934SOL     OW 5433   1.988  10.079   7.548 -0.1879 -0.0941  0.1118
  934SOL    HW1 5434   1.899  10.044   7.538  0.0287 -0.4840 -0.4772
  934SOL    HW2 5435   2.043  10.020   7.497  0.4386  0.0584  0.6002
  935SOL     OW 5436   6.377   3.998   1.855 -0.0393 -0.0243 -0.2789
  935SOL    HW1 5437   6.421   3.913   1.862  0.4547  0.1546 -1.0771
  935SOL    HW2 5438   6.319   3.989   1.780 -0.9390 -0.0547  0.3985
  936SOL     OW 5439  10.138   9.303   8.519 -0.0843 -0.1126 -0.3767
  936SOL    HW1 5440  10.208   9.244   8.547 -0.4660 -0.4262 -0.0769
  936SOL    HW2 5441  10.066   9.285   8.579  0.1664  1.4447  0.4251
  937SOL     OW 5442   8.343   0.803   5.414  0.6398 -0.7311 -0.4747
  937SOL    HW1 5443   8.307   0.742   5.479 -0.2255 -0.8014 -1.0127
  937SOL    HW2 5444   8.277   0.807   5.345  0.1476  1.6838  0.0546
  938SOL     OW 5445   9.599   2.970   3.654  0.1218 -0.4779  0.5276
  938SOL    HW1 5446   9.640   2.905   3.711  0.5844 -0.9592 -0.3218
  938SOL    HW2 5447   9.505   2.960   3.670  0.2607 -0.2931  1.5140
  939SOL     OW 5448   7.907   6.526   2.787  0.1938  0.2959 -0.2621
  939SOL    HW1 5449   7.934   6.446   2.831 -1.8244 -1.0935 -1.3943
  939SOL    HW2 5450   7.857   6.574   2.853 -0.1737 -0.2882 -0.1053
  940SOL     OW 5451   2.499   3.766   0.911 -0.0970  0.1473 -0.6830
  940SOL    HW1 5452   2.422   3.708   0.906  0.8984 -1.4372  1.0112
  940SOL    HW2 5453   2.463   3.854   0.902 -1.9776 -0.6111 -1.0659
  941SOL     OW 5454   3.227   1.758   8.342 -0.2779 -0.1837 -0.6008
  941SOL    HW1 5455   3.291   1.722   8.404  1.1404 -0.9693 -2.4115
  941SOL    HW2 5456   3.175   1.819   8.394  1.6480  0.1570  1.0792
  942SOL     OW 5457   4.753   0.199   7.720 -0.0470  0.1413 -0.5045
  942SOL    HW1 5458   4.710   0.222   7.802  1.9286  0.5553  0.4623
  942SOL    HW2 5459   4.689   0.143   7.675 -2.5298  2.5237 -0.2328
  943SOL     OW 5460   2.303   0.234   3.582 -0.0427  0.1009 -0.3200
  943SOL    HW1 5461   2.229   0.242   3.522 -1.1084 -1.4723  0.7150
  943SOL    HW2 5462   2.380   0.241   3.526 -0.9400  1.5886 -1.4467
  944SOL     OW 5463   9.409   9.452   5.439 -0.3451 -0.4439  0.6992
  944SOL    HW1 5464   9.474   9.520   5.453 -1.3028  0.5330  0.4992
  944SOL    HW2 5465   9.333   9.498   5.404 -0.5498 -1.8036 -0.7214
  945SOL     OW 5466   0.506   6.600   9.406  0.7477 -0.4297  0.3893
  945SOL    HW1 5467   0.572   6.668   9.421  2.0633 -2.1843  3.4143
  945SOL    HW2 5468   0.438   6.618   9.471 -0.1505 -0.6366 -0.4546
  946SOL     OW 5469   9.316   7.897   3.294  0.1713 -0.5304  0.3923
  946SOL    HW1 5470   9.263   7.949   3.234  0.8040 -1.0341 -0.6351
  946SOL    HW2 5471   9.256   7.873   3.365 -1.0719 -1.3128 -0.8679
  947SOL     OW 5472   5.518   8.407   1.474  0.4772  0.2263  0.3447
  947SOL    HW1 5473   5.543   8.499   1.471  2.4866 -0.2853 -0.4447
  947SOL    HW2 5474   5.425   8.408   1.497  0.8971  2.3587  2.3045
  948SOL     OW 5475   7.253   6.139   1.949 -0.4030 -0.1783  0.3773
  948SOL    HW1 5476   7.263   6.173   1.860 -0.4229 -2.6003 -0.6113
  948SOL    HW2 5477   7.160   6.118   1.956 -0.3933 -0.0339  0.9663
  949SOL     OW 5478   1.229   9.512   1.172  0.3958  0.2421  0.5592
  949SOL    HW1 5479   1.310   9.546   1.134 -0.6178  2.1423 -0.0604
  949SOL    HW2 5480   1.178   9.480   1.098 -0.1950  0.8596  0.6777
  950SOL     OW 5481   2.256   9.998   9.376  0.3518  0.5940 -0.4480
  950SOL    HW1 5482   2.224  10.046   9.300 -2.1751 -0.9833 -0.4764
  950SOL    HW2 5483   2.212  10.038   9.451  3.3294  2.5902  0.4450
  951SOL     OW 5484   5.488   1.341   1.903  0.1149 -0.4623 -0.9307
  951SOL    HW1 5485   5.523   1.358   1.816 -0.3093 -0.7104 -1.1547
  951SOL    HW2 5486   5.550   1.280   1.943 -0.5767 -1.7099 -1.7043
  952SOL     OW 5487   1.183   0.165   3.672 -0.1344  0.1477 -0.1569
  952SOL    HW1 5488   1.122   0.094   3.693  0.6586 -0.6060 -0.3175
  952SOL    HW2 5489   1.149   0.241   3.719  0.0916 -0.8174  1.6369
  953SOL     OW 5490   8.058   3.545   8.047  0.1179  0.0068  0.6902
  953SOL    HW1 5491   8.094   3.469   8.094  0.7936  1.0085  1.8681
  953SOL    HW2 5492   8.044   3.610   8.116  0.5370  1.3109 -0.4336
  954SOL     OW 5493  10.239   4.600   0.124  0.4748 -0.2280  0.2409
  954SOL    HW1 5494  10.237   4.663   0.196 -1.7981  0.8728 -0.6590
  954SOL    HW2 5495  10.320   4.619   0.077  0.2019  1.6104  0.4230
  955SOL     OW 5496   3.605   5.447   0.128  0.2563 -0.1173 -0.2392
  955SOL    HW1 5497   3.571   5.534   0.149 -1.0125 -0.4100 -0.9322
  955SOL    HW2 5498   3.660   5.424   0.202 -0.3851  0.7660  0.5439
  956SOL     OW 5499   0.652   1.978   5.862  0.4903 -0.1360  0.7636
  956SOL    HW1 5500   0.593   2.049   5.835 -0.3485 -0.3845  1.8648
  956SOL    HW2 5501   0.608   1.898   5.834  0.3208 -0.3206  1.5235
  957SOL     OW 5502   6.535   8.233   3.740 -0.2131 -0.0662 -0.4666
  957SOL    HW1 5503   6.447   8.211   3.771 -0.3836  0.6414 -0.4201
  957SOL    HW2 5504   6.573   8.149   3.713 -1.6422 -0.1662 -2.4132
  958SOL     OW 5505   7.778   1.077   3.720 -0.3844 -0.7534 -0.6651
  958SOL    HW1 5506   7.706   1.122   3.677 -0.6357  0.0572  0.5465
  958SOL    HW2 5507   7.857   1.119   3.687 -0.6304  1.0647  0.8758
  959SOL     OW 5508   8.160   1.466   9.299  0.4683  0.2657 -0.0916
  959SOL    HW1 5509   8.195   1.475   9.210 -2.0084 -1.1499 -1.3109
  959SOL    HW2 5510   8.070   1.500   9.293  0.4688  0.7922  2.0775
  960SOL     OW 5511   9.800   1.944   9.080 -0.1770 -0.6661 -0.1644
  960SOL    HW1 5512   9.753   1.861   9.084  0.8663 -1.2357  1.0865
  960SOL    HW2 5513   9.735   2.007   9.049 -0.8990 -1.9927 -1.5071
  961SOL     OW 5514   3.263   8.826   8.766 -0.3816  0.2739  0.5267
  961SOL    HW1 5515   3.189   8.833   8.827 -0.0044  0.3155  0.9871
  961SOL    HW2 5516   3.336   8.868   8.812 -0.5277  1.9939 -0.7050
  962SOL     OW 5517   3.626   3.221   2.307 -0.4671  0.4381 -0.1774
  962SOL    HW1 5518   3.570   3.177   2.243 -1.8369 -0.2116  1.4111
  962SOL    HW2 5519   3.661   3.151   2.361  2.1215  0.7989 -1.2091
  963SOL     OW 5520   4.620  10.018   9.677  0.3069  0.3450  0.0241
  963SOL    HW1 5521   4.586  10.021   9.587 -0.7376  0.8426  0.4136
  963SOL    HW2 5522   4.659   9.931   9.685 -1.0482 -0.3440 -0.4265
  964SOL     OW 5523   0.544   3.187   3.261 -0.5717  0.3412 -0.4495
  964SOL    HW1 5524   0.591   3.185   3.178  0.6964 -1.7256  0.2357
  964SOL    HW2 5525   0.453   3.169   3.238 -0.2494 -0.1545 -1.4064
  965SOL     OW 5526   6.924   9.753   8.730 -0.4098 -0.3433 -0.2076
  965SOL    HW1 5527   7.019   9.765   8.728 -0.4134  0.8821  2.5870
  965SOL    HW2 5528   6.890   9.812   8.662  0.7679 -0.4202 -0.8841
  966SOL     OW 5529   7.404   4.714   1.612  0.1530  0.7295  0.1133
  966SOL    HW1 5530   7.436   4.797   1.647  0.0517  1.1359 -0.7164
  966SOL    HW2 5531   7.440   4.711   1.523  0.6772 -0.4149  0.3506
  967SOL     OW 5532   8.266   1.976   1.163 -0.3576 -0.2485 -0.3524
  967SOL    HW1 5533   8.332   2.018   1.107 -0.3174  1.6691  1.0620
  967SOL    HW2 5534   8.298   1.886   1.174  1.1505  0.1735 -1.0319
  968SOL     OW 5535   6.524   4.081   6.389  0.7969  0.3586  0.1412
  968SOL    HW1 5536   6.522   3.986   6.402  0.0426  0.2266 -0.8358
  968SOL    HW2 5537   6.440   4.102   6.346  0.2962  1.6725  1.6501
  969SOL     OW 5538   0.100   7.664   2.086 -0.8087  0.4477  0.1025
  969SOL    HW1 5539   0.059   7.638   2.004  2.2095 -0.5915 -1.1971
  969SOL    HW2 5540   0.150   7.743   2.064 -2.0760  1.7607  1.6646
  970SOL     OW 5541   1.694   6.652   8.076  0.0296  0.1684  0.2379
  970SOL    HW1 5542   1.706   6.617   7.987 -1.0093  1.1143 -0.3019
  970SOL    HW2 5543   1.746   6.733   8.077  1.1421 -0.5365  0.9569
  971SOL     OW 5544   5.159   3.100   9.792  0.1557  0.1888  1.0180
  971SOL    HW1 5545   5.091   3.140   9.738  1.4617 -0.5084 -1.2733
  971SOL    HW2 5546   5.126   3.108   9.882 -1.7209  2.1638  0.2331
  972SOL     OW 5547   7.496   7.106   2.560  0.2265 -0.6518  0.1878
  972SOL    HW1 5548   7.434   7.131   2.628  3.3367  2.2306  2.2692
  972SOL    HW2 5549   7.546   7.034   2.599  0.9872 -0.0445  0.3610
  973SOL     OW 5550   2.594   9.374   9.789  0.0604 -0.6922  0.4515
  973SOL    HW1 5551   2.560   9.421   9.865  1.0460  0.7850  0.0350
  973SOL    HW2 5552   2.575   9.282   9.807 -1.4468 -0.2018  1.5683
  974SOL     OW 5553   7.895   8.982   0.040 -0.3957  0.7405  0.2342
  974SOL    HW1 5554   7.904   9.048   0.108 -0.5409  0.2988  0.6825
  974SOL    HW2 5555   7.810   8.941   0.057 -0.0135 -0.0156  0.3659
  975SOL     OW 5556   1.487   2.790   4.510 -0.2704  0.1952 -0.4970
  975SOL    HW1 5557   1.520   2.700   4.502  0.4792  0.5787 -2.1686
  975SOL    HW2 5558   1.527   2.837   4.436 -1.5511  1.6282 -0.3315
  976SOL     OW 5559   5.601   1.239   4.705 -0.2063  0.0792  0.2416
  976SOL    HW1 5560   5.507   1.235   4.686 -0.0472 -0.0975 -0.5469
  976SOL    HW2 5561   5.641   1.268   4.623  0.1900  2.9488  1.3550
  977SOL     OW 5562   2.728   2.120   9.564  0.3813  0.5851 -0.1401
  977SOL    HW1 5563   2.673   2.044   9.544  2.0941 -0.7633 -0.0740
  977SOL    HW2 5564   2.780   2.092   9.639  0.1043  2.3680  0.7397
  978SOL     OW 5565   6.234   5.443   9.426 -0.5696  0.0054 -0.2965
  978SOL    HW1 5566   6.324   5.411   9.416 -0.4561  0.0285  0.6039
  978SOL    HW2 5567   6.238   5.501   9.501 -1.1155  0.8829 -0.9343
  979SOL     OW 5568   1.973   2.234   0.424 -0.3141  0.2198  0.4124
  979SOL    HW1 5569   2.054   2.218   0.376  0.2611  1.0203  1.0851
  979SOL    HW2 5570   1.913   2.270   0.360 -0.1649 -0.4278 -0.1051
  980SOL     OW 5571   5.388   4.494   0.589  0.3115  0.3114 -0.3951
  980SOL    HW1 5572   5.373   4.540   0.506  1.8320 -0.8897 -1.3930
  980SOL    HW2 5573   5.327   4.420   0.587 -1.6897  1.8075  0.9291
  981SOL     OW 5574   1.461   7.313   0.415  0.1042 -0.3805 -0.4195
  981SOL    HW1 5575   1.468   7.234   0.362  0.3619 -0.0295 -0.9155
  981SOL    HW2 5576   1.551   7.334   0.439  0.0061 -0.4294  0.0004
  982SOL     OW 5577   5.771   3.571   7.891  0.1188  0.5646 -0.0827
  982SOL    HW1 5578   5.689   3.564   7.840 -0.6277  1.1573  0.9884
  982SOL    HW2 5579   5.743   3.605   7.976  1.3415 -0.4343  0.7466
  983SOL     OW 5580   5.935   1.098   3.807 -0.2113 -0.2907 -0.0919
  983SOL    HW1 5581   5.931   1.059   3.895 -2.5518  0.4981  0.2169
  983SOL    HW2 5582   5.999   1.169   3.815 -0.2488 -0.3582  0.9213
  984SOL     OW 5583   7.718   7.856   5.144 -0.3590 -0.0205 -0.4320
  984SOL    HW1 5584   7.729   7.951   5.144  2.5158 -0.2550  0.7165
  984SOL    HW2 5585   7.786   7.823   5.086 -1.9525 -1.4103 -1.6470
  985SOL     OW 5586   3.160  10.306   8.031 -0.2003  0.3814  0.0677
  985SOL    HW1 5587   3.174  10.217   7.999  1.6550  0.6854 -0.0789
  985SOL    HW2 5588   3.153  10.360   7.952 -3.7048  0.1456  0.0663
  986SOL     OW 5589   8.672   0.160   0.840 -0.4477 -0.1647  0.5041
  986SOL    HW1 5590   8.718   0.123   0.915  0.1495  0.5609  0.5024
  986SOL    HW2 5591   8.588   0.114   0.838  0.3907 -1.7267  0.3149
  987SOL     OW 5592   8.193  10.126   0.307 -0.3848 -0.2132 -0.1612
  987SOL    HW1 5593   8.120  10.094   0.255 -0.2421  0.0349 -0.5148
  987SOL    HW2 5594   8.268  10.074   0.278 -0.2436  0.1358 -0.4201
  988SOL     OW 5595   2.647   2.429   4.808 -0.1804 -0.4561 -0.3537
  988SOL    HW1 5596   2.723   2.428   4.749  0.6655  2.9701  0.4660
  988SOL    HW2 5597   2.685   2.421   4.895 -0.8355  0.1845 -0.0031
  989SOL     OW 5598   0.559   8.240   7.491 -0.6736 -0.2472 -0.3737
  989SOL    HW1 5599   0.602   8.205   7.569  0.4837 -0.6201 -1.1563
  989SOL    HW2 5600   0.481   8.284   7.524 -0.3804 -0.6961  0.9559
  990SOL     OW 5601  10.252   6.213   6.034  0.1413  0.3071 -0.0843
  990SOL    HW1 5602  10.168   6.197   6.077 -0.3773  0.7319 -0.9150
  990SOL    HW2 5603  10.285   6.293   6.075  0.3123 -0.0422  0.4777
  991SOL     OW 5604   2.612   2.143   5.514 -0.2307 -0.2844 -0.3619
  991SOL    HW1 5605   2.658   2.131   5.597 -1.2086  0.7001  0.3590
  991SOL    HW2 5606   2.580   2.233   5.517 -0.2578 -0.2073 -1.8402
  992SOL     OW 5607   6.284   3.908   0.762 -0.1437 -0.1362  0.2387
  992SOL    HW1 5608   6.261   3.892   0.854  0.1404 -0.4821  0.2507
  992SOL    HW2 5609   6.202   3.938   0.722 -0.5263 -0.9733  0.3688
  993SOL     OW 5610   9.846   8.542   4.316 -0.7001  0.0190 -0.3784
  993SOL    HW1 5611   9.928   8.590   4.302 -0.4398 -0.7897 -1.9198
  993SOL    HW2 5612   9.800   8.549   4.232 -1.6758 -0.5377  0.0957
  994SOL     OW 5613   9.124   5.532   9.280 -0.2263  0.2275  0.3398
  994SOL    HW1 5614   9.065   5.565   9.212  0.6331  0.7553 -0.1767
  994SOL    HW2 5615   9.133   5.439   9.261  2.5816  0.8534 -2.4300
  995SOL     OW 5616   4.971   4.929   8.384 -0.0965  0.2386  0.0231
  995SOL    HW1 5617   4.967   5.010   8.332  3.1412 -0.0571 -0.9210
  995SOL    HW2 5618   4.991   4.861   8.319 -0.6101 -0.9601  1.0930
  996SOL     OW 5619   9.825   7.523  10.090 -0.1784  0.4693 -0.1494
  996SOL    HW1 5620   9.849   7.565  10.172  0.8207 -1.7313  0.7546
  996SOL    HW2 5621   9.730   7.532  10.086 -0.1000  1.8700  0.4955
  997SOL     OW 5622   1.193   5.382   6.579 -0.1374 -0.5560  0.8054
  997SOL    HW1 5623   1.285   5.359   6.571 -0.8518 -3.0447 -1.5645
  997SOL    HW2 5624   1.150   5.302   6.610 -1.5323  0.6103  2.0777
  998SOL     OW 5625   3.279   0.612   4.245  0.2136  0.1990 -0.3169
  998SOL    HW1 5626   3.236   0.544   4.297 -0.1592 -0.1717 -1.0922
  998SOL    HW2 5627   3.346   0.648   4.304 -0.5622  0.1863  0.6070
  999SOL     OW 5628   0.410   2.786  10.246  0.2608  0.0091 -0.0062
  999SOL    HW1 5629   0.408   2.785  10.342  0.7505  0.4365  0.0142
  999SOL    HW2 5630   0.331   2.834  10.221 -0.7659 -1.5402  0.1236
 1000SOL     OW 5631   8.738   5.774   1.315  0.2324  0.3891  0.6133
 1000SOL    HW1 5632   8.651   5.750   1.282 -0.0565 -0.2007  1.7633
 1000SOL    HW2 5633   8.798   5.748   1.245 -0.4311 -0.0585  0.2026
 1001SOL     OW 5634   6.717   6.060   7.512  0.0279 -0.8239  0.0169
 1001SOL    HW1 5635   6.700   6.153   7.499  0.3916 -0.8034 -0.3249
 1001SOL    HW2 5636   6.654   6.017   7.454 -1.1856 -0.8367  1.3059
 1002SOL     OW 5637   4.347   1.419   3.273  0.1575 -0.5687  0.2402
 1002SOL    HW1 5638   4.437   1.452   3.271 -1.0889  3.4091  1.0065
 1002SOL    HW2 5639   4.298   1.476   3.213 -2.5503  0.2812  2.9591
 1003SOL     OW 5640   1.979   5.070   6.985 -0.8390 -0.2806 -0.6380
 1003SOL    HW1 5641   2.008   5.156   7.016  1.4164 -0.7429 -1.2933
 1003SOL    HW2 5642   1.928   5.034   7.057  1.1622  0.1849  1.1043
 1004SOL     OW 5643   8.283   3.706   8.739 -0.0289 -0.2588  0.7947
 1004SOL    HW1 5644   8.329   3.697   8.822  0.2514  1.9090  0.9539
 1004SOL    HW2 5645   8.264   3.800   8.733 -0.3483 -0.4102 -1.4289
 1005SOL     OW 5646   8.027   4.874   4.094  0.0072 -0.0196 -0.1436
 1005SOL    HW1 5647   7.955   4.882   4.158  0.6878 -0.1142  0.6506
 1005SOL    HW2 5648   8.102   4.845   4.146  0.8692  0.9738 -0.7969
 1006SOL     OW 5649   3.828   7.458   1.513 -0.3324 -0.3539  0.0020
 1006SOL    HW1 5650   3.896   7.525   1.515 -0.4789 -0.2168  0.4146
 1006SOL    HW2 5651   3.876   7.377   1.495 -0.3276  0.0686 -2.0617
 1007SOL     OW 5652   5.026   6.775   2.608  0.7470 -0.1919 -0.4534
 1007SOL    HW1 5653   5.008   6.824   2.528  0.2353  1.1896  0.4721
 1007SOL    HW2 5654   5.075   6.698   2.579  2.0796  1.1330 -1.9096
 1008SOL     OW 5655   0.107   3.946   9.827 -0.0168 -0.7221  0.2178
 1008SOL    HW1 5656   0.147   3.860   9.840  2.1643 -0.2060 -2.3115
 1008SOL    HW2 5657   0.140   3.999   9.900  3.6054 -0.5028 -1.3842
 1009SOL     OW 5658   5.526   1.626   0.586 -0.1747 -0.2093  0.3496
 1009SOL    HW1 5659   5.477   1.600   0.663 -0.2242 -1.7117 -0.1638
 1009SOL    HW2 5660   5.503   1.562   0.519  2.1389 -0.7373 -0.0363
 1010SOL     OW 5661   2.399   7.277   8.392 -0.1096  0.1396  0.2824
 1010SOL    HW1 5662   2.377   7.219   8.465 -0.6703  1.9894  1.6444
 1010SOL    HW2 5663   2.494   7.273   8.386 -0.1311 -0.8562  0.3904
 1011SOL     OW 5664   4.382   9.816   1.545 -0.1789  0.3023 -0.1109
 1011SOL    HW1 5665   4.349   9.872   1.474 -0.6248  0.4356  0.1995
 1011SOL    HW2 5666   4.303   9.788   1.592  0.1791  4.3520  3.5408
 1012SOL     OW 5667   2.128   5.385   1.648  0.0124  0.0095  0.3640
 1012SOL    HW1 5668   2.181   5.450   1.694 -0.2442  0.5939 -0.1592
 1012SOL    HW2 5669   2.074   5.436   1.588  0.5090 -0.7691 -0.7690
 1013SOL     OW 5670   4.785   7.666   9.789  0.3097  0.5304 -0.3568
 1013SOL    HW1 5671   4.723   7.673   9.862 -0.6492 -0.6861 -1.0078
 1013SOL    HW2 5672   4.843   7.741   9.799 -2.0725  2.5083 -0.4584
 1014SOL     OW 5673   2.667   1.433   1.109  0.0280 -0.1932  0.1179
 1014SOL    HW1 5674   2.760   1.445   1.130  0.6844 -1.6804 -1.7138
 1014SOL    HW2 5675   2.664   1.432   1.014 -1.2665 -3.8439  0.0696
 1015SOL     OW 5676   5.700   4.255   9.664 -0.1063  0.3247 -0.4622
 1015SOL    HW1 5677   5.631   4.189   9.657 -0.4735  0.6059  0.3163
 1015SOL    HW2 5678   5.774   4.218   9.617  0.1919 -1.3340  1.1806
 1016SOL     OW 5679   9.843   6.857   1.675  0.8412 -0.0696  0.1532
 1016SOL    HW1 5680   9.852   6.765   1.648  0.9694 -0.4667  1.4636
 1016SOL    HW2 5681   9.930   6.880   1.709  0.3633  0.0138  1.3527
 1017SOL     OW 5682   4.424   0.492   5.246 -0.0189  0.1705 -0.1815
 1017SOL    HW1 5683   4.357   0.512   5.311  0.7377  0.9115  0.4012
 1017SOL    HW2 5684   4.378   0.444   5.177 -1.2720  1.1838 -0.0895
 1018SOL     OW 5685   5.919   9.652   0.497  0.6676 -0.6918 -0.2113
 1018SOL    HW1 5686   6.011   9.667   0.516  0.6526 -0.1194 -0.5649
 1018SOL    HW2 5687   5.905   9.559   0.517  0.7145 -0.2268  2.1773
 1019SOL     OW 5688   7.283   9.127   4.941 -0.1384 -0.2869  0.2071
 1019SOL    HW1 5689   7.257   9.179   5.017  0.7068 -0.8007  0.8601
 1019SOL    HW2 5690   7.258   9.037   4.964 -1.6909 -0.2035 -0.9554
 1020SOL     OW 5691   4.707   0.088   7.136  0.5828  0.1506  0.0216
 1020SOL    HW1 5692   4.770   0.087   7.063  0.2617 -1.3636 -0.2700
 1020SOL    HW2 5693   4.653   0.165   7.120  0.6318 -0.0607 -1.2660
 1021SOL     OW 5694   5.160   5.175   9.306  0.4679  0.0933 -0.0746
 1021SOL    HW1 5695   5.085   5.119   9.287  0.5592  0.0833 -0.4227
 1021SOL    HW2 5696   5.176   5.221   9.223  1.5911 -0.7874 -0.3762
 1022SOL     OW 5697   4.452   0.050   2.966  0.2344 -0.6142  0.4737
 1022SOL    HW1 5698   4.358   0.046   2.986 -0.3173 -1.6798 -1.9915
 1022SOL    HW2 5699   4.495   0.016   3.044 -1.1951  2.2088  2.6871
 1023SOL     OW 5700   2.469   9.849   2.744 -0.3465 -0.6681  0.9006
 1023SOL    HW1 5701   2.534   9.828   2.811  0.5967  0.0669  0.2522
 1023SOL    HW2 5702   2.500   9.804   2.666  1.2998  2.2351 -0.3096
 1024SOL     OW 5703   3.684   5.962  10.083  0.2883  0.3605  0.3769
 1024SOL    HW1 5704   3.639   6.029  10.032  1.5032  0.2664 -0.8666
 1024SOL    HW2 5705   3.613   5.908  10.120 -0.6450  1.2069 -0.1452
 1025SOL     OW 5706   7.116   7.719   9.059  0.6382  0.5545  0.0390
 1025SOL    HW1 5707   7.129   7.626   9.038 -1.7849 -0.0909  1.0623
 1025SOL    HW2 5708   7.024   7.725   9.085  1.3349  2.7791  2.4310
 1026SOL     OW 5709   8.796   8.984   2.723 -0.1545 -0.2851 -0.3805
 1026SOL    HW1 5710   8.820   8.911   2.666  0.2253  0.5598 -1.3301
 1026SOL    HW2 5711   8.717   9.021   2.682  0.6657  0.9171 -0.9153
 1027SOL     OW 5712   3.647   3.202   1.064  0.5869  0.3821  0.3814
 1027SOL    HW1 5713   3.643   3.134   1.131  0.5064  0.2999  0.2941
 1027SOL    HW2 5714   3.631   3.284   1.111  0.9709  0.3713  0.5341
 1028SOL     OW 5715   6.420   2.852   7.140 -0.2579 -0.3001  0.0424
 1028SOL    HW1 5716   6.497   2.825   7.091 -1.1684 -1.4132 -0.8375
 1028SOL    HW2 5717   6.402   2.941   7.110 -0.1409 -0.5612 -0.8286
 1029SOL     OW 5718   1.008   5.134   4.359  0.4470  0.1094  0.1514
 1029SOL    HW1 5719   0.969   5.128   4.447 -0.2111  0.4459 -0.1147
 1029SOL    HW2 5720   1.032   5.226   4.350 -1.5763  0.5851 -0.8885
 1030SOL     OW 5721   8.819   4.688   7.158  0.2466  0.2354  0.4799
 1030SOL    HW1 5722   8.763   4.629   7.207 -0.7098  0.2723 -0.5388
 1030SOL    HW2 5723   8.792   4.677   7.066  1.4863  0.6986  0.0339
 1031SOL     OW 5724   6.497   5.176   8.999  0.4363  0.5358 -0.3500
 1031SOL    HW1 5725   6.491   5.166   8.904 -0.2166 -0.0554 -0.2581
 1031SOL    HW2 5726   6.539   5.095   9.029 -1.4815 -0.3435  0.0706
 1032SOL     OW 5727   3.146   9.384   3.136 -0.0593 -0.1157 -0.5176
 1032SOL    HW1 5728   3.101   9.408   3.217  1.1345 -0.2147  0.2023
 1032SOL    HW2 5729   3.090   9.317   3.096  0.3992 -1.6960  1.3411
 1033SOL     OW 5730   1.554   6.867   3.199  0.6516 -0.3896 -0.2168
 1033SOL    HW1 5731   1.586   6.867   3.108  0.6103  1.0419 -0.2514
 1033SOL    HW2 5732   1.501   6.787   3.205 -2.5775  1.3341 -2.6490
 1034SOL     OW 5733   8.062   2.288   1.440 -0.3573  0.1840  0.1307
 1034SOL    HW1 5734   7.996   2.289   1.510 -0.7784  0.3604 -0.2608
 1034SOL    HW2 5735   8.044   2.368   1.390  0.0576  0.1514 -0.0682
 1035SOL     OW 5736   8.812   6.365   2.786  0.0684 -0.8941  0.5141
 1035SOL    HW1 5737   8.775   6.390   2.870  1.7449  0.8914  0.7866
 1035SOL    HW2 5738   8.882   6.428   2.771 -0.0048 -1.3210 -2.0973
 1036SOL     OW 5739   8.851   8.595   5.917 -0.0290  0.7048 -0.3452
 1036SOL    HW1 5740   8.895   8.650   5.851 -0.4431  0.8964 -0.4615
 1036SOL    HW2 5741   8.782   8.550   5.869 -0.4497  0.9810 -0.0074
 1037SOL     OW 5742   4.079   6.049   0.453 -0.3714  0.5419 -0.4038
 1037SOL    HW1 5743   4.170   6.078   0.460  0.0029 -0.4120 -1.0937
 1037SOL    HW2 5744   4.027   6.129   0.465  0.6080  1.5415 -2.4052
 1038SOL     OW 5745   3.402   5.511   2.852  0.6451  0.1086 -0.2344
 1038SOL    HW1 5746   3.494   5.533   2.870  1.0798 -1.9374  0.3559
 1038SOL    HW2 5747   3.396   5.508   2.757  1.1670  0.3613 -0.2801
 1039SOL     OW 5748   8.988   4.231   3.512  0.4709  0.0343  0.3683
 1039SOL    HW1 5749   9.025   4.155   3.466 -0.0283 -0.1843  0.3164
 1039SOL    HW2 5750   9.062   4.269   3.560  0.9131  0.0328 -0.3031
 1040SOL     OW 5751   3.047   8.317   9.289  0.3076  0.4479  0.2832
 1040SOL    HW1 5752   2.973   8.267   9.256  0.0227  0.5770  0.7103
 1040SOL    HW2 5753   3.011   8.366   9.363  1.4827 -1.8369  2.5323
 1041SOL     OW 5754   9.608   1.079   9.965 -0.7477  0.6224  0.4995
 1041SOL    HW1 5755   9.528   1.063   9.916 -0.5599  0.4478  0.2496
 1041SOL    HW2 5756   9.579   1.093  10.055 -1.0001 -0.1883  0.5545
 1042SOL     OW 5757   4.438   0.717   3.791 -0.0474  0.4921 -0.1212
 1042SOL    HW1 5758   4.456   0.709   3.698  0.5655 -2.1874  0.1277
 1042SOL    HW2 5759   4.505   0.777   3.824 -0.3034  1.5050 -1.3760
 1043SOL     OW 5760   5.041   2.499   9.679 -0.0587 -0.0301  0.4342
 1043SOL    HW1 5761   5.104   2.471   9.613  0.1748  0.9339  0.2215
 1043SOL    HW2 5762   5.030   2.423   9.736 -0.6802 -1.0562 -1.0008
 1044SOL     OW 5763   8.036   6.137   8.838 -0.3881  0.0251  0.6248
 1044SOL    HW1 5764   8.117   6.124   8.887 -0.2748  1.7774  0.9721
 1044SOL    HW2 5765   8.019   6.052   8.796  1.6427 -0.3687  0.5114
 1045SOL     OW 5766   3.469   5.353  10.145 -0.0022 -0.2956  0.3630
 1045SOL    HW1 5767   3.414   5.275  10.160  0.1771 -0.7216 -1.0201
 1045SOL    HW2 5768   3.498   5.379  10.232  0.2839 -2.0378  0.8305
 1046SOL     OW 5769   6.572   9.727   4.985  0.0561 -0.5087 -0.3622
 1046SOL    HW1 5770   6.492   9.746   4.936 -0.2877 -2.8393 -0.8401
 1046SOL    HW2 5771   6.569   9.786   5.060  0.1324  2.5563 -2.5827
 1047SOL     OW 5772   6.268   4.627   1.081 -1.0699 -0.0780 -0.5551
 1047SOL    HW1 5773   6.273   4.604   0.989 -0.6065  1.4311 -0.9329
 1047SOL    HW2 5774   6.296   4.718   1.085 -1.9188  0.1525  0.9751
 1048SOL     OW 5775   2.647   2.622   8.382 -0.4033  0.6951 -0.3700
 1048SOL    HW1 5776   2.672   2.560   8.313  1.3475  0.5803  0.3198
 1048SOL    HW2 5777   2.553   2.635   8.370 -0.3861 -0.3781 -1.9127
 1049SOL     OW 5778   0.015   6.123   5.805  0.6282  0.5781 -0.5050
 1049SOL    HW1 5779   0.092   6.074   5.837  1.2008  1.2420 -0.8514
 1049SOL    HW2 5780  -0.027   6.155   5.885 -0.5000 -1.5214 -0.1637
 1050SOL     OW 5781   5.314   4.233   1.980  0.0369  0.0108 -0.8152
 1050SOL    HW1 5782   5.274   4.278   1.905  0.1182  1.2955 -0.1114
 1050SOL    HW2 5783   5.256   4.159   1.996 -0.1674 -0.1027 -1.9423
 1051SOL     OW 5784   4.861   7.634   3.830 -0.0719  0.3084 -0.1250
 1051SOL    HW1 5785   4.826   7.556   3.871 -3.6456  0.8324 -1.7940
 1051SOL    HW2 5786   4.865   7.699   3.901  0.1988 -0.5665  0.6766
 1052SOL     OW 5787   5.972   0.407   2.430  0.4035  0.3864  0.2599
 1052SOL    HW1 5788   6.042   0.472   2.424  0.8484 -0.0103  0.9754
 1052SOL    HW2 5789   5.988   0.347   2.358  0.6501  0.4387  0.2713
 1053SOL     OW 5790   3.151   5.223   1.957  0.4504  0.5930  0.2237
 1053SOL    HW1 5791   3.113   5.163   1.893 -0.4345  1.3876 -0.0233
 1053SOL    HW2 5792   3.245   5.221   1.940  0.5942 -1.6084  1.0133
 1054SOL     OW 5793   2.563   4.317   2.200 -0.0522  0.3739  0.2879
 1054SOL    HW1 5794   2.580   4.392   2.257  2.2955 -0.8674  1.3501
 1054SOL    HW2 5795   2.474   4.290   2.222 -0.1439  1.5291  1.4518
 1055SOL     OW 5796   6.349   9.780   4.610 -0.2292 -0.0074 -0.2502
 1055SOL    HW1 5797   6.439   9.749   4.596 -0.4729  0.0070 -2.2404
 1055SOL    HW2 5798   6.360   9.864   4.653  0.6088 -0.9062  1.3757
 1056SOL     OW 5799   5.277   5.918  10.300  0.4602 -0.7160 -0.6250
 1056SOL    HW1 5800   5.261   5.834  10.343  1.1378 -0.6144 -0.1571
 1056SOL    HW2 5801   5.365   5.943  10.329 -0.2656  0.8284  0.3582
 1057SOL     OW 5802   1.918   6.771   5.383 -0.0523 -0.4552 -0.4312
 1057SOL    HW1 5803   1.826   6.762   5.358 -0.5870  1.5673  0.6070
 1057SOL    HW2 5804   1.924   6.726   5.468 -0.1806 -0.2185 -0.2971
 1058SOL     OW 5805   3.250   5.284   2.421  0.4265  0.3964 -0.1483
 1058SOL    HW1 5806   3.178   5.272   2.360  0.4792 -0.5046 -0.0394
 1058SOL    HW2 5807   3.314   5.217   2.397  0.7757  0.5125  0.4268
 1059SOL     OW 5808   4.359   5.446   5.289  0.6192 -0.2549 -0.4138
 1059SOL    HW1 5809   4.264   5.450   5.296  0.7579  1.0862  1.5265
 1059SOL    HW2 5810   4.376   5.443   5.194 -1.3342 -0.4890 -0.7938
 1060SOL     OW 5811   8.515   0.241   8.704 -0.0032  0.2310 -0.0944
 1060SOL    HW1 5812   8.560   0.324   8.689 -3.0007  1.9683 -0.1635
 1060SOL    HW2 5813   8.450   0.236   8.634 -4.3334  1.2279  3.4276
 1061SOL     OW 5814   1.932  10.101   1.942  0.0421  0.1725  0.4489
 1061SOL    HW1 5815   1.865  10.131   1.880 -2.0846 -1.3476  1.8763
 1061SOL    HW2 5816   1.989  10.177   1.954 -0.0235  0.8213 -2.5621
 1062SOL     OW 5817   2.442   6.821   7.030  0.7025 -0.8204  0.4671
 1062SOL    HW1 5818   2.371   6.816   7.095  0.4715  0.0307  0.2923
 1062SOL    HW2 5819   2.520   6.791   7.077 -0.1743 -4.3709 -0.0363
 1063SOL     OW 5820   8.191   4.816   2.975  0.8824  0.5862  0.2475
 1063SOL    HW1 5821   8.130   4.837   3.046  2.8145  0.2912  2.0855
 1063SOL    HW2 5822   8.274   4.854   3.002  1.8814 -0.2169 -1.5068
 1064SOL     OW 5823   3.340   0.110   2.529  0.4087  0.1065 -0.0720
 1064SOL    HW1 5824   3.310   0.048   2.462  0.6035  1.3727 -1.3541
 1064SOL    HW2 5825   3.435   0.096   2.534  0.3837 -0.0421  0.0237
 1065SOL     OW 5826   0.501   9.596   0.302 -0.4930 -0.0535 -0.1524
 1065SOL    HW1 5827   0.551   9.652   0.242  0.8111 -0.6733  0.3106
 1065SOL    HW2 5828   0.410   9.624   0.291  0.1505  2.6619  0.5427
 1066SOL     OW 5829   6.984   1.212   2.283  0.3132  0.1474  0.0023
 1066SOL    HW1 5830   7.062   1.264   2.265  0.1784  0.3600  0.0289
 1066SOL    HW2 5831   6.912   1.262   2.244  0.3753 -0.8455 -1.4699
 1067SOL     OW 5832   5.241   4.964   6.485  0.1207 -0.0613 -0.1154
 1067SOL    HW1 5833   5.184   5.041   6.495  0.3477 -0.0769  1.5841
 1067SOL    HW2 5834   5.324   4.991   6.525  0.4425 -0.9478 -0.1786
 1068SOL     OW 5835   2.847   3.465   7.137  0.3643  0.3452 -1.2077
 1068SOL    HW1 5836   2.891   3.523   7.076  1.4379  1.8334  0.8422
 1068SOL    HW2 5837   2.854   3.510   7.222  0.9374 -2.5791  0.4336
 1069SOL     OW 5838   2.557   8.159   7.613 -0.0981 -0.2182 -0.0178
 1069SOL    HW1 5839   2.568   8.078   7.562 -2.6409 -1.0671  0.5828
 1069SOL    HW2 5840   2.632   8.160   7.673  0.9182 -1.2044 -1.2132
 1070SOL     OW 5841   7.704   2.592   5.942  0.0886 -0.0455 -0.9146
 1070SOL    HW1 5842   7.716   2.658   6.011  1.1763 -0.9431 -0.2207
 1070SOL    HW2 5843   7.770   2.614   5.876  0.6144 -0.5597 -0.5717
 1071SOL     OW 5844   3.051   1.423   9.241 -0.1024 -0.5954 -0.1431
 1071SOL    HW1 5845   3.080   1.343   9.197 -2.2507 -0.6136 -1.7277
 1071SOL    HW2 5846   2.957   1.426   9.225 -0.8694  0.0415  3.5933
 1072SOL     OW 5847   1.479   3.359   3.050 -0.9659  0.2575 -0.3071
 1072SOL    HW1 5848   1.538   3.412   3.104 -1.1182  0.7726 -0.6348
 1072SOL    HW2 5849   1.438   3.298   3.111  1.4632 -1.5796 -0.3553
 1073SOL     OW 5850   4.750   4.987   1.469 -0.1800 -0.0458 -0.4857
 1073SOL    HW1 5851   4.822   4.968   1.409  0.8296  1.1849  0.2749
 1073SOL    HW2 5852   4.739   4.907   1.520 -0.9315 -1.0467 -2.1332
 1074SOL     OW 5853   7.676   9.305   8.841  0.0158  0.0348 -0.2740
 1074SOL    HW1 5854   7.656   9.392   8.807  3.1642  1.5372  1.2945
 1074SOL    HW2 5855   7.655   9.310   8.934  0.5060 -0.7832 -0.1081
 1075SOL     OW 5856   1.530   3.214   4.491  0.2024 -0.1717 -0.1663
 1075SOL    HW1 5857   1.462   3.192   4.555 -0.5646  2.3272  0.0141
 1075SOL    HW2 5858   1.609   3.226   4.544 -0.1059  0.5025  0.1603
 1076SOL     OW 5859   4.626   6.234   3.588  0.2290  0.1584 -0.2080
 1076SOL    HW1 5860   4.540   6.275   3.602  0.6483  0.8241  0.4974
 1076SOL    HW2 5861   4.649   6.258   3.498 -0.0590  0.4883 -0.1976
 1077SOL     OW 5862   5.131   6.792   7.342 -0.2631 -0.0068 -0.3500
 1077SOL    HW1 5863   5.217   6.762   7.372 -0.6543 -0.5813  0.2172
 1077SOL    HW2 5864   5.138   6.888   7.341 -0.2296  0.0427  1.6063
 1078SOL     OW 5865   8.342   8.906   2.167  0.6201 -0.1231  0.5215
 1078SOL    HW1 5866   8.251   8.897   2.195  0.0252  0.8684 -0.9464
 1078SOL    HW2 5867   8.346   8.994   2.130  1.7604 -0.7272 -0.8666
 1079SOL     OW 5868  10.014   4.044   3.891  0.9311 -0.5043  0.4778
 1079SOL    HW1 5869  10.109   4.042   3.879  1.0708 -1.1918  1.5550
 1079SOL    HW2 5870  10.002   4.040   3.986 -0.1843 -0.8273  0.3367
 1080SOL     OW 5871   5.121   3.532   7.563  0.2969 -0.4177  0.6122
 1080SOL    HW1 5872   5.069   3.584   7.501  1.2215 -0.0097  0.1702
 1080SOL    HW2 5873   5.104   3.572   7.648 -0.2314 -0.3873  0.4973
 1081SOL     OW 5874   0.346   7.500   3.850 -0.2164 -0.8859 -0.3539
 1081SOL    HW1 5875   0.304   7.553   3.782  0.3870  3.2407  2.1591
 1081SOL    HW2 5876   0.439   7.520   3.843  0.2038 -2.5728 -0.0137
 1082SOL     OW 5877   4.928   7.696   4.964 -0.5720 -0.0569 -0.5049
 1082SOL    HW1 5878   4.988   7.766   4.938  1.4189 -1.4307  0.1151
 1082SOL    HW2 5879   4.851   7.742   4.999 -0.0092  1.7822 -1.5306
 1083SOL     OW 5880   7.316   0.064   0.218  0.4413  0.2570  0.3496
 1083SOL    HW1 5881   7.245   0.024   0.169  0.5978 -0.5430  0.7604
 1083SOL    HW2 5882   7.275   0.137   0.265 -0.6806 -1.6275  2.5103
 1084SOL     OW 5883   1.891   0.676   6.314 -0.2413  0.3833  0.0709
 1084SOL    HW1 5884   1.940   0.692   6.234  2.0559 -2.3536  0.7751
 1084SOL    HW2 5885   1.957   0.674   6.384 -2.1494  2.6980  2.1529
 1085SOL     OW 5886   8.271   3.439   2.518 -0.5466  0.6271  0.3384
 1085SOL    HW1 5887   8.262   3.345   2.503  2.0346  0.0605  1.6430
 1085SOL    HW2 5888   8.255   3.450   2.612 -0.4028  1.4016  0.2802
 1086SOL     OW 5889   8.235   5.119   4.686 -0.1503  0.9672 -0.2759
 1086SOL    HW1 5890   8.172   5.066   4.734  0.7915 -0.6593 -0.7318
 1086SOL    HW2 5891   8.218   5.209   4.714 -2.9007  0.6496 -0.6891
 1087SOL     OW 5892   3.805   3.924  10.188 -0.0517  0.2663 -0.0724
 1087SOL    HW1 5893   3.789   3.836  10.153  0.3321 -0.0467  0.5145
 1087SOL    HW2 5894   3.885   3.953  10.144  0.1106  0.1069  0.1137
 1088SOL     OW 5895  10.006   1.040   1.211 -0.4083  0.3219  0.3884
 1088SOL    HW1 5896  10.070   0.969   1.206  0.0617  0.8031 -3.5901
 1088SOL    HW2 5897  10.058   1.120   1.208 -1.0749  0.8420  1.8005
 1089SOL     OW 5898   2.879   8.844   1.338 -0.0270 -0.0963 -0.2499
 1089SOL    HW1 5899   2.953   8.870   1.284 -1.7679  2.6273 -1.5701
 1089SOL    HW2 5900   2.897   8.881   1.424 -0.4101  1.7692 -0.9317
 1090SOL     OW 5901   8.604   0.621  10.312 -0.0775 -0.2831  0.3623
 1090SOL    HW1 5902   8.560   0.692  10.264  0.0103  0.3266  1.1673
 1090SOL    HW2 5903   8.694   0.651  10.323 -0.1782 -0.2610  1.1921
 1091SOL     OW 5904   3.437   6.385   2.456  0.0090  0.5669 -0.2895
 1091SOL    HW1 5905   3.501   6.453   2.437 -0.1113  0.8787  0.3648
 1091SOL    HW2 5906   3.413   6.401   2.547 -2.1953  1.4892 -0.9588
 1092SOL     OW 5907   5.729   3.582   0.079 -0.1289  0.1045  0.5628
 1092SOL    HW1 5908   5.695   3.516   0.139  0.0447  0.9825  1.6512
 1092SOL    HW2 5909   5.785   3.637   0.133  4.2603 -2.0375 -1.3252
 1093SOL     OW 5910   1.810   4.042   1.292  0.8585  0.2003 -0.1902
 1093SOL    HW1 5911   1.879   4.023   1.228 -0.0377 -1.2914 -0.7711
 1093SOL    HW2 5912   1.731   4.052   1.240  0.0990 -1.1067  0.6491
 1094SOL     OW 5913   9.518   2.355   3.633 -0.2709 -0.2250 -0.0181
 1094SOL    HW1 5914   9.564   2.272   3.642  0.3137 -0.0076 -0.9066
 1094SOL    HW2 5915   9.462   2.344   3.556 -0.4110  0.0947  0.0347
 1095SOL     OW 5916  10.152   5.671   5.407  0.1588 -0.0058  0.3026
 1095SOL    HW1 5917  10.082   5.624   5.362  0.5128 -0.4443  0.1953
 1095SOL    HW2 5918  10.217   5.687   5.338  1.3865 -2.0018  0.9303
 1096SOL     OW 5919   5.834   7.518   4.006 -0.0817  0.0322  0.0849
 1096SOL    HW1 5920   5.750   7.544   3.968  0.1729  0.0392 -0.4786
 1096SOL    HW2 5921   5.820   7.523   4.101 -0.4578  0.8812 -0.0047
 1097SOL     OW 5922   6.713   5.673   7.295  0.1342 -0.0257 -0.5387
 1097SOL    HW1 5923   6.805   5.696   7.303 -0.2214  1.4795 -0.2876
 1097SOL    HW2 5924   6.685   5.658   7.386  0.1924 -0.7930 -0.6413
 1098SOL     OW 5925   2.261   9.226   3.670 -0.2783 -0.7391  0.2588
 1098SOL    HW1 5926   2.183   9.198   3.622 -0.5818  0.6203 -0.0985
 1098SOL    HW2 5927   2.312   9.146   3.682 -0.0703 -1.1450 -2.5626
 1099SOL     OW 5928   9.565   8.040   5.790  0.0774 -0.7132  0.3615
 1099SOL    HW1 5929   9.575   7.981   5.715  0.6631 -0.0197 -0.1183
 1099SOL    HW2 5930   9.484   8.087   5.772  0.9609  0.5149 -0.6196
 1100SOL     OW 5931   4.203   9.485   7.689 -0.7259 -0.1426  0.0179
 1100SOL    HW1 5932   4.131   9.544   7.668 -0.0354  0.3694 -1.0548
 1100SOL    HW2 5933   4.281   9.540   7.680 -0.1544 -0.8677  0.4432
 1101SOL     OW 5934   2.361   7.530   6.500 -0.3761 -0.4271  0.5336
 1101SOL    HW1 5935   2.332   7.597   6.438  3.9168  0.4739 -0.8325
 1101SOL    HW2 5936   2.393   7.579   6.576  0.9423 -1.0251  0.3865
 1102SOL     OW 5937   3.538   0.269  10.115 -0.7082 -0.2989  0.7777
 1102SOL    HW1 5938   3.618   0.229  10.147 -1.1313 -2.3463 -0.5605
 1102SOL    HW2 5939   3.475   0.258  10.187  0.0237  0.9031  1.6472
 1103SOL     OW 5940   3.391   6.928   4.504 -0.4026  0.1424 -0.1941
 1103SOL    HW1 5941   3.303   6.964   4.495 -0.0267  1.0338 -0.4907
 1103SOL    HW2 5942   3.398   6.862   4.436 -1.1541 -0.6008  0.4335
 1104SOL     OW 5943   5.085   2.914   3.381  0.3956 -0.2776 -0.7035
 1104SOL    HW1 5944   5.087   2.966   3.461 -1.2370 -0.1446 -0.7039
 1104SOL    HW2 5945   5.137   2.836   3.402  0.6626  0.1259  0.2004
 1105SOL     OW 5946  10.176   7.744   2.670 -0.2768  0.1127 -0.4662
 1105SOL    HW1 5947  10.147   7.835   2.663  0.1288  0.2233 -0.8130
 1105SOL    HW2 5948  10.237   7.734   2.596 -2.2048 -1.1564 -1.9962
 1106SOL     OW 5949   9.488   0.381   1.553  0.5175  0.3441  0.4259
 1106SOL    HW1 5950   9.549   0.379   1.479 -1.2498 -0.1579 -1.0669
 1106SOL    HW2 5951   9.453   0.292   1.558 -2.9089  1.4349 -1.2540
 1107SOL     OW 5952   7.701   6.171   5.047  0.5666 -0.6385  0.2991
 1107SOL    HW1 5953   7.711   6.247   4.990 -0.2454 -0.6276  0.1611
 1107SOL    HW2 5954   7.753   6.103   5.004  0.1017 -0.5796 -0.3828
 1108SOL     OW 5955   9.917   7.784   5.391 -0.1750  0.0410  0.0041
 1108SOL    HW1 5956   9.922   7.834   5.309 -0.2717  0.2947  0.1489
 1108SOL    HW2 5957   9.832   7.740   5.387 -1.9219  2.8975  1.5335
 1109SOL     OW 5958   5.538   2.187   2.925  0.3070 -0.1067  0.1539
 1109SOL    HW1 5959   5.479   2.261   2.942  0.9951  0.0716  1.9902
 1109SOL    HW2 5960   5.626   2.223   2.933  0.7271 -0.4432 -2.2448
 1110SOL     OW 5961   3.218   7.386   0.811 -0.3953 -0.3465  0.2068
 1110SOL    HW1 5962   3.230   7.404   0.904  2.3820  1.0890 -0.3296
 1110SOL    HW2 5963   3.252   7.298   0.799 -0.4077 -0.3895  0.4744
 1111SOL     OW 5964   3.756   6.136   1.151  0.4051  0.0255  0.0886
 1111SOL    HW1 5965   3.724   6.220   1.119 -0.0861  0.2054  1.0252
 1111SOL    HW2 5966   3.677   6.083   1.164  0.7820 -1.0927 -1.8258
 1112SOL     OW 5967   3.340   8.546   3.360 -0.0234  0.0416  0.4336
 1112SOL    HW1 5968   3.363   8.478   3.423  1.5956 -0.4086 -0.5939
 1112SOL    HW2 5969   3.315   8.499   3.281 -0.7254  0.6359  0.2827
 1113SOL     OW 5970   6.596   8.869   5.724 -0.2632 -0.7068  0.3493
 1113SOL    HW1 5971   6.662   8.824   5.777 -0.2090 -1.0012  0.0310
 1113SOL    HW2 5972   6.599   8.960   5.755  0.6433 -0.6046 -0.0108
 1114SOL     OW 5973   3.662  10.024   9.846 -0.4228  0.0356 -0.3299
 1114SOL    HW1 5974   3.598  10.094   9.841 -1.5773 -1.0383 -1.1857
 1114SOL    HW2 5975   3.622   9.951   9.798  0.7173 -1.2245  0.5595
 1115SOL     OW 5976   6.229   0.192   0.403  0.1904  0.1359  0.2310
 1115SOL    HW1 5977   6.276   0.234   0.331  0.4088  0.7049  0.6937
 1115SOL    HW2 5978   6.140   0.226   0.397 -0.1022 -0.7276 -0.4771
 1116SOL     OW 5979   8.327   8.515   3.244 -0.1856  0.0726 -0.0986
 1116SOL    HW1 5980   8.328   8.429   3.286  0.6305  0.3862  0.5527
 1116SOL    HW2 5981   8.255   8.562   3.285 -0.3164 -0.1267 -0.1015
 1117SOL     OW 5982   8.535   2.536   1.970  0.3140 -0.4448 -0.2146
 1117SOL    HW1 5983   8.605   2.554   2.032 -0.4924 -0.0942  0.6085
 1117SOL    HW2 5984   8.456   2.571   2.011 -0.2846 -0.4582 -1.3096
 1118SOL     OW 5985   5.738   9.323   3.928 -0.3681 -0.2572  0.2399
 1118SOL    HW1 5986   5.819   9.273   3.922  0.8592  1.5405  0.8687
 1118SOL    HW2 5987   5.739   9.359   4.017 -0.3478  2.1647 -0.6746
 1119SOL     OW 5988   8.052   9.517   0.765 -0.4462 -0.1333  0.5105
 1119SOL    HW1 5989   7.974   9.554   0.807 -1.0228 -1.7409  0.9219
 1119SOL    HW2 5990   8.063   9.431   0.805  1.9423  0.2792  0.9356
 1120SOL     OW 5991   6.110   6.915   0.689 -0.0207 -0.1992 -0.5745
 1120SOL    HW1 5992   6.026   6.896   0.730  0.7490 -1.1299  0.6707
 1120SOL    HW2 5993   6.104   6.875   0.602 -0.0774 -2.3071  0.3427
 1121SOL     OW 5994  10.045   2.942   8.470 -0.1270  0.0600  0.0701
 1121SOL    HW1 5995   9.972   2.925   8.410  0.4719  0.1159 -0.6929
 1121SOL    HW2 5996  10.031   3.032   8.499 -1.0344 -0.3321  0.8980
 1122SOL     OW 5997   3.344   4.620   6.845 -0.6298  0.1103 -0.0620
 1122SOL    HW1 5998   3.332   4.712   6.824 -0.2202 -0.1214 -1.4821
 1122SOL    HW2 5999   3.390   4.584   6.768 -1.8230 -1.5171 -0.0765
 1123SOL     OW 6000   7.049   3.329   3.291  0.0295 -0.4308 -0.6721
 1123SOL    HW1 6001   6.999   3.378   3.225  0.4693 -0.0183 -0.7025
 1123SOL    HW2 6002   7.110   3.393   3.328  0.5748 -0.9360 -0.6711
 1124SOL     OW 6003   9.119   7.986  10.038  0.5211 -0.1825  0.1203
 1124SOL    HW1 6004   9.055   8.045   9.998  0.7954  0.0702  0.0553
 1124SOL    HW2 6005   9.179   7.964   9.967 -0.4889 -1.8173 -0.2791
 1125SOL     OW 6006   9.008   3.756   5.529 -0.1514  0.4262 -0.0815
 1125SOL    HW1 6007   9.084   3.705   5.558 -2.0631 -2.0327  0.9825
 1125SOL    HW2 6008   9.002   3.828   5.592  2.0182  1.4989 -1.0029
 1126SOL     OW 6009   5.460   7.367   0.847  0.0254  0.4438 -0.5760
 1126SOL    HW1 6010   5.404   7.422   0.792  0.2247  0.8322 -0.3975
 1126SOL    HW2 6011   5.450   7.279   0.811 -0.5535  0.5383 -0.6622
 1127SOL     OW 6012   9.375   0.660   7.043 -0.5807  0.6320  0.8303
 1127SOL    HW1 6013   9.364   0.709   6.961 -1.7364 -1.6336 -0.4427
 1127SOL    HW2 6014   9.432   0.717   7.097  1.7622  1.4145 -2.1765
 1128SOL     OW 6015   8.208   8.977   1.490 -0.1258  0.2222 -0.0004
 1128SOL    HW1 6016   8.301   8.955   1.497 -0.2055  0.1530  0.9502
 1128SOL    HW2 6017   8.177   8.981   1.581 -0.8959  0.9168 -0.2803
 1129SOL     OW 6018   0.803   5.422   6.889  0.2979  0.3343  0.6517
 1129SOL    HW1 6019   0.717   5.456   6.864 -0.0880 -1.5149 -0.7736
 1129SOL    HW2 6020   0.792   5.392   6.979 -0.6014 -0.0242  0.4360
 1130SOL     OW 6021   3.800   1.076   7.961 -0.3452  0.6320 -0.7780
 1130SOL    HW1 6022   3.833   1.052   8.048 -0.6596 -0.3335 -0.9127
 1130SOL    HW2 6023   3.786   0.992   7.917 -2.0566  1.0435 -1.0730
 1131SOL     OW 6024   4.376  10.195   3.943 -0.2046  0.7755 -0.1490
 1131SOL    HW1 6025   4.438  10.261   3.974 -0.9589  1.4899 -0.1384
 1131SOL    HW2 6026   4.387  10.122   4.003  0.4409  0.9968  0.0109
 1132SOL     OW 6027   2.236   9.838   1.424  0.6186  0.1864 -0.3476
 1132SOL    HW1 6028   2.151   9.817   1.463 -1.2578  4.2019 -1.7722
 1132SOL    HW2 6029   2.286   9.878   1.495  0.7788 -0.8066  0.1149
 1133SOL     OW 6030   3.024   6.562   0.396 -0.0109 -0.2951 -0.2553
 1133SOL    HW1 6031   3.115   6.584   0.412  0.3933 -2.0012 -0.0467
 1133SOL    HW2 6032   3.021   6.538   0.304  0.2906 -2.5567  0.2768
 1134SOL     OW 6033  10.007   2.535   1.415  0.3722  0.3756 -0.4250
 1134SOL    HW1 6034  10.094   2.570   1.432  0.4122  1.1178 -1.9842
 1134SOL    HW2 6035   9.970   2.594   1.349 -2.1970  1.4058  1.7702
 1135SOL     OW 6036   4.958   3.678   2.175  0.5016 -0.5856 -0.7420
 1135SOL    HW1 6037   5.019   3.694   2.103  0.7143 -1.8478 -0.8606
 1135SOL    HW2 6038   4.969   3.586   2.196 -1.2025 -0.7977 -0.6164
 1136SOL     OW 6039   6.215   1.462   4.239  0.1351 -0.0519 -0.2918
 1136SOL    HW1 6040   6.255   1.522   4.176  1.6740 -2.1207 -1.4214
 1136SOL    HW2 6041   6.286   1.404   4.266 -1.0179 -0.6635  1.6354
 1137SOL     OW 6042   3.190   1.761   7.866  0.9570  0.2366 -0.2995
 1137SOL    HW1 6043   3.226   1.673   7.880  1.8414  0.7727  1.0720
 1137SOL    HW2 6044   3.115   1.766   7.926  0.0102 -0.0516 -1.4216
 1138SOL     OW 6045   7.096   5.377   2.395 -0.8356 -0.0050  0.0888
 1138SOL    HW1 6046   7.080   5.318   2.469 -0.3413 -0.5737 -0.2479
 1138SOL    HW2 6047   7.012   5.422   2.383 -0.1375  2.3577  2.8836
 1139SOL     OW 6048   7.347   9.907   9.334 -0.0941 -0.0873 -0.3284
 1139SOL    HW1 6049   7.296   9.860   9.269  0.0542  0.3715 -0.7790
 1139SOL    HW2 6050   7.283   9.934   9.400 -0.6865  1.5866 -1.5191
 1140SOL     OW 6051   5.320   9.630   6.023  0.2802  0.3153  0.0213
 1140SOL    HW1 6052   5.394   9.642   5.963 -0.2041 -0.4916 -0.7635
 1140SOL    HW2 6053   5.292   9.539   6.009  0.1821  0.0927  1.5131
 1141SOL     OW 6054   3.991   0.839   8.152  0.1947  0.0030  0.7924
 1141SOL    HW1 6055   4.049   0.862   8.079 -0.3880  0.2598  0.4027
 1141SOL    HW2 6056   3.975   0.922   8.197 -2.8060  0.6953 -1.2637
 1142SOL     OW 6057   0.999   0.827   7.851  0.0138  0.0237  0.1166
 1142SOL    HW1 6058   0.997   0.789   7.763 -1.4069  1.7620 -0.6578
 1142SOL    HW2 6059   1.090   0.853   7.864 -0.0173  1.0183 -1.4330
 1143SOL     OW 6060   4.275   1.807   7.706  0.3405 -0.2083 -0.1304
 1143SOL    HW1 6061   4.344   1.769   7.760  0.2126 -0.8566 -0.4045
 1143SOL    HW2 6062   4.314   1.814   7.619  0.2278 -0.0930 -0.1728
 1144SOL     OW 6063   0.918   9.878   8.827  0.0997 -0.0723  0.4561
 1144SOL    HW1 6064   0.942   9.857   8.917  2.1818 -0.7560 -0.2117
 1144SOL    HW2 6065   0.972   9.954   8.804 -1.0969  0.6925  0.0619
 1145SOL     OW 6066   5.763   6.508   8.993  0.2382  0.3737 -0.2995
 1145SOL    HW1 6067   5.729   6.554   9.070 -0.8108 -0.2754 -0.3587
 1145SOL    HW2 6068   5.837   6.458   9.027 -0.7676 -0.6157  0.5022
 1146SOL     OW 6069   2.078   3.757   0.649  0.5863 -0.1455  0.4591
 1146SOL    HW1 6070   2.002   3.739   0.593  1.2738 -1.2592 -0.1544
 1146SOL    HW2 6071   2.077   3.852   0.661 -0.5889 -0.0788  0.0185
 1147SOL     OW 6072  10.275   1.008   8.956  0.1086  0.1396 -0.6531
 1147SOL    HW1 6073  10.358   1.028   8.998 -0.1054  0.6668 -0.4668
 1147SOL    HW2 6074  10.251   1.088   8.910 -1.0896  0.5758  0.6510
 1148SOL     OW 6075   1.663   9.037   8.934  0.3617 -0.2753 -0.0375
 1148SOL    HW1 6076   1.677   9.074   9.021  0.4419 -0.0698 -0.1396
 1148SOL    HW2 6077   1.731   9.076   8.879  0.6995 -0.8733 -0.0523
 1149SOL     OW 6078   8.640   0.830   5.986  0.1104 -0.2301  0.0851
 1149SOL    HW1 6079   8.567   0.794   6.036  0.1164  0.1060  0.3382
 1149SOL    HW2 6080   8.668   0.906   6.036 -1.3736  1.5192 -1.5877
 1150SOL     OW 6081   0.889   2.744   6.658  0.0902  0.6296 -0.1433
 1150SOL    HW1 6082   0.911   2.708   6.744  0.2720 -1.9612 -1.1943
 1150SOL    HW2 6083   0.832   2.679   6.618  0.0457  1.7365 -2.0162
 1151SOL     OW 6084   2.520   0.007   2.690  0.5858  0.1833  0.0151
 1151SOL    HW1 6085   2.482   0.094   2.677 -0.0811  0.1759  1.5998
 1151SOL    HW2 6086   2.445  -0.051   2.700  1.0291 -0.5191 -0.6353
 1152SOL     OW 6087   5.892   5.557   0.257 -0.2342 -0.5980  0.0661
 1152SOL    HW1 6088   5.814   5.607   0.280  0.0485 -0.6883  1.3430
 1152SOL    HW2 6089   5.872   5.468   0.284  0.0274 -0.7735 -0.3125
 1153SOL     OW 6090   4.055   4.773   3.666  0.4260 -0.2844 -0.1735
 1153SOL    HW1 6091   4.021   4.685   3.686 -1.3230  0.3801  0.0127
 1153SOL    HW2 6092   4.002   4.831   3.721  0.2246  1.0393 -1.6865
 1154SOL     OW 6093   4.362   3.435   7.155  0.2836 -0.9005  0.2867
 1154SOL    HW1 6094   4.366   3.456   7.248  0.5480  1.0805 -0.1227
 1154SOL    HW2 6095   4.273   3.404   7.141  0.5645 -2.2937  1.3717
 1155SOL     OW 6096   0.640   1.518   0.829 -0.0095  0.0279  0.4156
 1155SOL    HW1 6097   0.723   1.536   0.872 -0.2320 -1.0867  1.3427
 1155SOL    HW2 6098   0.665   1.479   0.745  0.4030  0.4384  0.3428
 1156SOL     OW 6099   7.495   7.911   6.823 -0.1746 -0.2456 -0.6862
 1156SOL    HW1 6100   7.451   7.831   6.853  1.2512 -0.6362  0.4913
 1156SOL    HW2 6101   7.549   7.938   6.898 -0.6261  1.8394 -1.0611
 1157SOL     OW 6102   9.814   2.661   1.643 -0.3831 -0.4905 -0.5236
 1157SOL    HW1 6103   9.901   2.647   1.606 -0.1556 -1.3474  0.2904
 1157SOL    HW2 6104   9.756   2.606   1.591 -0.2401 -0.8595 -0.2939
 1158SOL     OW 6105   5.822   1.492   9.953  0.2885  0.3188 -0.0095
 1158SOL    HW1 6106   5.777   1.422   9.906 -0.9101  0.7303  0.4996
 1158SOL    HW2 6107   5.820   1.567   9.894 -0.1590  0.4830  0.2061
 1159SOL     OW 6108   3.902   5.776   1.014 -0.1150 -0.0612  0.3551
 1159SOL    HW1 6109   3.986   5.731   1.003 -0.8428 -0.9616 -2.4669
 1159SOL    HW2 6110   3.846   5.739   0.945 -2.0505  2.2754  0.5318
 1160SOL     OW 6111   2.947   0.560   8.080 -0.0637  0.2700 -0.3398
 1160SOL    HW1 6112   2.975   0.522   7.996 -1.6464 -0.5046 -0.5541
 1160SOL    HW2 6113   2.883   0.498   8.114 -0.6963  1.4082  0.6319
 1161SOL     OW 6114   5.952   9.664   8.653  0.0988 -0.1043 -0.1613
 1161SOL    HW1 6115   6.027   9.717   8.628 -0.4022 -0.4869 -2.7776
 1161SOL    HW2 6116   5.981   9.614   8.730  1.7838  1.2197  0.1073
 1162SOL     OW 6117   7.715   8.863   3.678  0.3234 -0.2778  0.0845
 1162SOL    HW1 6118   7.669   8.943   3.704  0.1205 -0.2505 -0.3633
 1162SOL    HW2 6119   7.766   8.889   3.602  1.6632 -0.1163  1.0054
 1163SOL     OW 6120   7.701   4.976   5.096  0.1611 -0.5592 -0.5035
 1163SOL    HW1 6121   7.659   4.935   5.171 -1.6840  0.7715 -0.7188
 1163SOL    HW2 6122   7.650   4.945   5.021  0.3688  0.1078 -0.9276
 1164SOL     OW 6123   2.049   0.542   6.952 -0.7241 -0.1138 -0.0897
 1164SOL    HW1 6124   1.961   0.561   6.921 -0.8984 -0.2445  0.3113
 1164SOL    HW2 6125   2.104   0.547   6.874 -0.8285  1.5765 -0.0849
 1165SOL     OW 6126   5.338   2.340   8.369  0.0927  0.4460 -0.8428
 1165SOL    HW1 6127   5.389   2.287   8.430 -0.6563  1.9030  1.1671
 1165SOL    HW2 6128   5.394   2.348   8.291  1.8841  0.0172  0.3451
 1166SOL     OW 6129   2.125   8.577  10.248 -0.0548  0.3759 -0.0832
 1166SOL    HW1 6130   2.109   8.518  10.174  0.5568 -1.2952  1.0640
 1166SOL    HW2 6131   2.124   8.665  10.209 -1.9732 -0.2821 -1.6869
 1167SOL     OW 6132   1.017   8.093   2.288  0.6080  0.0053  0.2148
 1167SOL    HW1 6133   1.041   8.138   2.207  2.3897 -1.1977  0.0203
 1167SOL    HW2 6134   1.082   8.023   2.297 -0.3110 -0.6820  2.0302
 1168SOL     OW 6135   2.063   8.904   1.995 -0.3676  0.7821 -0.1120
 1168SOL    HW1 6136   2.141   8.884   2.046  0.2329 -2.6514 -2.0675
 1168SOL    HW2 6137   2.097   8.942   1.913 -0.7427 -0.3335 -0.8000
 1169SOL     OW 6138   3.369   7.234   9.275  0.0514  0.1758 -0.2440
 1169SOL    HW1 6139   3.341   7.325   9.265  0.3993  0.3163  0.0465
 1169SOL    HW2 6140   3.395   7.208   9.186  0.2638  0.4661 -0.2728
 1170SOL     OW 6141   7.433   8.136   3.368 -0.8923 -0.2491 -0.5010
 1170SOL    HW1 6142   7.436   8.085   3.288 -0.7811 -2.1350  0.6479
 1170SOL    HW2 6143   7.509   8.108   3.418 -1.4748  0.1760  0.6695
 1171SOL     OW 6144   1.565   7.173   0.068  0.0533  0.0985 -0.1027
 1171SOL    HW1 6145   1.600   7.251   0.023  0.4662 -0.7896 -1.3690
 1171SOL    HW2 6146   1.618   7.101   0.034  0.7164 -0.5735  2.2178
 1172SOL     OW 6147   9.858   3.509   4.303  0.2283  0.1168  0.2056
 1172SOL    HW1 6148   9.825   3.599   4.301  0.9783  0.4106  0.9712
 1172SOL    HW2 6149   9.779   3.455   4.307 -0.2408  0.7169 -0.6822
 1173SOL     OW 6150   2.110   9.241   9.932  0.1625 -0.0879 -0.4815
 1173SOL    HW1 6151   2.080   9.316   9.983  3.4559  1.3218 -0.3594
 1173SOL    HW2 6152   2.065   9.249   9.847 -0.1566  1.5544 -0.1778
 1174SOL     OW 6153   3.310   3.059   5.592  0.2750 -0.2393  0.1047
 1174SOL    HW1 6154   3.222   3.035   5.619  0.2088 -1.3960 -1.0331
 1174SOL    HW2 6155   3.297   3.132   5.531 -0.0291 -1.2231 -1.0482
 1175SOL     OW 6156   9.153   5.882   1.904 -0.3309  0.7297  0.0828
 1175SOL    HW1 6157   9.079   5.822   1.897 -0.0623  0.3077  0.7416
 1175SOL    HW2 6158   9.157   5.926   1.819 -0.8957  0.2426 -0.1994
 1176SOL     OW 6159   5.030   2.393   3.477  0.1635  0.9094 -0.1569
 1176SOL    HW1 6160   5.114   2.388   3.432  0.2577 -1.7974  0.1781
 1176SOL    HW2 6161   5.053   2.392   3.570 -0.2120 -1.2163 -0.0438
 1177SOL     OW 6162   8.113   3.634   9.538 -0.7795 -0.4344 -0.5588
 1177SOL    HW1 6163   8.094   3.542   9.558  2.0656 -1.2399 -1.0706
 1177SOL    HW2 6164   8.128   3.635   9.443  1.0889  0.1233 -0.2925
 1178SOL     OW 6165   4.452   3.237   3.903 -0.0954 -0.1929  0.2282
 1178SOL    HW1 6166   4.457   3.215   3.996  0.9111  0.5398  0.3660
 1178SOL    HW2 6167   4.543   3.247   3.875 -0.4271  1.5997 -0.3365
 1179SOL     OW 6168  10.083   3.409   7.168  0.4180 -0.0258 -0.2020
 1179SOL    HW1 6169  10.047   3.483   7.119 -1.2343 -0.3668  0.4306
 1179SOL    HW2 6170  10.052   3.332   7.122  0.0047 -0.3348  0.5704
 1180SOL     OW 6171   5.423   3.367   5.994 -0.1774 -0.5801  0.3698
 1180SOL    HW1 6172   5.355   3.433   5.982  1.1495  0.8191  0.1943
 1180SOL    HW2 6173   5.416   3.341   6.086 -1.2198 -0.8132  0.2398
 1181SOL     OW 6174   8.600   7.754   5.291 -0.3330  0.2131  0.3821
 1181SOL    HW1 6175   8.621   7.829   5.348  0.2038 -0.2160  0.7492
 1181SOL    HW2 6176   8.678   7.741   5.238 -1.1362  1.1857 -1.1400
 1182SOL     OW 6177   7.261   4.932   1.184  0.6229 -0.2808 -0.5356
 1182SOL    HW1 6178   7.347   4.962   1.154  0.1849 -1.5806 -3.4466
 1182SOL    HW2 6179   7.241   4.857   1.128 -1.0365 -2.1075  2.2152
 1183SOL     OW 6180   6.277   1.348   8.526 -0.5468 -0.4644 -0.7578
 1183SOL    HW1 6181   6.191   1.311   8.509 -0.8092 -0.2825  0.1008
 1183SOL    HW2 6182   6.261   1.442   8.537 -0.5700 -0.6712  1.3332
 1184SOL     OW 6183   2.891   1.611   8.465  0.8274  0.2252  0.2892
 1184SOL    HW1 6184   2.928   1.526   8.441 -1.0628 -0.1567 -1.6280
 1184SOL    HW2 6185   2.939   1.674   8.412  1.1368  0.1705  0.5028
 1185SOL     OW 6186   8.777  10.345   4.969 -0.0637 -0.0086 -0.0971
 1185SOL    HW1 6187   8.824  10.424   4.943  1.9975 -0.8143  0.9141
 1185SOL    HW2 6188   8.778  10.289   4.892 -2.2001  1.1722 -1.0614
 1186SOL     OW 6189   1.187   9.552   0.870  0.1345 -0.2731  0.0450
 1186SOL    HW1 6190   1.164   9.469   0.910  1.5067 -0.3441  0.7381
 1186SOL    HW2 6191   1.151   9.547   0.781  0.1376 -1.5690  0.0995
 1187SOL     OW 6192   1.128   4.502   3.871 -0.3163 -0.4236  0.3165
 1187SOL    HW1 6193   1.102   4.592   3.852 -1.2636 -0.1518  2.5844
 1187SOL    HW2 6194   1.048   4.451   3.860 -0.0393 -0.8100  0.0891
 1188SOL     OW 6195   3.426   1.617   2.435  0.2382 -0.6943  1.0952
 1188SOL    HW1 6196   3.513   1.605   2.471  0.5710  0.5261  0.7362
 1188SOL    HW2 6197   3.427   1.569   2.352  0.3852 -1.1329  1.3476
 1189SOL     OW 6198   4.888   0.616   5.180 -0.1299  0.3561 -0.2257
 1189SOL    HW1 6199   4.839   0.547   5.226 -0.6164  0.8675  0.0453
 1189SOL    HW2 6200   4.897   0.583   5.091 -0.3824 -0.0511 -0.1078
 1190SOL     OW 6201   2.822   1.276   5.206 -0.3068  0.6308 -0.1950
 1190SOL    HW1 6202   2.875   1.268   5.127  0.7933  2.0158  0.3822
 1190SOL    HW2 6203   2.785   1.364   5.202 -0.4811  0.6080  0.6887
 1191SOL     OW 6204   1.861   0.683   2.901  0.1943 -0.0442  0.1568
 1191SOL    HW1 6205   1.881   0.696   2.808  1.0157  1.2654  0.4906
 1191SOL    HW2 6206   1.773   0.720   2.911 -0.8893 -2.2408 -0.5121
 1192SOL     OW 6207   4.904   6.134   6.516  0.2486  0.1333  0.0771
 1192SOL    HW1 6208   4.871   6.044   6.513 -2.1974  0.9833 -0.7347
 1192SOL    HW2 6209   4.882   6.171   6.431  1.3182  1.4965  0.3579
 1193SOL     OW 6210   5.426   2.354   0.240 -0.1511  0.9671  0.4578
 1193SOL    HW1 6211   5.512   2.347   0.198  0.0689  2.6436  0.5556
 1193SOL    HW2 6212   5.363   2.341   0.169  0.1913  0.7062  0.1987
 1194SOL     OW 6213   2.570   5.637   1.468  0.3013  0.0815 -0.0615
 1194SOL    HW1 6214   2.540   5.714   1.418 -1.8052 -1.7458 -1.8260
 1194SOL    HW2 6215   2.662   5.628   1.444  0.5273  1.8543 -0.0399
 1195SOL     OW 6216   1.528   1.758   9.756  0.6802  0.0909 -0.3195
 1195SOL    HW1 6217   1.439   1.781   9.730  1.2847  0.5486 -2.2333
 1195SOL    HW2 6218   1.545   1.673   9.715  0.3030 -1.2934  2.2047
 1196SOL     OW 6219   9.549   1.341   2.208 -0.9664 -0.9078  0.3414
 1196SOL    HW1 6220   9.501   1.423   2.216  0.9552  0.2339  0.6524
 1196SOL    HW2 6221   9.623   1.361   2.151 -0.6636 -2.5431  0.0946
 1197SOL     OW 6222   4.679   4.687   2.272  0.2604 -0.4871  0.3141
 1197SOL    HW1 6223   4.642   4.720   2.354 -2.5166 -0.6559 -0.7605
 1197SOL    HW2 6224   4.685   4.592   2.285 -0.6789 -0.5772  0.1791
 1198SOL     OW 6225   3.454   6.162   7.806  0.0691 -0.1141 -0.0211
 1198SOL    HW1 6226   3.455   6.071   7.778  0.6850  0.3165 -1.4556
 1198SOL    HW2 6227   3.365   6.192   7.788  0.2919 -0.0113 -0.9686
 1199SOL     OW 6228   4.533   5.189   7.474 -0.0645 -0.5539  0.2025
 1199SOL    HW1 6229   4.614   5.222   7.435 -0.7675  0.4707 -0.4354
 1199SOL    HW2 6230   4.562   5.139   7.550  1.1142  0.9560  0.8018
 1200SOL     OW 6231   9.381   2.229   0.716 -0.2502 -0.3688  0.3659
 1200SOL    HW1 6232   9.397   2.135   0.712 -1.7214 -0.6940  1.2909
 1200SOL    HW2 6233   9.324   2.248   0.642  0.6020 -0.0599 -0.2263
 1201SOL     OW 6234   9.166  10.077   4.784 -0.4962  0.3122 -0.1517
 1201SOL    HW1 6235   9.143  10.022   4.858 -0.2730  1.1555  0.5661
 1201SOL    HW2 6236   9.085  10.122   4.761 -0.4968  0.2756 -0.2233
 1202SOL     OW 6237   8.480  10.022   7.222  0.1969  0.7235 -0.4825
 1202SOL    HW1 6238   8.528  10.054   7.300  0.2264  0.1311 -0.2560
 1202SOL    HW2 6239   8.525   9.941   7.198 -1.8044 -0.8737  0.8461
 1203SOL     OW 6240   3.662   4.021   9.496 -0.1573 -0.0968  0.5317
 1203SOL    HW1 6241   3.611   3.948   9.531 -0.5332 -0.5985 -1.0169
 1203SOL    HW2 6242   3.597   4.078   9.455 -0.0593  1.8476  2.8407
 1204SOL     OW 6243   7.293   6.031   9.402 -0.6084 -0.1128 -0.5916
 1204SOL    HW1 6244   7.357   6.061   9.467 -1.7068 -2.0649  1.5251
 1204SOL    HW2 6245   7.324   6.069   9.319  2.0447  0.7865  0.6837
 1205SOL     OW 6246   5.199   4.878   3.815 -0.3857 -0.6815  0.0340
 1205SOL    HW1 6247   5.116   4.840   3.787  0.5864 -1.6859 -1.6990
 1205SOL    HW2 6248   5.250   4.803   3.847  0.7748 -0.5684 -1.4044
 1206SOL     OW 6249   7.599   2.087   4.928 -0.0647 -0.2469 -0.5487
 1206SOL    HW1 6250   7.527   2.046   4.976  1.1979 -2.4506 -0.4105
 1206SOL    HW2 6251   7.652   2.130   4.996  0.2525 -1.0369 -0.2903
 1207SOL     OW 6252   7.359   0.761   6.318  0.1411  0.2501  0.5320
 1207SOL    HW1 6253   7.352   0.836   6.259 -0.3441 -0.4648 -0.3422
 1207SOL    HW2 6254   7.443   0.773   6.362  0.8445  0.4619 -0.8111
 1208SOL     OW 6255   2.257   4.582   4.513 -0.4883  0.1225  0.2839
 1208SOL    HW1 6256   2.246   4.541   4.599 -0.8518  1.7026  1.0245
 1208SOL    HW2 6257   2.287   4.511   4.456  2.4076 -0.4252  2.2937
 1209SOL     OW 6258   0.801   3.713   0.547  0.2571 -0.0998  0.0914
 1209SOL    HW1 6259   0.828   3.802   0.572  1.0854  0.1897 -1.6999
 1209SOL    HW2 6260   0.867   3.656   0.586 -0.1820  0.0604  1.1039
 1210SOL     OW 6261   7.018   3.977   6.291  0.1973 -0.3351 -0.0369
 1210SOL    HW1 6262   7.024   3.891   6.333 -1.2871 -0.6908 -0.4772
 1210SOL    HW2 6263   6.934   4.012   6.320  0.6721  0.8723 -0.0598
 1211SOL     OW 6264   7.725   6.358   4.835 -0.1875  0.3445 -0.3011
 1211SOL    HW1 6265   7.815   6.325   4.843  0.5827  2.6520  1.9571
 1211SOL    HW2 6266   7.713   6.373   4.741  0.5228 -3.0578 -1.0597
 1212SOL     OW 6267   6.341   9.411   1.557 -0.2865 -0.4749  0.1231
 1212SOL    HW1 6268   6.432   9.397   1.532 -0.1092  0.3117  0.2966
 1212SOL    HW2 6269   6.342   9.414   1.652 -0.6273 -1.2985  0.1562
 1213SOL     OW 6270   3.060   2.534   9.980  0.8065  0.3367 -0.1270
 1213SOL    HW1 6271   3.080   2.627   9.984  0.1957  0.5230 -1.0324
 1213SOL    HW2 6272   3.056   2.514   9.887 -0.1071 -0.3555  0.0446
 1214SOL     OW 6273   2.883   9.017   2.788  0.1107  0.2703 -0.0532
 1214SOL    HW1 6274   2.862   8.927   2.764  0.3539 -0.0171  0.8105
 1214SOL    HW2 6275   2.915   9.056   2.706  1.6667 -0.9190 -0.0487
 1215SOL     OW 6276   4.989   7.174   8.236 -0.4044 -0.1115  0.0464
 1215SOL    HW1 6277   5.003   7.258   8.281  1.2205  0.4352 -1.3756
 1215SOL    HW2 6278   5.061   7.119   8.265 -0.0074 -0.1407 -0.9544
 1216SOL     OW 6279   0.981   6.144   4.916 -0.3577  0.1412  0.2964
 1216SOL    HW1 6280   1.074   6.155   4.898 -0.3272 -1.3841 -0.6205
 1216SOL    HW2 6281   0.965   6.199   4.993  0.8753  1.8798 -0.6210
 1217SOL     OW 6282   4.370   1.890   6.813 -0.0307  0.5876  0.4336
 1217SOL    HW1 6283   4.424   1.821   6.854 -0.8095 -0.7541 -0.7135
 1217SOL    HW2 6284   4.433   1.958   6.789  0.7270  0.4396  1.8729
 1218SOL     OW 6285   5.568   3.850   5.817 -0.2549 -0.1253  0.2225
 1218SOL    HW1 6286   5.542   3.758   5.827  0.4098 -0.4886 -1.0937
 1218SOL    HW2 6287   5.645   3.859   5.873  0.4652 -0.7465 -0.6458
 1219SOL     OW 6288   9.485   3.791   0.461 -0.7498  0.2070 -0.0898
 1219SOL    HW1 6289   9.528   3.710   0.489 -1.5528 -0.6630 -1.2642
 1219SOL    HW2 6290   9.536   3.822   0.387 -1.4498 -0.2092 -0.7636
 1220SOL     OW 6291   8.596   2.262   6.975 -0.1006  0.4710 -0.0148
 1220SOL    HW1 6292   8.561   2.302   7.055  0.5569 -0.6468  0.8502
 1220SOL    HW2 6293   8.650   2.331   6.936  1.1677  0.4009  1.5454
 1221SOL     OW 6294  10.229   5.136   3.761 -0.2400 -0.2627  0.3344
 1221SOL    HW1 6295  10.283   5.060   3.784  0.0578 -0.1124  0.1459
 1221SOL    HW2 6296  10.148   5.099   3.727 -0.6743 -0.4994  1.5515
 1222SOL     OW 6297   6.072   6.085   0.374  0.3456  0.2423  0.1707
 1222SOL    HW1 6298   6.077   6.179   0.363 -2.5752  0.6341  1.2126
 1222SOL    HW2 6299   6.028   6.073   0.459  0.1404 -2.0209 -0.1867
 1223SOL     OW 6300   3.584   0.695   0.249 -0.2333 -0.0258 -0.5636
 1223SOL    HW1 6301   3.537   0.616   0.221  0.0996  0.2270 -1.8794
 1223SOL    HW2 6302   3.593   0.747   0.170  0.3281  0.9447  0.1188
 1224SOL     OW 6303   2.560   4.493   0.091  0.1464  0.4530 -0.1064
 1224SOL    HW1 6304   2.468   4.520   0.090  0.4058  1.3942 -1.2067
 1224SOL    HW2 6305   2.608   4.572   0.118  0.6679  0.1159 -0.0352
 1225SOL     OW 6306   1.724   1.634   0.293 -0.1913 -0.3067 -0.1716
 1225SOL    HW1 6307   1.641   1.605   0.330 -0.1619  0.3264  0.3976
 1225SOL    HW2 6308   1.715   1.618   0.199 -1.8805  1.8500 -0.4626
 1226SOL     OW 6309   3.678   6.032   7.202 -0.3052 -0.1701 -0.5704
 1226SOL    HW1 6310   3.704   6.011   7.112  0.4506  1.4029 -0.7481
 1226SOL    HW2 6311   3.662   6.127   7.201  0.4536  0.0135  1.1134
 1227SOL     OW 6312   2.656   8.041   1.658 -0.5544  0.2057 -0.2161
 1227SOL    HW1 6313   2.567   8.076   1.664 -0.8827 -0.4634 -0.9275
 1227SOL    HW2 6314   2.644   7.946   1.658  0.0406  0.1008 -1.6440
 1228SOL     OW 6315   2.935   7.152  10.357 -0.2090 -0.3350 -0.0246
 1228SOL    HW1 6316   2.968   7.221  10.299 -1.2025 -0.8921 -1.2914
 1228SOL    HW2 6317   2.943   7.189  10.444  2.0970  0.2219 -0.4027
 1229SOL     OW 6318   6.229   8.935   2.587 -0.1050 -0.2406  0.6402
 1229SOL    HW1 6319   6.184   9.003   2.536 -2.7562 -3.1424 -1.2581
 1229SOL    HW2 6320   6.308   8.916   2.536 -1.2189 -1.0035 -0.9022
 1230SOL     OW 6321   4.475   7.295   4.704  0.8028  0.5147  0.2522
 1230SOL    HW1 6322   4.558   7.270   4.663 -1.0247 -1.1510 -2.7774
 1230SOL    HW2 6323   4.459   7.226   4.769  0.8001 -0.4122 -0.6990
 1231SOL     OW 6324   7.501   2.876   1.194 -0.1807  0.4765 -0.1890
 1231SOL    HW1 6325   7.490   2.971   1.187  0.7888  0.7632  1.5857
 1231SOL    HW2 6326   7.571   2.856   1.132 -0.1995  0.9605 -0.3755
 1232SOL     OW 6327   7.588   0.650   4.853 -0.2381  0.5069 -0.0739
 1232SOL    HW1 6328   7.640   0.587   4.803 -0.1923 -0.4298  1.0819
 1232SOL    HW2 6329   7.517   0.675   4.795 -0.3040 -0.7022 -0.5505
 1233SOL     OW 6330   0.436   2.858   7.561 -0.1857 -0.1238  0.0957
 1233SOL    HW1 6331   0.362   2.813   7.603 -1.3160  1.1069 -0.5090
 1233SOL    HW2 6332   0.432   2.947   7.595  0.5577  0.1571 -0.5384
 1234SOL     OW 6333   2.556   6.536  10.311  0.6985 -0.2030 -0.1538
 1234SOL    HW1 6334   2.513   6.455  10.338 -1.6083  0.3865 -1.7398
 1234SOL    HW2 6335   2.589   6.574  10.392 -1.8268 -0.7539  1.2545
 1235SOL     OW 6336   8.396   3.182   1.462 -0.2973 -0.2790  0.1953
 1235SOL    HW1 6337   8.323   3.213   1.408 -1.7201 -2.1599  0.9167
 1235SOL    HW2 6338   8.391   3.235   1.542 -1.5703 -1.0752  0.6748
 1236SOL     OW 6339   1.614   1.231   8.149 -0.6052 -0.0698 -0.4167
 1236SOL    HW1 6340   1.611   1.326   8.157 -1.0372 -0.2284  2.1720
 1236SOL    HW2 6341   1.707   1.210   8.139 -0.4499  0.5792 -0.3721
 1237SOL     OW 6342   3.275   4.793  10.176 -0.3115 -0.2580  0.1129
 1237SOL    HW1 6343   3.350   4.798  10.235  1.7706 -1.4612 -2.2162
 1237SOL    HW2 6344   3.212   4.738  10.221  1.5152 -1.7883  0.9590
 1238SOL     OW 6345   4.085   5.213   4.341  0.2679  0.0347 -0.1025
 1238SOL    HW1 6346   4.048   5.270   4.274 -0.2210  0.7772  0.7849
 1238SOL    HW2 6347   4.113   5.272   4.411  0.6805 -0.7354  0.4047
 1239SOL     OW 6348   0.690   4.129   7.192  0.6755  0.2964  0.0038
 1239SOL    HW1 6349   0.765   4.118   7.251  0.5171 -1.0252 -0.0294
 1239SOL    HW2 6350   0.716   4.086   7.111 -0.5493 -1.2399  0.3853
 1240SOL     OW 6351   0.955   8.378   9.842 -0.3310 -0.4154  0.5170
 1240SOL    HW1 6352   0.889   8.341   9.784  0.2643 -1.6699  0.5946
 1240SOL    HW2 6353   0.940   8.472   9.839  0.4118 -0.2919 -2.6105
 1241SOL     OW 6354   4.414   4.093   2.526 -0.3373  0.1208 -0.1398
 1241SOL    HW1 6355   4.452   4.017   2.571 -1.8926 -0.5717  0.0652
 1241SOL    HW2 6356   4.416   4.069   2.433 -0.3851  0.0349 -0.1190
 1242SOL     OW 6357   7.827   5.275   4.240 -0.1030 -0.0033  0.0115
 1242SOL    HW1 6358   7.886   5.350   4.249 -1.5038  0.9977  1.2464
 1242SOL    HW2 6359   7.740   5.313   4.228 -1.0428 -1.3584  1.8629
 1243SOL     OW 6360   7.121   4.396   5.337  0.2462 -0.1081 -0.6299
 1243SOL    HW1 6361   7.108   4.405   5.432  1.8406 -0.2923 -0.3608
 1243SOL    HW2 6362   7.037   4.420   5.299 -0.3302  0.2918  0.8197
 1244SOL     OW 6363   9.974   4.512   5.453 -0.4559  0.1183  0.1288
 1244SOL    HW1 6364   9.972   4.425   5.493  0.0187  0.9269  1.9920
 1244SOL    HW2 6365  10.063   4.521   5.420 -0.3601  0.0923  0.3801
 1245SOL     OW 6366   6.004   4.449   4.765 -0.1019 -0.7801  0.0167
 1245SOL    HW1 6367   6.068   4.386   4.734 -0.0693 -0.3297 -0.8378
 1245SOL    HW2 6368   6.000   4.434   4.860  3.4597  1.1674  0.6572
 1246SOL     OW 6369   3.581   2.288   2.367 -0.7530  0.0974  0.6333
 1246SOL    HW1 6370   3.670   2.282   2.402  0.1895 -1.5099 -1.7450
 1246SOL    HW2 6371   3.584   2.363   2.307 -0.7273 -0.4642 -0.0814
 1247SOL     OW 6372   7.745   1.780   9.180 -0.3041  0.2193 -0.1088
 1247SOL    HW1 6373   7.704   1.762   9.096 -1.3813 -1.0265  0.6554
 1247SOL    HW2 6374   7.688   1.845   9.221 -0.7781 -0.4905  0.3785
 1248SOL     OW 6375   6.609   1.969   8.347  0.1071 -0.6405  0.1234
 1248SOL    HW1 6376   6.562   1.967   8.264 -0.6996 -2.9549  0.5680
 1248SOL    HW2 6377   6.567   2.039   8.397 -0.7825 -0.6098 -0.6389
 1249SOL     OW 6378   0.717   6.689   1.832 -0.1236 -0.5324 -1.1928
 1249SOL    HW1 6379   0.631   6.725   1.809  0.1060 -0.1409 -1.4493
 1249SOL    HW2 6380   0.747   6.645   1.752 -0.0279 -0.5612 -1.1417
 1250SOL     OW 6381   5.951   2.231   3.796 -0.5464  0.2525 -0.2765
 1250SOL    HW1 6382   5.971   2.140   3.814  0.6972  0.9497  2.2187
 1250SOL    HW2 6383   5.858   2.240   3.818 -0.4822 -0.2546  0.2171
 1251SOL     OW 6384   9.468   4.652   0.964  0.7015 -0.1029  0.3887
 1251SOL    HW1 6385   9.472   4.725   1.025  0.2416 -0.1308  0.4556
 1251SOL    HW2 6386   9.433   4.579   1.016 -1.0350  0.2324 -0.2275
 1252SOL     OW 6387   4.082   0.438   6.717  0.7138 -0.2691  0.1658
 1252SOL    HW1 6388   4.073   0.530   6.691  0.6207 -0.0029  1.0906
 1252SOL    HW2 6389   3.992   0.408   6.730  0.7845 -0.0546  1.2686
 1253SOL     OW 6390   6.043   9.259   1.109  0.3989 -0.1726  0.4448
 1253SOL    HW1 6391   6.086   9.331   1.062 -2.5045  0.8385 -0.8653
 1253SOL    HW2 6392   5.966   9.300   1.149  0.3188 -1.9864  2.2553
 1254SOL     OW 6393   7.038   3.547   7.528 -0.5098 -0.5140 -0.5277
 1254SOL    HW1 6394   7.073   3.583   7.447 -2.3994 -0.0271 -1.1887
 1254SOL    HW2 6395   7.041   3.621   7.589 -0.1066 -0.5703 -0.4745
 1255SOL     OW 6396   4.340   3.020   9.429  0.0778  0.3435 -0.4595
 1255SOL    HW1 6397   4.419   3.033   9.376  0.1380  2.6663  0.0921
 1255SOL    HW2 6398   4.374   2.997   9.516  0.2389  2.0304 -0.0370
 1256SOL     OW 6399   2.315   6.999   9.751  0.4724  0.2724  0.1766
 1256SOL    HW1 6400   2.393   7.043   9.785 -1.9245  4.1432  1.3348
 1256SOL    HW2 6401   2.298   7.042   9.668  0.2813 -1.5150 -0.7486
 1257SOL     OW 6402   8.225   2.210   7.750 -0.0256  0.3721  0.3286
 1257SOL    HW1 6403   8.304   2.185   7.799  1.1017  0.2920 -1.4282
 1257SOL    HW2 6404   8.189   2.284   7.799  0.1806 -0.6327  2.0879
 1258SOL     OW 6405   4.115   7.643   5.103 -0.2379  0.0229  0.0956
 1258SOL    HW1 6406   4.036   7.596   5.130 -0.7323  0.2508 -0.9100
 1258SOL    HW2 6407   4.168   7.577   5.057 -0.5008  0.2069 -0.4821
 1259SOL     OW 6408   7.842   7.899   7.871  0.6726 -0.7660  0.0495
 1259SOL    HW1 6409   7.904   7.900   7.944  2.2097  0.0458 -1.2061
 1259SOL    HW2 6410   7.881   7.840   7.807  1.1006  1.0841 -1.4824
 1260SOL     OW 6411   6.081  10.010   5.059 -0.2007  0.2170 -0.4109
 1260SOL    HW1 6412   6.020  10.083   5.068 -0.7233 -0.2795  0.2051
 1260SOL    HW2 6413   6.033   9.945   5.008  0.3432  0.3773 -1.1473
 1261SOL     OW 6414   7.772   2.274   1.032  0.2388 -0.2190  0.4240
 1261SOL    HW1 6415   7.832   2.217   0.982  0.5691 -2.3103  2.9877
 1261SOL    HW2 6416   7.819   2.356   1.041  0.8710 -0.3571 -1.2302
 1262SOL     OW 6417   3.783   8.938   4.987  0.2101 -0.4133 -0.5625
 1262SOL    HW1 6418   3.761   8.880   5.060  2.8573  0.1918  0.8440
 1262SOL    HW2 6419   3.849   8.889   4.937  0.5984  0.3456 -0.8068
 1263SOL     OW 6420   8.358   5.218   0.138 -0.6121  0.3026  0.0441
 1263SOL    HW1 6421   8.289   5.195   0.075 -0.1436 -0.7901 -0.0889
 1263SOL    HW2 6422   8.397   5.298   0.102  1.0018 -1.3584 -2.2242
 1264SOL     OW 6423   4.700   1.595   0.436 -0.1607 -0.0977  0.4824
 1264SOL    HW1 6424   4.604   1.599   0.443 -0.0877  0.0981  1.4939
 1264SOL    HW2 6425   4.727   1.686   0.440  0.0771 -0.1555  0.2065
 1265SOL     OW 6426   4.945   5.846   9.443  0.3452 -0.3020 -0.4267
 1265SOL    HW1 6427   4.897   5.777   9.398  1.5766 -1.0659 -0.6030
 1265SOL    HW2 6428   4.884   5.878   9.510  0.1011 -2.2437  0.3311
 1266SOL     OW 6429   2.150   4.783   5.301 -0.1059 -0.0648  0.5420
 1266SOL    HW1 6430   2.056   4.796   5.307 -0.1600 -0.6106  0.9163
 1266SOL    HW2 6431   2.181   4.782   5.391  0.1844 -0.3984  0.4450
 1267SOL     OW 6432   5.010   1.978   4.179 -0.0517  0.0908 -0.5053
 1267SOL    HW1 6433   5.042   1.971   4.089  1.9970 -0.3640  0.2263
 1267SOL    HW2 6434   4.975   2.067   4.185  0.6025  0.4284 -1.5023
 1268SOL     OW 6435   0.663   4.789   6.120  0.0226  0.0082  0.7758
 1268SOL    HW1 6436   0.750   4.763   6.147  2.3258  2.6674 -3.0741
 1268SOL    HW2 6437   0.677   4.864   6.062 -4.5996 -0.9820 -2.1613
 1269SOL     OW 6438   2.310   4.056   2.450  0.2906  0.4604 -0.4459
 1269SOL    HW1 6439   2.247   4.104   2.504  1.3305  2.1608 -0.6546
 1269SOL    HW2 6440   2.329   4.114   2.377  3.3361  0.8474  0.4719
 1270SOL     OW 6441   6.813   7.596   6.623  0.4132  0.1321  0.0199
 1270SOL    HW1 6442   6.871   7.594   6.699  2.1600  0.5673 -1.2124
 1270SOL    HW2 6443   6.812   7.688   6.596  2.7929 -0.4149 -2.4996
 1271SOL     OW 6444   6.841   7.529   5.324  0.0603  0.1628  0.1993
 1271SOL    HW1 6445   6.906   7.505   5.391  2.2283 -0.4039 -1.9806
 1271SOL    HW2 6446   6.822   7.621   5.343  0.0810 -0.1482  1.9781
 1272SOL     OW 6447   0.115   0.862   3.570  0.6124 -0.1584 -0.1575
 1272SOL    HW1 6448   0.065   0.931   3.614  0.0269  0.1819 -1.3257
 1272SOL    HW2 6449   0.143   0.902   3.488  1.8704 -0.7196 -0.0187
 1273SOL     OW 6450   7.407   6.916   8.455 -0.2490 -0.2074  0.0689
 1273SOL    HW1 6451   7.383   6.969   8.530 -1.2813 -1.1963  0.4705
 1273SOL    HW2 6452   7.423   6.979   8.384 -0.2812  0.6735  0.8312
 1274SOL     OW 6453   7.803   9.658   6.961 -0.4168  0.3147 -0.2520
 1274SOL    HW1 6454   7.755   9.607   6.895  0.1017  0.5509 -0.8182
 1274SOL    HW2 6455   7.738   9.677   7.028 -0.7260 -0.7321 -0.2393
 1275SOL     OW 6456   3.557   1.576   7.426 -0.6939  0.0416  0.2845
 1275SOL    HW1 6457   3.525   1.517   7.494  0.6100  0.1150  0.9963
 1275SOL    HW2 6458   3.500   1.653   7.432 -0.4804  0.1242  1.4305
 1276SOL     OW 6459   4.990   0.274   3.466 -0.2266 -0.2322  0.2824
 1276SOL    HW1 6460   4.976   0.255   3.373  1.0243 -0.0372  0.0398
 1276SOL    HW2 6461   4.934   0.351   3.482 -2.2506 -1.6218  0.3049
 1277SOL     OW 6462   3.795   3.295   4.161  0.0209  0.7128 -0.0823
 1277SOL    HW1 6463   3.850   3.372   4.146 -0.4093  0.8374 -1.1806
 1277SOL    HW2 6464   3.756   3.309   4.247  1.8847  0.4910  0.8421
 1278SOL     OW 6465   2.997  10.021   6.847 -0.1903  0.2230 -0.0217
 1278SOL    HW1 6466   2.908  10.030   6.813 -1.0913 -0.8376  1.8831
 1278SOL    HW2 6467   3.044   9.973   6.779 -1.5360 -0.6927 -0.3406
 1279SOL     OW 6468   7.867   7.279   0.122  0.1684  0.3468  0.1686
 1279SOL    HW1 6469   7.963   7.278   0.120  0.1865 -0.2008  0.9534
 1279SOL    HW2 6470   7.843   7.351   0.064  1.0475  0.2707 -0.3115
 1280SOL     OW 6471   8.816   2.071   0.169  0.2778  0.0899  0.1025
 1280SOL    HW1 6472   8.851   1.999   0.116 -0.3337 -1.4561  1.6999
 1280SOL    HW2 6473   8.878   2.081   0.241  0.1226  0.8724  0.1388
 1281SOL     OW 6474   5.531   4.474   4.556 -0.4061  0.1379  0.5052
 1281SOL    HW1 6475   5.438   4.470   4.533  0.0663 -0.2592 -1.5723
 1281SOL    HW2 6476   5.541   4.557   4.604 -1.8941 -0.0771  1.2480
 1282SOL     OW 6477   3.182  10.272   8.504 -0.2320  0.2873 -0.0942
 1282SOL    HW1 6478   3.207  10.200   8.447  1.0009  0.6485 -0.0576
 1282SOL    HW2 6479   3.182  10.349   8.446  1.8056  0.7890  0.4779
 1283SOL     OW 6480   5.723   0.234   3.920 -0.2575  0.1126  0.0321
 1283SOL    HW1 6481   5.631   0.215   3.903 -0.6125 -0.5516  2.3884
 1283SOL    HW2 6482   5.735   0.324   3.890 -1.3676 -0.1441 -1.2703
 1284SOL     OW 6483   7.719   3.423   0.882 -0.0846 -0.7334  0.0652
 1284SOL    HW1 6484   7.654   3.474   0.931 -0.8735 -0.6528 -1.0413
 1284SOL    HW2 6485   7.676   3.400   0.800  0.6440 -2.2803  0.0816
 1285SOL     OW 6486   0.699   6.783   2.552  0.7282  0.0877  0.2956
 1285SOL    HW1 6487   0.685   6.862   2.499  1.9027  1.3638  1.8265
 1285SOL    HW2 6488   0.723   6.716   2.488  2.6671  1.7263 -0.7935
 1286SOL     OW 6489   2.259   6.521   9.566 -0.0361 -0.0780  0.2828
 1286SOL    HW1 6490   2.218   6.448   9.613 -0.9854  1.4258  1.9255
 1286SOL    HW2 6491   2.309   6.568   9.633 -0.1979  1.3056 -0.5254
 1287SOL     OW 6492   6.306   1.282   9.064 -0.2942 -0.1954 -0.1039
 1287SOL    HW1 6493   6.280   1.369   9.034 -0.2244  0.6746  2.1341
 1287SOL    HW2 6494   6.369   1.299   9.134 -0.5422 -2.0326  0.6266
 1288SOL     OW 6495   3.668   7.304   9.626  0.2143 -0.2148  0.8541
 1288SOL    HW1 6496   3.590   7.277   9.674  0.0006  0.0230  0.6441
 1288SOL    HW2 6497   3.663   7.399   9.624  0.0275 -0.2342  0.0482
 1289SOL     OW 6498   4.173   8.819   5.006 -0.1573  0.4958 -0.0467
 1289SOL    HW1 6499   4.267   8.801   5.005  0.0568  1.5810 -0.0494
 1289SOL    HW2 6500   4.143   8.796   4.918  0.1136  0.2020 -0.0637
 1290SOL     OW 6501   9.810   1.592   0.117  0.1372  0.0994  0.5419
 1290SOL    HW1 6502   9.878   1.659   0.122 -0.7258  1.0470  0.0353
 1290SOL    HW2 6503   9.848   1.516   0.161  2.0654  0.1206 -0.9530
 1291SOL     OW 6504   2.204   1.671   2.637  0.2437  0.6919 -0.0162
 1291SOL    HW1 6505   2.272   1.656   2.572 -1.9404 -3.4341 -1.7137
 1291SOL    HW2 6506   2.252   1.690   2.718  3.2170  0.8698 -1.6955
 1292SOL     OW 6507   6.371   1.227   5.271 -0.8421 -0.6207 -0.2497
 1292SOL    HW1 6508   6.317   1.148   5.275  0.0043 -1.2239 -0.5496
 1292SOL    HW2 6509   6.365   1.264   5.359 -0.2752 -1.6822  0.2560
 1293SOL     OW 6510   7.926   5.479   3.422  0.8856  0.2818  0.4020
 1293SOL    HW1 6511   7.958   5.438   3.341 -0.3100  1.2071 -0.5835
 1293SOL    HW2 6512   7.992   5.546   3.442  0.1642  1.5101 -1.0642
 1294SOL     OW 6513   8.862   3.351   9.214  0.4904 -0.2882 -0.1181
 1294SOL    HW1 6514   8.893   3.300   9.139  0.7466  2.1442 -1.8133
 1294SOL    HW2 6515   8.923   3.329   9.285  0.6751 -2.1346 -0.8023
 1295SOL     OW 6516   5.860   4.798   8.106 -0.0826 -0.4872  0.1127
 1295SOL    HW1 6517   5.880   4.891   8.110 -2.4858  0.0591  2.1020
 1295SOL    HW2 6518   5.773   4.794   8.066 -0.6330 -1.7212  1.3399
 1296SOL     OW 6519   2.286   4.285   2.285 -0.1359 -0.2191 -0.1189
 1296SOL    HW1 6520   2.262   4.324   2.201  3.3929  0.1647 -1.1239
 1296SOL    HW2 6521   2.233   4.331   2.350 -0.7750  1.6074 -1.8511
 1297SOL     OW 6522   6.420   6.083   2.698  0.6129  0.5383  0.4290
 1297SOL    HW1 6523   6.466   6.159   2.663  2.2774 -0.2683  0.7752
 1297SOL    HW2 6524   6.489   6.024   2.727 -0.6451 -1.0306  0.3695
 1298SOL     OW 6525  10.129   5.430   8.640  0.2286 -0.4148  0.2165
 1298SOL    HW1 6526  10.208   5.423   8.695  0.8177  0.3893 -0.4962
 1298SOL    HW2 6527  10.067   5.479   8.694 -0.6049 -2.8729  1.6257
 1299SOL     OW 6528   7.185   0.109   1.734  0.3072 -0.4609 -0.2361
 1299SOL    HW1 6529   7.168   0.141   1.645 -0.1001 -1.0658 -0.3778
 1299SOL    HW2 6530   7.164   0.016   1.731  0.2563 -0.4798  0.5048
 1300SOL     OW 6531   2.384   6.786   5.410 -0.4375  0.1953 -0.1613
 1300SOL    HW1 6532   2.412   6.809   5.499 -0.3370  1.3020 -0.4677
 1300SOL    HW2 6533   2.339   6.702   5.420  0.7077 -0.3344  0.7353
 1301SOL     OW 6534   3.507   9.346   9.246 -0.2051  0.1463 -0.6293
 1301SOL    HW1 6535   3.584   9.307   9.206  0.7927  0.5793  0.7833
 1301SOL    HW2 6536   3.501   9.433   9.208 -0.1329  0.0334 -0.9039
 1302SOL     OW 6537   7.566   4.428   4.179 -0.7183  0.6499 -0.9388
 1302SOL    HW1 6538   7.554   4.504   4.122 -0.3208  0.0414 -1.8658
 1302SOL    HW2 6539   7.530   4.355   4.128 -0.0347  0.0331 -0.5535
 1303SOL     OW 6540   5.095   7.422   6.027 -0.6565  0.2392 -0.4620
 1303SOL    HW1 6541   5.066   7.401   6.115  0.0075  0.3079 -0.2190
 1303SOL    HW2 6542   5.088   7.517   6.021 -4.8548  0.0354 -1.9832
 1304SOL     OW 6543   9.058   7.165   3.530  0.1591 -0.3539  0.1853
 1304SOL    HW1 6544   8.996   7.092   3.536 -2.2826  1.6190  0.5145
 1304SOL    HW2 6545   9.048   7.199   3.442  1.4586 -0.4989 -0.0499
 1305SOL     OW 6546   6.509   1.307   5.007  0.8060  0.2769 -0.3338
 1305SOL    HW1 6547   6.447   1.282   5.075  1.7813 -3.4350 -0.6001
 1305SOL    HW2 6548   6.491   1.400   4.991 -3.0974 -0.0520  1.1193
 1306SOL     OW 6549   4.002   5.440   1.565  0.1629 -0.3003 -0.2255
 1306SOL    HW1 6550   3.928   5.494   1.593 -1.0406 -1.7979 -0.3845
 1306SOL    HW2 6551   4.064   5.502   1.527 -0.9354  1.0129  0.0495
 1307SOL     OW 6552   9.307   8.355   4.657  0.1768  0.1425 -0.3733
 1307SOL    HW1 6553   9.251   8.304   4.715  2.7712 -0.7452  1.5290
 1307SOL    HW2 6554   9.380   8.296   4.636  2.2902  2.3384  0.2910
 1308SOL     OW 6555   7.097   3.928   5.177  0.0158  0.3730 -0.0425
 1308SOL    HW1 6556   7.191   3.914   5.166 -0.0482 -0.6955  0.5882
 1308SOL    HW2 6557   7.090   3.977   5.258  0.0124 -0.0226  0.2008
 1309SOL     OW 6558   1.264   0.493   6.494  0.5316  0.0482 -0.2819
 1309SOL    HW1 6559   1.215   0.467   6.572 -2.7047  1.2292 -1.7545
 1309SOL    HW2 6560   1.273   0.412   6.443 -2.6066  0.2261 -1.2971
 1310SOL     OW 6561   1.300   6.988   0.651  0.8732 -0.0804 -0.1084
 1310SOL    HW1 6562   1.375   6.964   0.705  0.2803  0.3346  0.9496
 1310SOL    HW2 6563   1.291   6.917   0.588  1.4538 -0.7036  0.4938
 1311SOL     OW 6564   4.996   5.240   2.034  0.0545  0.4848  0.1349
 1311SOL    HW1 6565   5.078   5.230   2.083 -0.0131  0.4676  0.2428
 1311SOL    HW2 6566   5.018   5.209   1.945 -0.0430 -0.2435  0.3580
 1312SOL     OW 6567   7.756   1.369   7.524 -0.5922 -0.0315  0.4287
 1312SOL    HW1 6568   7.668   1.385   7.558 -0.1293 -1.0997  2.3091
 1312SOL    HW2 6569   7.749   1.381   7.430 -2.1852  2.2698  0.7726
 1313SOL     OW 6570   0.955   6.731   0.678 -0.3820 -0.0332 -0.3406
 1313SOL    HW1 6571   0.887   6.668   0.653 -0.3372 -0.1230 -0.2372
 1313SOL    HW2 6572   0.909   6.815   0.682 -0.6786 -0.2140  0.5373
 1314SOL     OW 6573   0.614   3.977   4.989 -0.1088  0.4857 -0.8432
 1314SOL    HW1 6574   0.687   3.968   5.051  1.5686  2.9640 -2.2721
 1314SOL    HW2 6575   0.639   3.922   4.915 -1.4428 -1.3738  0.0109
 1315SOL     OW 6576   3.103   5.258  10.204 -0.4131  0.4159  0.3754
 1315SOL    HW1 6577   3.092   5.344  10.246 -0.0670  0.3126  0.6853
 1315SOL    HW2 6578   3.031   5.205  10.239 -1.9925  1.2025 -1.5094
 1316SOL     OW 6579   8.514   0.153   5.540  0.2517  0.0137  0.6790
 1316SOL    HW1 6580   8.576   0.107   5.484 -0.7663 -0.8168  0.2018
 1316SOL    HW2 6581   8.551   0.241   5.548  0.0574  0.4275 -1.9617
 1317SOL     OW 6582   8.216   4.583   8.438 -0.1121 -0.0314 -0.1020
 1317SOL    HW1 6583   8.282   4.612   8.375 -1.5769  0.5298 -1.4420
 1317SOL    HW2 6584   8.196   4.661   8.490 -0.8593  0.2274 -0.7648
 1318SOL     OW 6585   4.183   2.208   9.985  0.0294  0.4109  0.0852
 1318SOL    HW1 6586   4.263   2.253  10.011  0.0133 -0.3296  1.4987
 1318SOL    HW2 6587   4.139   2.186  10.067 -0.8848 -0.5348 -0.6174
 1319SOL     OW 6588   7.474   5.030   0.450  0.4488 -0.1121 -0.0464
 1319SOL    HW1 6589   7.410   4.986   0.394 -1.2887 -0.4704  2.0626
 1319SOL    HW2 6590   7.540   4.963   0.468 -1.8764 -1.9056  2.6767
 1320SOL     OW 6591   2.176   9.041   9.644 -0.2424  0.5491  0.2042
 1320SOL    HW1 6592   2.099   9.019   9.592  1.1265  0.6922 -1.9830
 1320SOL    HW2 6593   2.161   9.131   9.673 -1.5003  0.1003  1.0223
 1321SOL     OW 6594   3.545   7.780   9.795 -0.4112 -0.3697 -0.4208
 1321SOL    HW1 6595   3.461   7.794   9.752 -1.6771 -0.2577  1.9565
 1321SOL    HW2 6596   3.526   7.721   9.867  1.1205  1.2288  1.4009
 1322SOL     OW 6597   9.821   8.633   1.373  0.5025 -0.5951  0.0266
 1322SOL    HW1 6598   9.890   8.615   1.310  0.5339 -1.7330  0.3622
 1322SOL    HW2 6599   9.863   8.624   1.458  0.4681  0.9649  0.2445
 1323SOL     OW 6600   1.045   5.611   6.825 -0.7025  0.2918  0.2991
 1323SOL    HW1 6601   0.992   5.532   6.830 -1.4198  0.7057 -0.4427
 1323SOL    HW2 6602   0.995   5.677   6.872  0.6274 -0.0332  2.3059
 1324SOL     OW 6603   7.074   4.726   6.190 -0.0980  0.2763 -0.8856
 1324SOL    HW1 6604   7.063   4.801   6.132 -0.2674  0.9153 -0.0602
 1324SOL    HW2 6605   6.997   4.671   6.173 -1.0698  1.3143 -0.0659
 1325SOL     OW 6606   4.276   4.978   4.651  0.6037 -0.0200 -0.4474
 1325SOL    HW1 6607   4.290   5.071   4.632 -0.9762  0.1471 -0.9301
 1325SOL    HW2 6608   4.342   4.933   4.597 -0.0087  0.7383 -1.8931
 1326SOL     OW 6609   1.978   1.487   0.857  0.2815  0.1170 -0.2135
 1326SOL    HW1 6610   2.046   1.475   0.924  0.7429 -0.5245 -0.7894
 1326SOL    HW2 6611   1.896   1.470   0.904  0.5461  0.4534  0.3784
 1327SOL     OW 6612   9.691   4.546   3.658 -0.3649 -0.4866  0.1606
 1327SOL    HW1 6613   9.692   4.599   3.579  0.3532 -1.0698 -0.2372
 1327SOL    HW2 6614   9.603   4.507   3.660 -0.4223 -0.3883 -0.2973
 1328SOL     OW 6615   4.575   3.963   3.510 -0.1810  0.1700  0.1547
 1328SOL    HW1 6616   4.633   4.014   3.454 -0.8112  1.2005  0.4153
 1328SOL    HW2 6617   4.574   3.876   3.470  0.6987  0.4214 -0.4521
 1329SOL     OW 6618   5.074   9.852   1.785  0.2665  0.5443 -0.1725
 1329SOL    HW1 6619   5.144   9.894   1.835  1.3629 -0.5609 -0.7650
 1329SOL    HW2 6620   4.997   9.861   1.841  1.1277  0.7252  1.0170
 1330SOL     OW 6621   5.455   3.950   6.797 -0.1123  0.2245  0.0608
 1330SOL    HW1 6622   5.523   3.986   6.740 -0.5154 -2.1399 -2.0853
 1330SOL    HW2 6623   5.393   4.022   6.808 -0.2782  0.7113 -3.0110
 1331SOL     OW 6624   1.583   2.709   6.998  0.0008  0.0747 -1.0075
 1331SOL    HW1 6625   1.587   2.639   7.063 -1.0359  0.6602 -0.2953
 1331SOL    HW2 6626   1.527   2.776   7.037  0.3567  0.9815 -1.9913
 1332SOL     OW 6627   1.403   0.700   2.316  0.0057 -0.7196 -0.4389
 1332SOL    HW1 6628   1.407   0.725   2.409 -0.3167  1.5768 -0.9875
 1332SOL    HW2 6629   1.358   0.616   2.316  1.3766 -1.5397  1.5880
 1333SOL     OW 6630  10.091   4.914   2.587  0.6324  0.0839 -0.5374
 1333SOL    HW1 6631  10.119   4.837   2.539  2.0286  0.2117  0.0187
 1333SOL    HW2 6632  10.095   4.985   2.523 -2.6638 -0.5412 -1.6484
 1334SOL     OW 6633   2.621   7.691   0.365  0.1279  0.0216  0.7126
 1334SOL    HW1 6634   2.574   7.773   0.348  1.2501  0.8481  1.4264
 1334SOL    HW2 6635   2.580   7.627   0.307 -1.3815  0.8667  0.7906
 1335SOL     OW 6636   2.354   9.772   1.179  0.4526 -0.3858 -0.0321
 1335SOL    HW1 6637   2.314   9.771   1.266  0.2832  0.0810 -0.1033
 1335SOL    HW2 6638   2.442   9.807   1.194  0.0061  0.8795 -0.2139
 1336SOL     OW 6639   2.683   8.963   9.871  0.0736 -0.5356 -0.1614
 1336SOL    HW1 6640   2.739   9.041   9.878 -0.8576  0.2431 -1.0861
 1336SOL    HW2 6641   2.623   8.970   9.945  1.0267 -1.2592  0.7076
 1337SOL     OW 6642   9.367   1.578   9.094  0.3792 -0.1137  0.2177
 1337SOL    HW1 6643   9.461   1.578   9.080  0.4637  0.7242  0.7121
 1337SOL    HW2 6644   9.334   1.509   9.037  1.5174 -1.9155  1.6266
 1338SOL     OW 6645   6.644   8.392   9.403 -0.0820  0.1444  0.2989
 1338SOL    HW1 6646   6.610   8.436   9.481 -0.7987  2.1565 -1.0827
 1338SOL    HW2 6647   6.636   8.299   9.424 -2.7353  0.5650  1.6388
 1339SOL     OW 6648   1.598   9.758   0.133 -0.2869  0.0306 -0.4972
 1339SOL    HW1 6649   1.597   9.851   0.109 -0.4019 -0.2393 -1.6170
 1339SOL    HW2 6650   1.528   9.749   0.197  0.7669  1.0035  0.8763
 1340SOL     OW 6651   4.069   6.074   9.552  0.0574  0.3277  0.0119
 1340SOL    HW1 6652   4.117   6.051   9.632  0.8747  0.3887 -0.4525
 1340SOL    HW2 6653   4.099   6.162   9.530  0.4559 -0.0072 -0.8158
 1341SOL     OW 6654   9.559   1.625   5.089  0.5985 -0.5477  0.2477
 1341SOL    HW1 6655   9.613   1.549   5.110  0.0570 -0.3634  2.5353
 1341SOL    HW2 6656   9.623   1.694   5.067  1.3303 -0.5328  2.2195
 1342SOL     OW 6657   9.836   9.657   1.386  0.4161 -0.7646  0.3184
 1342SOL    HW1 6658   9.858   9.746   1.358 -0.3341 -0.8136 -0.4555
 1342SOL    HW2 6659   9.759   9.634   1.335  0.7949 -1.9881  0.2635
 1343SOL     OW 6660   3.869   9.349   6.991 -0.2031  0.3288 -0.3090
 1343SOL    HW1 6661   3.910   9.432   6.969 -0.2460  0.4115 -0.0787
 1343SOL    HW2 6662   3.778   9.372   7.012 -0.3079  0.1778 -0.5927
 1344SOL     OW 6663   5.112   3.686   1.953 -0.3817  0.0722  0.1007
 1344SOL    HW1 6664   5.193   3.725   1.918 -0.7638 -0.1247 -1.0638
 1344SOL    HW2 6665   5.050   3.691   1.880 -0.4501 -2.7389 -0.1629
 1345SOL     OW 6666   9.587   7.253   2.400 -0.4259 -0.1471 -0.0368
 1345SOL    HW1 6667   9.497   7.283   2.393 -0.9009 -0.9438  2.0641
 1345SOL    HW2 6668   9.640   7.332   2.389 -1.2262  0.1011 -2.9144
 1346SOL     OW 6669   0.995   1.615   7.479 -0.0825  0.3115 -0.4351
 1346SOL    HW1 6670   1.089   1.595   7.482 -0.4050 -1.3243 -0.0760
 1346SOL    HW2 6671   0.960   1.579   7.560 -0.9221  1.5841 -0.2098
 1347SOL     OW 6672   5.605   1.907   8.234  0.3442  0.0631  0.2820
 1347SOL    HW1 6673   5.625   1.985   8.181 -1.9728 -0.2680 -1.2263
 1347SOL    HW2 6674   5.523   1.930   8.279  0.7542 -0.7561  1.4877
 1348SOL     OW 6675   9.749   6.933   0.109 -0.2444 -0.1120  0.1039
 1348SOL    HW1 6676   9.696   6.892   0.178 -0.4876  1.0534  0.6390
 1348SOL    HW2 6677   9.752   6.868   0.039 -0.1302 -1.2639  1.1493
 1349SOL     OW 6678  10.159   1.096   6.655 -0.4216 -0.6325  0.1904
 1349SOL    HW1 6679  10.157   1.003   6.678  0.6481 -0.4757  0.9874
 1349SOL    HW2 6680  10.106   1.138   6.723 -2.2084 -0.7879 -1.0276
 1350SOL     OW 6681   4.810   5.201   9.034 -0.7598  0.3646 -0.0056
 1350SOL    HW1 6682   4.788   5.109   9.048  0.2392  0.0048 -0.6931
 1350SOL    HW2 6683   4.813   5.239   9.122 -1.2678 -0.2359  0.2790
 1351SOL     OW 6684   2.619   4.546   2.014 -0.1209 -0.2289  0.9021
 1351SOL    HW1 6685   2.568   4.488   2.070  0.3640 -0.8268  0.7287
 1351SOL    HW2 6686   2.641   4.620   2.071 -1.6484  0.3217  0.8277
 1352SOL     OW 6687   9.889   5.221   3.928  0.4376 -0.5484 -0.4741
 1352SOL    HW1 6688   9.869   5.268   3.847 -0.3436 -0.2986 -0.1508
 1352SOL    HW2 6689   9.820   5.154   3.934 -1.0433  1.0055  1.2106
 1353SOL     OW 6690   9.698  10.350   5.999  0.1414  0.4488  0.0344
 1353SOL    HW1 6691   9.645  10.315   6.070 -0.5402 -0.1949 -0.7763
 1353SOL    HW2 6692   9.789  10.335   6.026 -0.0999  0.5632  0.9290
 1354SOL     OW 6693   7.270   2.223   7.909 -0.0279 -0.0851 -0.2503
 1354SOL    HW1 6694   7.358   2.188   7.895  0.7548  1.7413 -0.2077
 1354SOL    HW2 6695   7.274   2.312   7.874 -1.7287  0.1993  0.1982
 1355SOL     OW 6696   6.328   6.355   8.086  0.2916  0.0982  0.2670
 1355SOL    HW1 6697   6.316   6.411   8.009 -1.5597 -0.9170 -0.2346
 1355SOL    HW2 6698   6.412   6.312   8.071 -0.1535 -0.2824 -1.3330
 1356SOL     OW 6699   2.405   0.336   9.916 -0.4884 -0.1704  0.2696
 1356SOL    HW1 6700   2.404   0.430   9.933 -0.0797 -0.0990 -0.0917
 1356SOL    HW2 6701   2.416   0.297  10.003 -2.3242  0.0377  0.6343
 1357SOL     OW 6702   6.302   8.764   6.362 -0.3928 -0.1714 -0.1303
 1357SOL    HW1 6703   6.235   8.721   6.415 -0.0197 -0.6554 -0.0345
 1357SOL    HW2 6704   6.382   8.756   6.414 -0.1404 -0.1364 -0.5086
 1358SOL     OW 6705   7.406   1.173   8.117  0.0358  0.7798  0.0579
 1358SOL    HW1 6706   7.342   1.229   8.161 -1.6277  0.0961 -1.3438
 1358SOL    HW2 6707   7.381   1.177   8.024  1.9971  0.3910 -0.5301
 1359SOL     OW 6708   3.671  10.258   8.496  0.0484  0.4320  0.4480
 1359SOL    HW1 6709   3.626  10.190   8.446 -0.1458  0.0969  1.0737
 1359SOL    HW2 6710   3.751  10.216   8.527  0.3140  0.7299  0.1679
 1360SOL     OW 6711   8.037   8.646   1.659 -0.0092 -0.0833 -0.2824
 1360SOL    HW1 6712   8.078   8.642   1.745  0.3322 -0.4004 -0.4572
 1360SOL    HW2 6713   8.111   8.646   1.597 -0.1826  1.6158 -0.5364
 1361SOL     OW 6714   3.135   2.127   5.665  0.1817 -0.2713  1.0081
 1361SOL    HW1 6715   3.148   2.198   5.603  0.9477 -0.6610  0.7138
 1361SOL    HW2 6716   3.157   2.048   5.617 -2.1112 -0.8899  0.8592
 1362SOL     OW 6717   0.941   3.572   6.943 -0.0252 -0.0116  0.6193
 1362SOL    HW1 6718   0.882   3.633   6.988 -0.7543 -0.3334  0.1271
 1362SOL    HW2 6719   1.020   3.624   6.925 -1.1426  1.2280 -0.9943
 1363SOL     OW 6720   2.796   2.343   7.384  0.5720  0.3203  0.2973
 1363SOL    HW1 6721   2.703   2.360   7.401  0.4888  0.2320 -0.0711
 1363SOL    HW2 6722   2.797   2.294   7.302  0.7818 -1.8810  1.5429
 1364SOL     OW 6723   5.716   1.015   8.664 -0.1539  0.7010 -0.0320
 1364SOL    HW1 6724   5.687   1.082   8.602 -1.7572 -0.4249 -0.5588
 1364SOL    HW2 6725   5.652   1.018   8.735  0.1004  0.1390  0.2286
 1365SOL     OW 6726   5.466   5.949   6.928 -0.7616 -0.0598 -0.7435
 1365SOL    HW1 6727   5.412   6.019   6.889 -1.0207 -1.1386 -2.4333
 1365SOL    HW2 6728   5.555   5.983   6.924 -1.1495  1.2976  1.0566
 1366SOL     OW 6729   1.300   9.908   8.958  0.1285  0.1191 -0.0502
 1366SOL    HW1 6730   1.386   9.946   8.941  0.2746  0.7543  1.8939
 1366SOL    HW2 6731   1.304   9.821   8.918  1.3895  0.4294 -0.6505
 1367SOL     OW 6732   9.093   9.690   3.747 -0.1364  0.1110 -0.1498
 1367SOL    HW1 6733   9.091   9.725   3.836  0.4843  3.1234 -1.1985
 1367SOL    HW2 6734   9.153   9.748   3.700  0.1351 -1.8417 -2.3894
 1368SOL     OW 6735   0.007   9.113   4.993  0.6693 -0.6157  0.1551
 1368SOL    HW1 6736  -0.089   9.119   4.992  0.6387 -0.1969  1.7305
 1368SOL    HW2 6737   0.027   9.038   4.937 -0.3917  0.7752 -2.2565
 1369SOL     OW 6738   4.891   6.509   2.719  0.5284 -0.1871  0.0036
 1369SOL    HW1 6739   4.945   6.556   2.655 -1.1916  0.1018 -1.3129
 1369SOL    HW2 6740   4.853   6.436   2.670 -0.4220 -0.2643  0.8196
 1370SOL     OW 6741   2.205   5.499  10.263  0.4425  0.3878  0.2259
 1370SOL    HW1 6742   2.164   5.565  10.207  0.3065 -0.1759 -0.3547
 1370SOL    HW2 6743   2.210   5.421  10.208  2.8843  0.5936  0.0288
 1371SOL     OW 6744   6.901   9.943   5.697 -0.5775 -0.0674 -0.3864
 1371SOL    HW1 6745   6.831  10.009   5.700 -0.0634  0.4553  0.4827
 1371SOL    HW2 6746   6.886   9.896   5.615  0.9206  3.2217 -2.7743
 1372SOL     OW 6747   2.035   0.189   3.455 -0.6439  0.5750 -0.0308
 1372SOL    HW1 6748   1.963   0.250   3.443 -1.8007 -0.2605  2.0624
 1372SOL    HW2 6749   1.993   0.103   3.460  0.5507  0.0001  0.5999
 1373SOL     OW 6750   0.848   3.959   4.402  0.0400  0.5169  0.7352
 1373SOL    HW1 6751   0.905   3.895   4.360 -1.5767 -1.2551  1.1437
 1373SOL    HW2 6752   0.901   4.039   4.405  0.5482  0.6982 -4.1232
 1374SOL     OW 6753   6.949   4.982   9.083 -0.0044  0.6468 -0.2183
 1374SOL    HW1 6754   7.037   5.019   9.097 -0.1025  1.4047 -1.4378
 1374SOL    HW2 6755   6.891   5.040   9.133  0.1843  0.0925  0.6625
 1375SOL     OW 6756   7.051   2.724   5.309  0.3341 -0.4365  0.0311
 1375SOL    HW1 6757   6.964   2.693   5.334  0.5322  0.7675  2.5167
 1375SOL    HW2 6758   7.109   2.650   5.329  0.0785 -0.6490 -0.0158
 1376SOL     OW 6759   5.613   4.294   1.093  0.0096 -0.1223 -0.3491
 1376SOL    HW1 6760   5.697   4.296   1.048 -0.1963 -1.2206 -0.8035
 1376SOL    HW2 6761   5.563   4.365   1.053 -0.2383 -1.1821 -2.0278
 1377SOL     OW 6762   9.512   9.367   3.599 -0.1056 -0.2437  0.5708
 1377SOL    HW1 6763   9.453   9.368   3.674 -1.8341 -1.9595 -0.6594
 1377SOL    HW2 6764   9.513   9.275   3.570  2.1576 -0.0400 -0.2834
 1378SOL     OW 6765   9.348   9.030  10.129  0.5142 -0.5215 -0.2211
 1378SOL    HW1 6766   9.336   8.964  10.197  0.3010  1.1454  1.3976
 1378SOL    HW2 6767   9.337   9.114  10.173  3.0990  0.7311 -1.6948
 1379SOL     OW 6768   8.300   9.409   3.932  0.6207  0.1994  0.1270
 1379SOL    HW1 6769   8.315   9.316   3.948 -2.6653 -0.1825  1.8109
 1379SOL    HW2 6770   8.369   9.453   3.981  1.4285 -1.3298  0.4201
 1380SOL     OW 6771   9.366   2.541   7.869  0.1366  0.3340  0.1513
 1380SOL    HW1 6772   9.352   2.447   7.857 -2.7513  0.6213  0.6009
 1380SOL    HW2 6773   9.371   2.575   7.779  0.4428 -0.1380 -0.0185
 1381SOL     OW 6774   1.405   4.315   6.414  0.5702 -0.0214 -0.0061
 1381SOL    HW1 6775   1.479   4.279   6.365 -0.2332 -1.0259 -0.5360
 1381SOL    HW2 6776   1.430   4.308   6.506  0.3513 -2.3126 -0.0527
 1382SOL     OW 6777   6.777   8.744   5.900  0.2173  0.3938 -0.1905
 1382SOL    HW1 6778   6.746   8.768   5.987 -0.3820  2.6282 -0.9336
 1382SOL    HW2 6779   6.825   8.663   5.913  0.7190  0.9961  2.3354
 1383SOL     OW 6780   4.051   9.529   3.931  0.3214 -0.4809  0.2141
 1383SOL    HW1 6781   4.098   9.589   3.872  0.8966  0.4279  1.5429
 1383SOL    HW2 6782   4.021   9.459   3.874  1.6728 -0.1274 -1.0113
 1384SOL     OW 6783   6.949   4.782   2.376 -0.2562 -0.1231 -0.2779
 1384SOL    HW1 6784   6.885   4.791   2.305  0.6821  0.0708 -1.1267
 1384SOL    HW2 6785   6.987   4.695   2.362  1.3512  0.6953 -1.2637
 1385SOL     OW 6786   1.259   9.364  10.320  0.4547  0.0700 -0.1048
 1385SOL    HW1 6787   1.201   9.302  10.365  0.2345  0.1932 -0.2185
 1385SOL    HW2 6788   1.346   9.324  10.326  0.3309 -0.1993 -0.0845
 1386SOL     OW 6789   3.767   3.145   7.888 -0.4836  0.1843 -0.0560
 1386SOL    HW1 6790   3.765   3.199   7.967 -2.0674 -0.8627  0.6790
 1386SOL    HW2 6791   3.678   3.152   7.853 -0.9713 -2.4468  0.4597
 1387SOL     OW 6792   5.417   8.698   9.676  0.0510  0.2458  0.5792
 1387SOL    HW1 6793   5.395   8.752   9.752 -0.9487  0.0547  0.4358
 1387SOL    HW2 6794   5.441   8.613   9.713 -0.2589  0.2071  0.6930
 1388SOL     OW 6795   7.837   8.077   5.392 -0.4758 -0.0903  0.0199
 1388SOL    HW1 6796   7.846   8.013   5.463  0.3046  0.5621  0.5356
 1388SOL    HW2 6797   7.924   8.116   5.386 -1.0258  1.1479 -0.0659
 1389SOL     OW 6798  10.203   9.135   3.448  0.1859 -0.1525 -0.0683
 1389SOL    HW1 6799  10.192   9.049   3.408 -0.3689  0.0601 -0.3840
 1389SOL    HW2 6800  10.124   9.148   3.500  0.1575  0.2653 -0.2115
 1390SOL     OW 6801  10.230   2.885   4.534  0.2884  0.3640 -0.4339
 1390SOL    HW1 6802  10.161   2.848   4.589  0.5670  0.8181  0.2302
 1390SOL    HW2 6803  10.295   2.917   4.596 -0.1565  2.4136 -0.9648
 1391SOL     OW 6804   2.490   5.592   5.572 -0.5894  0.2493 -0.5089
 1391SOL    HW1 6805   2.565   5.602   5.513 -2.1883  1.5535 -2.4900
 1391SOL    HW2 6806   2.467   5.499   5.566 -0.6292  0.3170 -1.9123
 1392SOL     OW 6807   4.763   7.995   7.650  0.2837  0.2035 -0.2284
 1392SOL    HW1 6808   4.757   8.086   7.621 -0.2185 -0.0526 -0.9670
 1392SOL    HW2 6809   4.827   7.955   7.591 -0.6611 -0.2934 -0.9513
 1393SOL     OW 6810   6.282   7.809   7.927  0.3514  0.1574  0.4216
 1393SOL    HW1 6811   6.262   7.747   7.997  1.2799 -0.6947 -0.0405
 1393SOL    HW2 6812   6.242   7.772   7.849  1.7848 -0.4500 -0.0686
 1394SOL     OW 6813   3.392   4.783   7.583  0.2249  0.2816  0.0348
 1394SOL    HW1 6814   3.393   4.696   7.543 -0.0083 -0.1844  1.0009
 1394SOL    HW2 6815   3.482   4.814   7.577  0.2156  0.1729 -0.7285
 1395SOL     OW 6816   6.544   6.440   9.960 -0.1122  0.6448 -0.3701
 1395SOL    HW1 6817   6.634   6.461   9.984 -0.0647  0.9333 -0.7902
 1395SOL    HW2 6818   6.491   6.497  10.016 -0.0627  0.0519  0.3066
 1396SOL     OW 6819   3.112   1.013   8.114  0.1389 -0.3165 -0.2533
 1396SOL    HW1 6820   3.029   0.973   8.087  0.0560  1.0371 -2.2472
 1396SOL    HW2 6821   3.144   1.057   8.036  2.3453 -0.0838  0.7062
 1397SOL     OW 6822   3.383   6.272   0.586  0.0304  0.0135  0.1090
 1397SOL    HW1 6823   3.392   6.183   0.552 -0.0741  0.4158 -1.0014
 1397SOL    HW2 6824   3.288   6.286   0.591  0.0460  0.1624 -0.0028
 1398SOL     OW 6825   5.548   9.670   5.854  0.5317  0.1977  0.0865
 1398SOL    HW1 6826   5.563   9.757   5.816  1.5087  0.1826  0.4273
 1398SOL    HW2 6827   5.560   9.610   5.781  4.7356 -0.0352  0.7372
 1399SOL     OW 6828   6.183   8.522   3.822 -0.1024  0.1206 -0.0841
 1399SOL    HW1 6829   6.240   8.584   3.776 -0.8187  0.0578 -1.0920
 1399SOL    HW2 6830   6.175   8.449   3.761  0.8277 -1.0481  1.1313
 1400SOL     OW 6831   6.760   3.336   3.173 -0.0864 -0.1486  0.1663
 1400SOL    HW1 6832   6.674   3.328   3.132 -0.4617  1.5817  0.5442
 1400SOL    HW2 6833   6.741   3.340   3.267  0.3016  1.1185  0.2092
 1401SOL     OW 6834   4.792   7.765   8.807 -0.1371  0.0087 -0.1143
 1401SOL    HW1 6835   4.808   7.859   8.820  1.9446 -0.3263  0.0748
 1401SOL    HW2 6836   4.831   7.746   8.722 -1.0792 -0.5976 -0.4275
 1402SOL     OW 6837   4.060   9.039   7.045  0.5562  0.7138 -0.4463
 1402SOL    HW1 6838   4.084   9.095   7.118  0.7870  0.1294 -0.0713
 1402SOL    HW2 6839   4.100   9.080   6.969  1.7017  0.4388 -0.0096
 1403SOL     OW 6840   6.354   1.516   9.484  0.4822  0.2934  0.0669
 1403SOL    HW1 6841   6.297   1.593   9.485  0.2059  0.1522  2.7902
 1403SOL    HW2 6842   6.435   1.546   9.523  0.4301 -0.7400  0.9977
 1404SOL     OW 6843   3.501   7.207   0.031 -0.4020  0.0705  0.2384
 1404SOL    HW1 6844   3.525   7.285   0.080 -0.7620  0.8760 -0.8466
 1404SOL    HW2 6845   3.524   7.134   0.089  1.1671  0.9275  0.7218
 1405SOL     OW 6846   8.499   1.760   6.365  0.2151 -0.5934 -0.0652
 1405SOL    HW1 6847   8.448   1.823   6.315 -0.7626 -1.1786  0.1650
 1405SOL    HW2 6848   8.547   1.710   6.300 -0.2304 -0.6520 -0.3500
 1406SOL     OW 6849   0.802   0.186   1.895  0.2657  0.3741 -0.5522
 1406SOL    HW1 6850   0.863   0.258   1.880  1.3362 -0.5981 -1.1157
 1406SOL    HW2 6851   0.771   0.163   1.808 -0.3938  0.4224 -0.3328
 1407SOL     OW 6852   3.529   4.125   0.583  0.1716  0.3807 -0.1276
 1407SOL    HW1 6853   3.605   4.069   0.597  0.4543  0.9722  0.7911
 1407SOL    HW2 6854   3.566   4.205   0.544  0.0521  0.7126  0.4221
 1408SOL     OW 6855   2.421   1.245   1.003 -0.0553 -0.4111 -0.2365
 1408SOL    HW1 6856   2.466   1.295   0.935 -1.0520  1.0747  0.1555
 1408SOL    HW2 6857   2.477   1.252   1.080  0.1513 -0.5071 -0.3765
 1409SOL     OW 6858   6.374   8.562   8.801  0.3542 -0.0402 -0.0392
 1409SOL    HW1 6859   6.391   8.656   8.797  0.2197  0.0559  1.2110
 1409SOL    HW2 6860   6.298   8.549   8.745  1.2217  0.3558 -1.3732
 1410SOL     OW 6861   5.178   5.370   9.065 -0.0742  0.4775 -0.2511
 1410SOL    HW1 6862   5.120   5.369   8.988 -0.0602  0.7635 -0.2668
 1410SOL    HW2 6863   5.160   5.454   9.107 -2.0921 -0.7770  1.6057
 1411SOL     OW 6864   7.096   1.185   0.647 -0.9738  0.0732  0.1498
 1411SOL    HW1 6865   7.106   1.139   0.563 -1.5366  0.0342  0.0960
 1411SOL    HW2 6866   7.166   1.150   0.702 -0.2817  0.4644 -0.4569
 1412SOL     OW 6867   4.870   9.826   3.538  0.3398 -0.5034 -0.3190
 1412SOL    HW1 6868   4.916   9.910   3.539 -0.5707  0.0128  0.0177
 1412SOL    HW2 6869   4.800   9.838   3.473 -0.0924 -0.8292  0.0717
 1413SOL     OW 6870  10.027   6.008   5.792 -0.2279  0.0148  0.0575
 1413SOL    HW1 6871  10.030   5.965   5.706 -1.5566 -0.2014  0.0929
 1413SOL    HW2 6872  10.116   6.039   5.807 -0.1232  0.6759 -1.7111
 1414SOL     OW 6873   6.141   0.083   1.569 -0.2039 -0.2795  0.2080
 1414SOL    HW1 6874   6.227   0.125   1.557 -0.3738 -0.1969 -0.7558
 1414SOL    HW2 6875   6.117   0.105   1.659  0.3602  0.4941  0.1829
 1415SOL     OW 6876   3.331   4.752   8.285 -0.5463 -0.1959 -0.0767
 1415SOL    HW1 6877   3.307   4.700   8.361  0.7270 -0.3297  0.2485
 1415SOL    HW2 6878   3.295   4.703   8.211  0.5636 -1.5344  0.2299
 1416SOL     OW 6879   4.698   1.747   8.789  0.4034 -0.3659  0.2248
 1416SOL    HW1 6880   4.608   1.730   8.817  0.3296 -0.5051 -0.1025
 1416SOL    HW2 6881   4.737   1.792   8.864 -0.4211  1.2284 -0.2429
 1417SOL     OW 6882   3.330   6.212   3.882  0.3004 -0.0292  0.4344
 1417SOL    HW1 6883   3.419   6.176   3.879  0.0792 -0.5410 -0.7909
 1417SOL    HW2 6884   3.276   6.146   3.838 -0.3010  1.2927 -0.8940
 1418SOL     OW 6885   4.560   0.188   3.402 -0.1830 -0.0824 -0.1064
 1418SOL    HW1 6886   4.627   0.222   3.343  0.0124 -0.2545  0.0154
 1418SOL    HW2 6887   4.527   0.265   3.448  0.6233 -0.1099  0.5451
 1419SOL     OW 6888   4.758   8.326   6.211 -0.0916 -0.1462  0.7952
 1419SOL    HW1 6889   4.840   8.351   6.168 -1.9674  1.8901 -1.9369
 1419SOL    HW2 6890   4.725   8.407   6.250 -0.1846 -1.2439  3.1872
 1420SOL     OW 6891   8.998   1.169   0.678  0.2199  0.3884 -0.1144
 1420SOL    HW1 6892   9.054   1.246   0.672 -0.8288  1.2084  0.3281
 1420SOL    HW2 6893   8.920   1.199   0.726 -0.1302 -0.9901  0.2232
 1421SOL     OW 6894   4.770   5.613   1.123 -0.2116 -0.1261 -0.2545
 1421SOL    HW1 6895   4.752   5.552   1.194 -0.2463 -1.3088 -1.2504
 1421SOL    HW2 6896   4.704   5.682   1.133 -1.0615 -0.9667  0.0796
 1422SOL     OW 6897   3.448   4.980   2.076  0.1917  1.2909  0.1848
 1422SOL    HW1 6898   3.542   4.961   2.083  0.1804  1.4286  0.7925
 1422SOL    HW2 6899   3.440   5.032   1.996  0.6175  1.2009  0.0766
 1423SOL     OW 6900   9.033   3.184  10.306  0.0902  0.1632  0.4596
 1423SOL    HW1 6901   9.016   3.095  10.337 -1.1393  0.5872  1.0835
 1423SOL    HW2 6902   9.024   3.239  10.385 -2.3181  1.1789 -0.4254
 1424SOL     OW 6903   1.113   1.825   5.670  0.5297 -0.4441 -0.3053
 1424SOL    HW1 6904   1.109   1.864   5.758 -1.0290 -0.8058 -0.1841
 1424SOL    HW2 6905   1.126   1.899   5.612  1.4858 -0.1890  0.1961
 1425SOL     OW 6906   6.875   7.416   2.899  0.3671  0.2302  0.3564
 1425SOL    HW1 6907   6.818   7.492   2.894 -0.5285 -0.4702 -0.7492
 1425SOL    HW2 6908   6.894   7.394   2.808 -1.3853 -2.2667  0.4651
 1426SOL     OW 6909   2.593   9.616   9.370 -0.2338  0.6717 -0.2819
 1426SOL    HW1 6910   2.518   9.575   9.411 -0.2704  0.5735 -0.4465
 1426SOL    HW2 6911   2.578   9.710   9.381  0.7684  0.6449  1.7675
 1427SOL     OW 6912   1.753   9.633   5.045  0.6428 -0.5781  0.1640
 1427SOL    HW1 6913   1.821   9.627   4.979  0.9895  1.3628  0.2718
 1427SOL    HW2 6914   1.695   9.703   5.014  0.3066 -0.2583  1.4467
 1428SOL     OW 6915   1.401   8.362   1.600  0.0019  0.8047  0.2999
 1428SOL    HW1 6916   1.461   8.360   1.674 -1.5673  0.1726  1.6270
 1428SOL    HW2 6917   1.353   8.444   1.610  0.4774  1.2220 -0.6493
 1429SOL     OW 6918   1.564   2.018   8.771  0.2977  0.5558 -0.2258
 1429SOL    HW1 6919   1.591   2.052   8.685  0.7906 -0.1783 -0.3743
 1429SOL    HW2 6920   1.647   1.997   8.815  0.0315  0.4995  0.2530
 1430SOL     OW 6921   8.498   7.226   0.086  0.1854 -0.0089  0.2670
 1430SOL    HW1 6922   8.406   7.217   0.113 -0.0744 -1.1231 -0.8889
 1430SOL    HW2 6923   8.541   7.150   0.124  0.2948 -0.3261 -0.4678
 1431SOL     OW 6924   7.149   5.216   9.195 -0.6653 -0.3481 -0.4349
 1431SOL    HW1 6925   7.151   5.311   9.184  0.2867 -0.3392 -0.2652
 1431SOL    HW2 6926   7.205   5.200   9.272 -1.0892 -1.0157 -0.2584
 1432SOL     OW 6927   9.928   1.261   3.799  0.2015  0.0311  0.2648
 1432SOL    HW1 6928   9.991   1.318   3.844  0.6417 -1.9391  2.3682
 1432SOL    HW2 6929   9.849   1.265   3.854 -0.4532  0.0826 -0.6467
 1433SOL     OW 6930   7.289   3.140   0.521  0.0988 -0.1079 -0.0720
 1433SOL    HW1 6931   7.369   3.107   0.562  0.3459  0.2851 -0.2324
 1433SOL    HW2 6932   7.296   3.236   0.528 -0.0520 -0.0478 -0.6635
 1434SOL     OW 6933   7.783   9.895   2.685  0.1187  0.1345  0.1857
 1434SOL    HW1 6934   7.836   9.815   2.683 -0.2156 -0.2166  2.5466
 1434SOL    HW2 6935   7.819   9.946   2.757 -0.9706  1.1841  0.0164
 1435SOL     OW 6936   9.879   4.206   6.009 -0.2401 -0.0722  0.0673
 1435SOL    HW1 6937   9.892   4.296   6.039  1.7150 -0.0854 -0.6232
 1435SOL    HW2 6938   9.888   4.211   5.914  1.6201 -1.2179  0.1264
 1436SOL     OW 6939   3.401   3.735   0.613  0.2943  0.3700 -0.0073
 1436SOL    HW1 6940   3.495   3.729   0.594  0.4408  0.5267  0.6389
 1436SOL    HW2 6941   3.365   3.654   0.576  0.5102  0.7775 -1.1756
 1437SOL     OW 6942   3.664   3.851   9.865  0.7071  0.2133 -0.2828
 1437SOL    HW1 6943   3.734   3.877   9.806 -0.7576  1.8762 -1.3824
 1437SOL    HW2 6944   3.621   3.778   9.821 -1.2098  2.2775 -2.0808
 1438SOL     OW 6945   6.591   6.671   1.856 -0.2620  0.4179  0.5369
 1438SOL    HW1 6946   6.647   6.607   1.899  0.1555  0.0985 -0.4563
 1438SOL    HW2 6947   6.652   6.726   1.807 -0.8271 -0.1263 -0.8065
 1439SOL     OW 6948   3.432   5.495   0.930  0.1115 -0.2310 -0.3235
 1439SOL    HW1 6949   3.447   5.540   0.847  0.6396  0.0781 -0.0646
 1439SOL    HW2 6950   3.358   5.436   0.912  0.7988 -0.8372 -1.2538
 1440SOL     OW 6951   9.584   4.482   7.184 -0.0842  0.3924 -0.5364
 1440SOL    HW1 6952   9.561   4.570   7.213  0.4388  0.7651 -1.2084
 1440SOL    HW2 6953   9.620   4.495   7.096  0.7457 -0.4031 -0.3256
 1441SOL     OW 6954   5.213   4.010   5.983 -1.1164 -0.3929 -0.0155
 1441SOL    HW1 6955   5.242   4.097   5.955  0.1277 -0.5257  0.7879
 1441SOL    HW2 6956   5.153   4.027   6.055 -2.2312 -0.1593 -0.9595
 1442SOL     OW 6957  10.208   8.757   6.371  0.4547 -0.1714  0.8230
 1442SOL    HW1 6958  10.122   8.789   6.343  1.4593  0.5281 -1.7638
 1442SOL    HW2 6959  10.194   8.664   6.388 -0.5547 -0.4255 -1.0700
 1443SOL     OW 6960   5.919   1.098   2.605  0.1603 -0.2405  0.0024
 1443SOL    HW1 6961   5.946   1.172   2.551 -1.3810  0.7381  0.5300
 1443SOL    HW2 6962   5.902   1.027   2.542  2.4835 -0.4928 -0.4462
 1444SOL     OW 6963   0.738   5.057   6.264 -0.4485  0.1321 -0.2262
 1444SOL    HW1 6964   0.762   4.986   6.323 -1.0862  0.4169  0.3862
 1444SOL    HW2 6965   0.755   5.137   6.314  0.4884  0.4365 -0.9908
 1445SOL     OW 6966   0.106   1.210   3.010  0.2400  0.1649  0.3566
 1445SOL    HW1 6967   0.034   1.148   3.003 -0.3582  0.5135  2.5681
 1445SOL    HW2 6968   0.066   1.289   3.045  1.7766  0.0648  2.5736
 1446SOL     OW 6969   4.045   6.071   7.203 -0.5143  0.3687  0.5101
 1446SOL    HW1 6970   4.132   6.110   7.214  0.2237 -1.3934  1.4455
 1446SOL    HW2 6971   3.989   6.119   7.263 -0.5408  2.4047 -1.0453
 1447SOL     OW 6972   4.567   5.365   8.981  0.2895  0.4116  0.1286
 1447SOL    HW1 6973   4.569   5.371   9.076  0.6795  0.3382  0.1255
 1447SOL    HW2 6974   4.630   5.296   8.959 -1.8261 -1.6254 -0.0163
 1448SOL     OW 6975   3.206   0.724   9.932 -0.9140 -0.3260 -0.4380
 1448SOL    HW1 6976   3.185   0.748  10.022  0.4160 -0.5153 -0.0656
 1448SOL    HW2 6977   3.208   0.808   9.885 -0.2910 -0.0927 -0.0048
 1449SOL     OW 6978   0.376   7.298   5.943  0.3344 -0.3792  0.3067
 1449SOL    HW1 6979   0.373   7.337   5.855 -2.1121 -1.0885 -0.0049
 1449SOL    HW2 6980   0.462   7.258   5.948  0.3406 -0.8369 -2.0621
 1450SOL     OW 6981   1.767   2.356  10.218 -0.2793  0.2004 -0.2719
 1450SOL    HW1 6982   1.680   2.362  10.258  0.6683 -1.2721  2.2535
 1450SOL    HW2 6983   1.758   2.286  10.154 -1.1414  0.6293 -0.6444
 1451SOL     OW 6984   4.128   8.328   0.229 -0.3065  0.4094 -0.7395
 1451SOL    HW1 6985   4.035   8.331   0.252 -0.1535  1.8906 -0.2296
 1451SOL    HW2 6986   4.128   8.303   0.136 -1.2506  0.9679 -0.9061
 1452SOL     OW 6987   1.012   7.147   9.072 -0.1180  0.0767 -0.4230
 1452SOL    HW1 6988   0.958   7.076   9.107 -0.8227  1.5696  1.7678
 1452SOL    HW2 6989   0.966   7.227   9.098  2.2694  1.3826  0.0454
 1453SOL     OW 6990   8.483   1.522   5.136 -0.1130  0.2525 -0.5718
 1453SOL    HW1 6991   8.499   1.520   5.041  2.1478  0.6219 -0.2345
 1453SOL    HW2 6992   8.387   1.526   5.143 -0.4462 -1.7220 -2.7939
 1454SOL     OW 6993  10.043   2.347   1.604  0.4113  0.3298 -0.0051
 1454SOL    HW1 6994  10.133   2.378   1.607 -0.4770  3.0830  1.2565
 1454SOL    HW2 6995  10.004   2.390   1.528 -0.2513  0.4304  0.3831
 1455SOL     OW 6996   9.207   2.060   9.697 -0.1624 -0.2365 -0.0709
 1455SOL    HW1 6997   9.204   2.013   9.781 -1.6252 -0.4965 -0.2393
 1455SOL    HW2 6998   9.285   2.026   9.654 -1.2994 -2.8177 -0.3080
 1456SOL     OW 6999  10.040   6.576   7.908  0.3351  0.0074  0.3235
 1456SOL    HW1 7000  10.117   6.606   7.957  0.2526 -0.5966  0.8244
 1456SOL    HW2 7001  10.062   6.592   7.816  0.8371  0.3427  0.5017
 1457SOL     OW 7002   8.307   6.840   6.822 -0.4454 -0.1622 -0.2553
 1457SOL    HW1 7003   8.288   6.771   6.886  0.2251 -1.1130 -1.0537
 1457SOL    HW2 7004   8.340   6.794   6.745 -2.6535  0.8005 -1.9014
 1458SOL     OW 7005   4.715   6.752   4.166  0.5055  0.3107  0.6196
 1458SOL    HW1 7006   4.713   6.767   4.261  0.0998  0.6595  0.5578
 1458SOL    HW2 7007   4.695   6.838   4.128 -0.3668 -0.0554  0.2362
 1459SOL     OW 7008   5.034   4.857   6.033  0.2286 -0.1426 -0.3385
 1459SOL    HW1 7009   5.114   4.842   5.982  0.3551  0.3886 -0.3026
 1459SOL    HW2 7010   5.056   4.830   6.122  0.0213 -1.0323 -0.5455
 1460SOL     OW 7011   1.280   3.704   4.041 -0.3842 -0.5164 -0.0327
 1460SOL    HW1 7012   1.352   3.760   4.012 -0.8956  0.2207  0.0765
 1460SOL    HW2 7013   1.289   3.700   4.136 -0.3415 -0.6218 -0.0416
 1461SOL     OW 7014   3.494   8.802   4.954 -0.2743  0.1902  0.7888
 1461SOL    HW1 7015   3.563   8.813   4.889 -1.2702  1.0766 -0.1428
 1461SOL    HW2 7016   3.494   8.708   4.973 -0.0375 -0.1135 -0.5964
 1462SOL     OW 7017   7.334   3.237   0.153 -0.3973  0.2234  0.5383
 1462SOL    HW1 7018   7.284   3.162   0.185  0.2654 -0.2170  0.5635
 1462SOL    HW2 7019   7.298   3.254   0.065  1.4166 -2.0598 -0.7577
 1463SOL     OW 7020   0.590   0.357   4.084 -0.2054 -0.5861 -0.1363
 1463SOL    HW1 7021   0.680   0.351   4.054 -0.3324  0.5211 -0.8065
 1463SOL    HW2 7022   0.565   0.267   4.106  0.5637 -1.1338 -1.4086
 1464SOL     OW 7023   0.525   8.459   9.835 -0.1474  0.3609  0.1368
 1464SOL    HW1 7024   0.531   8.553   9.820 -0.4507  0.5541  1.1674
 1464SOL    HW2 7025   0.585   8.442   9.907  1.1983 -0.5248 -1.1370
 1465SOL     OW 7026   1.563   3.453   5.591 -0.0092 -0.0574  0.1410
 1465SOL    HW1 7027   1.533   3.491   5.674  0.2472  0.6401 -0.0798
 1465SOL    HW2 7028   1.487   3.459   5.533  1.1464  4.0706 -1.2328
 1466SOL     OW 7029   7.498   8.658   2.046 -0.2088  0.5373 -0.4384
 1466SOL    HW1 7030   7.463   8.573   2.020  0.6252  0.1310 -0.2498
 1466SOL    HW2 7031   7.485   8.662   2.141 -0.7146  0.8492 -0.5124
 1467SOL     OW 7032   6.833   9.169   1.671  0.5844 -0.2297 -0.1071
 1467SOL    HW1 7033   6.894   9.100   1.695  0.1192 -0.2469  1.0802
 1467SOL    HW2 7034   6.822   9.221   1.751 -3.4304 -2.1138  0.8054
 1468SOL     OW 7035   0.399   0.827   2.904 -0.6445 -0.3205  0.1146
 1468SOL    HW1 7036   0.487   0.856   2.926 -0.2781  0.2488 -1.8893
 1468SOL    HW2 7037   0.341   0.890   2.947 -0.0294  0.0211  0.4513
 1469SOL     OW 7038   8.525   9.719   8.200 -0.3989 -0.3157 -0.3645
 1469SOL    HW1 7039   8.497   9.723   8.292 -0.1484 -0.3925 -0.2816
 1469SOL    HW2 7040   8.558   9.806   8.182 -0.5510 -0.2688 -0.4157
 1470SOL     OW 7041   6.334   5.359   1.046 -0.7060  0.0760  1.2842
 1470SOL    HW1 7042   6.407   5.310   1.084 -0.8578 -0.1902  1.2336
 1470SOL    HW2 7043   6.281   5.292   1.001 -1.5896  0.0978  2.2646
 1471SOL     OW 7044   5.955   8.626   0.592  0.5197  0.1524  0.1932
 1471SOL    HW1 7045   5.906   8.649   0.513  0.4233  1.0606  0.5022
 1471SOL    HW2 7046   5.940   8.532   0.603 -0.6220  0.2806 -0.0888
 1472SOL     OW 7047   3.336   6.794   2.293  0.0542  0.1605  0.0287
 1472SOL    HW1 7048   3.348   6.874   2.241  0.6948  0.0392 -0.0222
 1472SOL    HW2 7049   3.375   6.815   2.378 -1.3920  0.5121  0.6315
 1473SOL     OW 7050   3.526   6.141   3.584 -0.3137  0.6996 -0.1475
 1473SOL    HW1 7051   3.607   6.192   3.592 -0.8917  1.4213  1.7563
 1473SOL    HW2 7052   3.521   6.093   3.667 -0.2940 -1.7504 -1.4980
 1474SOL     OW 7053   6.414   7.103   8.077  0.4896 -0.3096  0.4966
 1474SOL    HW1 7054   6.368   7.077   7.997  3.2825 -1.8735 -0.7289
 1474SOL    HW2 7055   6.454   7.188   8.056  0.7333 -0.4328  0.4670
 1475SOL     OW 7056   3.322   4.979   3.173 -0.2383  0.5219  0.0380
 1475SOL    HW1 7057   3.398   4.945   3.220 -1.8253 -1.2264  1.4949
 1475SOL    HW2 7058   3.344   4.967   3.081  1.5679  0.8361  0.3926
 1476SOL     OW 7059   9.873   2.341   2.948 -0.3402 -0.4237  0.1684
 1476SOL    HW1 7060   9.875   2.391   2.866 -1.7032 -0.0952  0.3173
 1476SOL    HW2 7061   9.830   2.399   3.011  1.2538 -0.4246  1.3170
 1477SOL     OW 7062   4.762   5.372   9.254  0.5482  0.1164 -0.2388
 1477SOL    HW1 7063   4.716   5.456   9.255 -0.5338 -0.4514  1.9009
 1477SOL    HW2 7064   4.838   5.385   9.309  0.2480 -0.3526  0.3014
 1478SOL     OW 7065   0.178   9.507  10.107  0.1589  0.7096  0.2473
 1478SOL    HW1 7066   0.256   9.561  10.097 -0.2032  1.3649  0.8961
 1478SOL    HW2 7067   0.117   9.540  10.042 -0.0376  1.0457  0.5979
 1479SOL     OW 7068   5.059   2.350   7.451 -0.5585  0.1576  0.3873
 1479SOL    HW1 7069   5.051   2.298   7.371 -1.3703  0.8202  0.0181
 1479SOL    HW2 7070   5.094   2.434   7.421  1.9257 -0.5173  1.1272
 1480SOL     OW 7071  10.306   4.939   4.485  0.1959  0.2872 -0.1242
 1480SOL    HW1 7072  10.230   4.964   4.433  0.5794  0.9142 -0.3923
 1480SOL    HW2 7073  10.311   5.005   4.554 -0.6257 -0.8253  1.0667
 1481SOL     OW 7074   5.825   9.276   7.458  0.1783 -0.3966  0.1953
 1481SOL    HW1 7075   5.878   9.262   7.536  1.5400 -0.9761 -0.7917
 1481SOL    HW2 7076   5.745   9.316   7.491  0.5221 -1.0381  1.9306
 1482SOL     OW 7077   6.429   9.760   3.619  0.5120  0.5391 -1.0205
 1482SOL    HW1 7078   6.499   9.694   3.612  1.6087  1.5777 -0.2100
 1482SOL    HW2 7079   6.389   9.761   3.533  1.8064  0.2292 -1.6594
 1483SOL     OW 7080   8.903   2.421   0.257 -0.2764 -1.0407 -0.1348
 1483SOL    HW1 7081   8.981   2.449   0.304 -0.0747  1.5222 -1.8138
 1483SOL    HW2 7082   8.839   2.400   0.325  0.9855 -0.4757  1.2521
 1484SOL     OW 7083   0.185   9.932   7.043 -0.1803  0.1032  0.2255
 1484SOL    HW1 7084   0.150   9.877   6.972 -1.5441  0.7522  0.3686
 1484SOL    HW2 7085   0.262   9.974   7.005  0.2449 -1.0494 -0.2385
 1485SOL     OW 7086   4.706   0.162   1.461  0.6616 -0.0899 -0.0552
 1485SOL    HW1 7087   4.743   0.117   1.536  1.0486 -0.6586 -0.5815
 1485SOL    HW2 7088   4.753   0.246   1.457  0.3709  0.1067  0.5563
 1486SOL     OW 7089   2.137   5.142   4.337  0.1286  0.1098  0.0307
 1486SOL    HW1 7090   2.071   5.163   4.270 -0.8667 -2.0707  0.2558
 1486SOL    HW2 7091   2.088   5.144   4.419  0.5697 -0.5354  0.3112
 1487SOL     OW 7092   1.133   2.682  10.075  0.8606  0.8710 -0.0903
 1487SOL    HW1 7093   1.134   2.635   9.991  1.4809 -0.0796  0.4260
 1487SOL    HW2 7094   1.055   2.737  10.071 -1.1629 -1.7462  0.0752
 1488SOL     OW 7095   0.457   0.375   9.110 -0.3618  0.3408 -0.3646
 1488SOL    HW1 7096   0.481   0.283   9.116  0.9281  0.5087 -2.1406
 1488SOL    HW2 7097   0.366   0.375   9.081  0.7527 -0.5288 -4.4976
 1489SOL     OW 7098   8.529  10.170   4.601  0.4168  0.5601 -0.5110
 1489SOL    HW1 7099   8.592  10.210   4.661 -0.6390  2.1068 -0.3944
 1489SOL    HW2 7100   8.580  10.148   4.523  1.4078  0.3003  0.1921
 1490SOL     OW 7101   6.482   1.171   6.544  0.1475 -0.0226  0.0524
 1490SOL    HW1 7102   6.517   1.215   6.622  0.7418 -1.4552  0.6169
 1490SOL    HW2 7103   6.416   1.232   6.511 -0.0090  0.6983  1.5852
 1491SOL     OW 7104   0.034   1.359   5.641 -0.9051  0.6025  0.1391
 1491SOL    HW1 7105   0.078   1.279   5.611 -1.2518  0.1164  0.8820
 1491SOL    HW2 7106   0.104   1.416   5.671 -0.7099  0.2187  0.4218
 1492SOL     OW 7107   8.058   4.050  10.009 -0.8483  0.8002  0.2848
 1492SOL    HW1 7108   8.119   4.124  10.014  0.5875 -0.3810  1.3912
 1492SOL    HW2 7109   7.974   4.086  10.036 -0.3833  2.2302 -0.0979
 1493SOL     OW 7110   4.761   9.547   9.107 -0.0518  0.1588  0.0995
 1493SOL    HW1 7111   4.818   9.510   9.039  0.2179  0.9242 -0.0982
 1493SOL    HW2 7112   4.816   9.550   9.185 -0.1954 -0.2155  0.2172
 1494SOL     OW 7113   7.610   2.945   3.357  0.3160  0.2610  0.0546
 1494SOL    HW1 7114   7.600   2.885   3.431  1.6012 -0.2466 -0.1531
 1494SOL    HW2 7115   7.575   2.897   3.282 -1.0875  0.8177  0.3310
 1495SOL     OW 7116   0.444   5.731   5.965 -0.2424  0.0940  0.0468
 1495SOL    HW1 7117   0.484   5.645   5.960  0.8547  0.5607  0.6209
 1495SOL    HW2 7118   0.355   5.717   5.933  0.4356 -0.9026 -1.5172
 1496SOL     OW 7119   5.539   3.256   3.367 -0.1187 -0.0209 -0.9607
 1496SOL    HW1 7120   5.476   3.323   3.342 -2.4295 -1.9286 -0.6459
 1496SOL    HW2 7121   5.541   3.196   3.292  0.7091 -0.4288 -0.6264
 1497SOL     OW 7122   1.951   6.378   6.340 -0.2805  0.7636 -0.4254
 1497SOL    HW1 7123   1.886   6.394   6.408  0.9618  3.0053  0.3263
 1497SOL    HW2 7124   2.009   6.311   6.377 -2.4142 -1.7671 -1.3694
 1498SOL     OW 7125   5.567   4.906   1.825  0.1951 -0.3070  0.5880
 1498SOL    HW1 7126   5.600   4.857   1.750 -1.6503 -1.3769  0.3888
 1498SOL    HW2 7127   5.618   4.986   1.827  1.0416 -0.7605 -1.1303
 1499SOL     OW 7128   2.481   9.911   8.531  0.7494  0.4838  0.9188
 1499SOL    HW1 7129   2.520   9.823   8.524 -0.1043  0.1968 -1.1735
 1499SOL    HW2 7130   2.387   9.895   8.532  0.5904  1.3735  0.8603
 1500SOL     OW 7131   6.923   1.510   4.909  0.0021 -0.2331 -0.8724
 1500SOL    HW1 7132   6.878   1.508   4.825 -1.6378 -2.5232 -0.0502
 1500SOL    HW2 7133   6.879   1.443   4.961  0.3111  1.7247  2.1738
 1501SOL     OW 7134   0.394   5.551   8.839  0.5589  0.2921  0.2080
 1501SOL    HW1 7135   0.417   5.597   8.758 -1.3561 -0.7381 -0.9745
 1501SOL    HW2 7136   0.395   5.458   8.816 -1.5552  0.0485  0.9059
 1502SOL     OW 7137   6.402   5.813   0.510 -0.3092  0.2318 -0.4598
 1502SOL    HW1 7138   6.341   5.760   0.562  0.3181 -1.1869 -1.1051
 1502SOL    HW2 7139   6.432   5.754   0.440  2.1286  0.7056  0.0783
 1503SOL     OW 7140   7.272   0.790   3.591 -0.1360  0.2015  0.3517
 1503SOL    HW1 7141   7.198   0.844   3.619 -0.1646  0.5143 -0.2992
 1503SOL    HW2 7142   7.342   0.810   3.653 -1.1459 -1.5445  2.1981
 1504SOL     OW 7143   2.335   8.260   0.871 -0.1213  0.0914 -0.1390
 1504SOL    HW1 7144   2.395   8.249   0.798  2.0971  2.5234  1.1354
 1504SOL    HW2 7145   2.250   8.280   0.830  0.4759 -0.9595 -1.9856
 1505SOL     OW 7146   4.045   7.124   1.038 -0.3615 -0.0355 -0.3506
 1505SOL    HW1 7147   4.076   7.098   1.125  0.1620 -0.2848 -0.6043
 1505SOL    HW2 7148   4.062   7.218   1.034 -3.3321  0.6784  1.0134
 1506SOL     OW 7149   7.126   2.916   0.936  0.1043 -0.3288  0.1361
 1506SOL    HW1 7150   7.173   2.840   0.970 -0.7519 -0.2693  1.5298
 1506SOL    HW2 7151   7.189   2.961   0.880  0.9480 -1.4946  0.1163
 1507SOL     OW 7152   5.960  10.231   6.718 -0.1594  0.2756 -0.4547
 1507SOL    HW1 7153   5.979  10.153   6.769 -1.0285 -0.2914 -0.9774
 1507SOL    HW2 7154   6.000  10.213   6.632 -1.4945 -0.1862 -1.0028
 1508SOL     OW 7155   8.998   6.830   7.756 -0.2062  0.2869  0.3455
 1508SOL    HW1 7156   8.903   6.824   7.748 -0.2664  0.1692  1.0812
 1508SOL    HW2 7157   9.032   6.766   7.693 -0.6383 -0.4476  0.8500
 1509SOL     OW 7158   2.590   6.948   7.300 -0.2136 -0.3274  0.0864
 1509SOL    HW1 7159   2.505   6.903   7.311 -0.7918  0.5002 -0.8875
 1509SOL    HW2 7160   2.606   6.989   7.385 -1.5075  0.6925 -0.1334
 1510SOL     OW 7161   0.456   1.937   5.124  0.0026  0.1109 -0.2663
 1510SOL    HW1 7162   0.428   1.964   5.037  1.2645  0.3194 -0.6318
 1510SOL    HW2 7163   0.547   1.909   5.112  0.4223  0.8086  1.1096
 1511SOL     OW 7164   1.313   1.748   6.852  0.2243  0.2769 -0.8989
 1511SOL    HW1 7165   1.390   1.804   6.852  0.6832 -0.1348  2.2739
 1511SOL    HW2 7166   1.347   1.659   6.841  0.8767 -0.3231  3.8485
 1512SOL     OW 7167   5.819   4.597   5.898 -0.0770 -0.4130 -0.4729
 1512SOL    HW1 7168   5.812   4.502   5.886 -0.1930 -0.4004 -0.5039
 1512SOL    HW2 7169   5.791   4.611   5.989  0.9443 -0.5251 -0.1279
 1513SOL     OW 7170   3.045   2.362   1.697 -0.3010  0.9159 -0.1590
 1513SOL    HW1 7171   3.014   2.408   1.775 -2.9384 -1.7240  0.5003
 1513SOL    HW2 7172   3.028   2.270   1.714  1.4903 -0.0415 -2.8239
 1514SOL     OW 7173   5.531   4.764   9.169 -0.2781  0.5134 -0.5498
 1514SOL    HW1 7174   5.538   4.702   9.097 -1.7046 -0.2824 -0.0442
 1514SOL    HW2 7175   5.621   4.787   9.191  0.3755 -2.1776 -0.0818
 1515SOL     OW 7176   4.328   5.474   1.713 -0.1270  0.5674 -0.0651
 1515SOL    HW1 7177   4.413   5.492   1.754  0.0501 -0.6606  0.1500
 1515SOL    HW2 7178   4.345   5.480   1.619  0.5103 -0.8931 -0.0632
 1516SOL     OW 7179   0.908   6.854   1.958 -0.1067  0.2583  0.2647
 1516SOL    HW1 7180   0.845   6.801   1.909 -0.9024  0.5897  0.9085
 1516SOL    HW2 7181   0.990   6.805   1.951 -0.7419 -0.8820  0.5410
 1517SOL     OW 7182   7.827   1.847   3.857  0.4565  0.3037  0.6040
 1517SOL    HW1 7183   7.913   1.887   3.865  1.0453 -0.3095 -2.0258
 1517SOL    HW2 7184   7.777   1.907   3.803  0.6245 -1.2794 -1.4368
 1518SOL     OW 7185   0.368   4.175   8.594  0.4635  0.2170 -0.0252
 1518SOL    HW1 7186   0.357   4.098   8.650  0.9378 -0.1612 -0.4426
 1518SOL    HW2 7187   0.463   4.188   8.591  0.3599  1.3339  0.7292
 1519SOL     OW 7188   0.439   2.727   5.504  0.0281  0.2030  0.3041
 1519SOL    HW1 7189   0.527   2.763   5.516  0.1236 -0.3684  1.4362
 1519SOL    HW2 7190   0.438   2.648   5.558 -0.7783 -0.4857 -0.6950
 1520SOL     OW 7191   7.548   8.649   8.075 -0.0075  0.1592 -0.9995
 1520SOL    HW1 7192   7.612   8.583   8.102 -0.4433 -0.3624 -1.2344
 1520SOL    HW2 7193   7.591   8.695   8.003  1.3292  1.8312  0.7715
 1521SOL     OW 7194   1.508   1.978   7.719 -0.4128  0.6485  0.5366
 1521SOL    HW1 7195   1.599   2.004   7.701 -0.4105 -0.6584 -1.6890
 1521SOL    HW2 7196   1.475   2.047   7.777  1.5619  1.9031  0.2820
 1522SOL     OW 7197   5.630   7.612   7.244 -0.1992  0.1039  0.1149
 1522SOL    HW1 7198   5.597   7.542   7.187 -1.3663 -0.7971  1.8142
 1522SOL    HW2 7199   5.616   7.692   7.193 -0.7129 -0.7047 -1.0735
 1523SOL     OW 7200   0.616   4.300   9.992  0.3165 -0.2033 -0.8042
 1523SOL    HW1 7201   0.639   4.216  10.032  0.0455  0.1707  0.1811
 1523SOL    HW2 7202   0.690   4.321   9.935  2.5718  0.9996  2.2932
 1524SOL     OW 7203   5.431   9.730   8.325  0.4270 -0.4931  0.0894
 1524SOL    HW1 7204   5.499   9.776   8.374 -0.7422  2.2547 -0.6875
 1524SOL    HW2 7205   5.421   9.646   8.370  1.0526  0.9195  3.0905
 1525SOL     OW 7206   7.233   8.915   0.318  0.5773  0.1854  0.0341
 1525SOL    HW1 7207   7.291   8.849   0.281 -0.1434 -0.9450  0.8416
 1525SOL    HW2 7208   7.215   8.884   0.406 -2.4652 -0.3781 -0.6669
 1526SOL     OW 7209   7.700   7.027   9.148 -0.3582 -0.0956  0.0694
 1526SOL    HW1 7210   7.732   6.986   9.067  1.2643  1.9512 -0.4300
 1526SOL    HW2 7211   7.752   6.987   9.217  1.2730  1.0731 -0.4170
 1527SOL     OW 7212   1.387   5.566   2.063 -0.0783  0.5039 -0.3281
 1527SOL    HW1 7213   1.307   5.520   2.090 -1.2206  0.6359 -3.1075
 1527SOL    HW2 7214   1.436   5.501   2.014  0.2021  1.1674 -0.9379
 1528SOL     OW 7215   5.134   3.277   4.285  0.5943 -0.1006  0.1716
 1528SOL    HW1 7216   5.140   3.308   4.375 -0.2759  1.1209 -0.1603
 1528SOL    HW2 7217   5.058   3.323   4.249 -0.6173 -2.4335 -0.4556
 1529SOL     OW 7218   8.683   3.615   0.433  0.0010 -0.3237  0.7698
 1529SOL    HW1 7219   8.610   3.651   0.484 -0.5784 -1.1980  0.5778
 1529SOL    HW2 7220   8.674   3.657   0.347  0.0197 -0.0598  0.8944
 1530SOL     OW 7221   6.889   8.665  10.012  0.2903 -0.2814 -0.4242
 1530SOL    HW1 7222   6.869   8.660  10.105 -0.5286  0.9593 -0.5121
 1530SOL    HW2 7223   6.809   8.698   9.971  1.2023  0.9061 -1.3316
 1531SOL     OW 7224   5.264   5.746   2.775 -0.4643 -0.1620  0.3439
 1531SOL    HW1 7225   5.212   5.786   2.844 -0.7227 -1.4324  0.9098
 1531SOL    HW2 7226   5.279   5.656   2.804 -1.1434 -0.9501 -1.5547
 1532SOL     OW 7227   0.648   6.935   5.916  0.0573  0.3085  0.5862
 1532SOL    HW1 7228   0.586   6.947   5.988 -1.7983  0.1299 -0.9091
 1532SOL    HW2 7229   0.714   6.875   5.951 -0.8214  0.1857  2.1091
 1533SOL     OW 7230   1.940   6.667   7.219  0.1725 -0.6144  0.5051
 1533SOL    HW1 7231   1.901   6.585   7.188 -1.5124  1.1669 -2.6601
 1533SOL    HW2 7232   1.878   6.701   7.283 -0.6939 -0.4594 -0.3914
 1534SOL     OW 7233   3.276   6.199   2.151 -0.3552 -0.3894 -0.2493
 1534SOL    HW1 7234   3.230   6.221   2.233 -0.8496 -0.3774 -0.5257
 1534SOL    HW2 7235   3.288   6.104   2.155  2.5968 -0.0557  1.3725
 1535SOL     OW 7236   5.084   8.379   3.292 -0.3827 -0.0894  0.1232
 1535SOL    HW1 7237   5.094   8.283   3.291  1.1670  0.0229  1.0212
 1535SOL    HW2 7238   5.141   8.409   3.222  1.0877  0.2728  1.4188
 1536SOL     OW 7239   8.788   5.650   4.138 -0.2861 -0.6446 -0.3893
 1536SOL    HW1 7240   8.772   5.717   4.071 -0.1211 -0.4282 -0.2138
 1536SOL    HW2 7241   8.867   5.605   4.108 -0.2300 -0.5678 -0.3567
 1537SOL     OW 7242   9.822  10.313   7.142  0.3701  0.2254 -0.1619
 1537SOL    HW1 7243   9.826  10.231   7.092 -1.3302  0.5065 -0.8167
 1537SOL    HW2 7244   9.914  10.334   7.160  0.8578 -1.9283  0.2224
 1538SOL     OW 7245   2.133   8.122   6.831 -0.8908 -0.3050  0.5203
 1538SOL    HW1 7246   2.164   8.033   6.847 -1.4039 -0.5211  0.3351
 1538SOL    HW2 7247   2.210   8.168   6.799 -0.2083 -0.2405  2.1732
 1539SOL     OW 7248   4.842   9.447   0.099  0.2214 -0.3768 -0.4190
 1539SOL    HW1 7249   4.860   9.357   0.073  1.4700  0.0047 -0.9551
 1539SOL    HW2 7250   4.757   9.467   0.060  0.3463 -1.0379 -1.0348
 1540SOL     OW 7251   1.814   2.972   7.043 -0.9737  0.0556  0.1241
 1540SOL    HW1 7252   1.810   2.992   7.137 -0.7504 -0.9209  0.3526
 1540SOL    HW2 7253   1.830   2.878   7.039  1.8946  0.4806 -0.8483
 1541SOL     OW 7254   0.305  10.352   8.481 -0.1547  0.0634  0.3083
 1541SOL    HW1 7255   0.230  10.315   8.527 -0.8883  0.0060 -0.9068
 1541SOL    HW2 7256   0.374  10.286   8.491 -0.1214  0.2840  1.7522
 1542SOL     OW 7257   1.049   1.749   1.317 -0.3348  0.5566 -0.3899
 1542SOL    HW1 7258   1.006   1.719   1.397 -1.0740 -0.1370 -1.0251
 1542SOL    HW2 7259   1.061   1.670   1.266  1.2458  0.8198 -0.4648
 1543SOL     OW 7260   3.160   2.441   6.663 -0.3847  0.2993  0.3861
 1543SOL    HW1 7261   3.220   2.367   6.670  0.5767  1.0873  0.8019
 1543SOL    HW2 7262   3.157   2.477   6.751 -1.5068  0.2556  0.3723
 1544SOL     OW 7263   4.909   2.536  10.066  0.1479 -0.6187  0.0163
 1544SOL    HW1 7264   4.905   2.590   9.987 -0.7409 -2.6472 -1.4171
 1544SOL    HW2 7265   4.846   2.576  10.126 -0.5748 -0.0940 -1.0546
 1545SOL     OW 7266   3.238   1.334   1.075 -0.1575  0.3027  0.0328
 1545SOL    HW1 7267   3.314   1.392   1.079  0.8805 -0.9311 -0.9452
 1545SOL    HW2 7268   3.244   1.282   1.156 -0.4776  0.8228  0.3920
 1546SOL     OW 7269   3.655   1.555   2.701 -0.0649 -0.4860 -0.7440
 1546SOL    HW1 7270   3.574   1.537   2.750 -0.1245  0.1135 -0.6182
 1546SOL    HW2 7271   3.704   1.614   2.758  0.3079 -0.5738 -0.9770
 1547SOL     OW 7272   5.463   3.360   7.950 -0.7719 -0.6211  0.0958
 1547SOL    HW1 7273   5.519   3.401   7.883  0.4040  1.5811  2.2727
 1547SOL    HW2 7274   5.518   3.293   7.990 -0.2647  0.3342  1.0415
 1548SOL     OW 7275   6.766   2.941   5.807  0.5888  0.2779  0.3781
 1548SOL    HW1 7276   6.826   2.945   5.882  1.1043 -0.3428  0.0092
 1548SOL    HW2 7277   6.780   2.854   5.770  0.2884  0.5550 -0.4033
 1549SOL     OW 7278   6.312   4.492   9.495  0.1288  0.4061  0.0301
 1549SOL    HW1 7279   6.263   4.410   9.493  1.3961 -0.3666 -1.2844
 1549SOL    HW2 7280   6.261   4.549   9.553 -0.6610 -1.3766  1.1859
 1550SOL     OW 7281   9.979   4.900   3.282  0.3939 -0.0990 -0.4116
 1550SOL    HW1 7282   9.933   4.878   3.363 -0.2898  0.3430 -0.6725
 1550SOL    HW2 7283  10.065   4.930   3.310 -0.7793  2.7882  0.3781
 1551SOL     OW 7284   1.347   9.069   6.717 -0.2170  0.0796 -0.0628
 1551SOL    HW1 7285   1.398   9.099   6.792  1.4261  0.4375 -1.2554
 1551SOL    HW2 7286   1.322   9.149   6.671 -0.6892 -0.1607 -0.2344
 1552SOL     OW 7287   3.033   4.715   1.318  0.2447  0.7704 -0.0462
 1552SOL    HW1 7288   3.030   4.665   1.237 -0.0331  1.1144 -0.2518
 1552SOL    HW2 7289   2.944   4.747   1.330 -0.9459 -2.8646  2.6949
 1553SOL     OW 7290   3.288   4.509   9.300  0.5500  0.0252 -0.4755
 1553SOL    HW1 7291   3.260   4.459   9.223  0.4314  1.2118 -1.2356
 1553SOL    HW2 7292   3.304   4.443   9.367  1.0878 -1.0822 -1.6471
 1554SOL     OW 7293   2.342   3.127   9.309 -0.4322  0.2848  0.0262
 1554SOL    HW1 7294   2.342   3.053   9.249 -0.3091  1.1407 -1.0807
 1554SOL    HW2 7295   2.295   3.196   9.261  0.4274  1.2672  0.5455
 1555SOL     OW 7296   8.031   6.144   3.525  0.1672 -0.3255 -0.5241
 1555SOL    HW1 7297   7.950   6.193   3.515 -0.6898 -1.7731 -0.8541
 1555SOL    HW2 7298   8.052   6.114   3.437  1.3036  0.3659 -0.5115
 1556SOL     OW 7299   0.127   0.375   2.603  0.2841 -0.1686 -0.6351
 1556SOL    HW1 7300   0.087   0.421   2.676  0.2413  0.0850 -0.8148
 1556SOL    HW2 7301   0.220   0.372   2.624  0.4718  1.1365 -1.2204
 1557SOL     OW 7302   1.044   4.050   0.988 -0.0807  0.6104 -0.0100
 1557SOL    HW1 7303   0.982   3.989   1.029  1.9348 -0.4893  1.5584
 1557SOL    HW2 7304   1.101   3.995   0.935 -0.2351  1.5757 -1.2392
 1558SOL     OW 7305   5.650   4.044   6.547  0.5929  0.2064  0.2433
 1558SOL    HW1 7306   5.612   4.028   6.461  0.3148  0.4622  0.3149
 1558SOL    HW2 7307   5.712   3.973   6.560 -1.5978 -1.6788  1.1621
 1559SOL     OW 7308   6.679   9.061   9.344  0.6318 -0.1328 -0.3204
 1559SOL    HW1 7309   6.635   8.988   9.299 -0.4679  0.7232 -0.6928
 1559SOL    HW2 7310   6.630   9.071   9.426  1.0602 -0.0986 -0.0675
 1560SOL     OW 7311   2.998   8.602   5.459  0.1051 -0.3499  0.2894
 1560SOL    HW1 7312   2.911   8.624   5.427 -0.4952 -0.0366  2.0347
 1560SOL    HW2 7313   2.992   8.509   5.482  0.2497 -0.3492  0.3285
 1561SOL     OW 7314  10.355   3.680   1.048  0.0107 -0.4729  0.3503
 1561SOL    HW1 7315  10.300   3.686   1.126  1.0124 -0.5174  1.0751
 1561SOL    HW2 7316  10.401   3.597   1.057  1.7236  0.4804  0.8095
 1562SOL     OW 7317   3.150   5.623   5.304 -0.0906 -0.2097 -0.0854
 1562SOL    HW1 7318   3.070   5.571   5.298  1.4495 -2.8510  0.4581
 1562SOL    HW2 7319   3.213   5.565   5.348  2.2004  1.6461 -0.7075
 1563SOL     OW 7320   8.526   3.804   5.820  0.2947 -0.0678 -0.5534
 1563SOL    HW1 7321   8.545   3.880   5.875 -0.9205  0.1636 -0.4357
 1563SOL    HW2 7322   8.610   3.757   5.815  0.7178  0.5407  0.4954
 1564SOL     OW 7323   1.643   8.618   7.956 -0.4491 -0.2168  0.1688
 1564SOL    HW1 7324   1.613   8.664   8.034 -0.4863 -0.2879  0.1959
 1564SOL    HW2 7325   1.739   8.625   7.959 -0.1525 -3.2055  2.0970
 1565SOL     OW 7326   4.060   6.540   9.501 -0.0013 -0.0211 -0.3117
 1565SOL    HW1 7327   4.095   6.452   9.490 -0.2510  0.0240 -1.6120
 1565SOL    HW2 7328   3.965   6.529   9.496 -0.2151 -0.0231  2.3090
 1566SOL     OW 7329   8.399   0.530   8.309 -0.3666 -0.3933 -0.9893
 1566SOL    HW1 7330   8.352   0.610   8.287  2.4203  1.6421 -0.1578
 1566SOL    HW2 7331   8.415   0.536   8.404  0.5609 -1.5469 -1.0416
 1567SOL     OW 7332   4.574   8.749   7.996  0.1081  0.3547  0.3082
 1567SOL    HW1 7333   4.633   8.816   7.962 -0.9660 -0.1837 -2.8877
 1567SOL    HW2 7334   4.610   8.666   7.966 -0.3380 -0.2837  1.4422
 1568SOL     OW 7335   1.006   6.474   8.120  0.2655 -0.1789  0.2089
 1568SOL    HW1 7336   1.018   6.404   8.055  0.0440  0.0177 -0.0446
 1568SOL    HW2 7337   0.965   6.431   8.194 -1.5203  0.0124 -0.6142
 1569SOL     OW 7338   0.622   1.204   0.262  0.1431 -0.3270  0.1528
 1569SOL    HW1 7339   0.621   1.140   0.333  0.0056  1.5905  1.9558
 1569SOL    HW2 7340   0.624   1.150   0.182 -0.8262 -2.5647  1.5325
 1570SOL     OW 7341   0.202   3.253   6.146  0.2028 -0.4660  0.2388
 1570SOL    HW1 7342   0.139   3.318   6.177  0.9072  0.5316 -0.3454
 1570SOL    HW2 7343   0.149   3.181   6.114 -0.5756 -0.8330  2.2295
 1571SOL     OW 7344   9.456   9.585  10.120  0.4232 -0.8215 -0.0753
 1571SOL    HW1 7345   9.441   9.588  10.025 -0.1632 -1.3908 -0.0138
 1571SOL    HW2 7346   9.473   9.675  10.145 -0.3938 -0.5141 -0.5771
 1572SOL     OW 7347   9.179   7.862   3.519  0.0727  0.2949 -0.0717
 1572SOL    HW1 7348   9.144   7.773   3.526 -1.0641  0.8556  2.1068
 1572SOL    HW2 7349   9.102   7.919   3.519  0.7800  1.4910  3.2599
 1573SOL     OW 7350   7.187   6.230   6.664  0.1292 -0.4652 -0.2059
 1573SOL    HW1 7351   7.114   6.174   6.691  0.4684 -0.5723  0.5285
 1573SOL    HW2 7352   7.145   6.307   6.624 -0.4158 -0.2001  0.8408
 1574SOL     OW 7353   0.454   3.705   3.361 -0.3662  0.1466  0.0957
 1574SOL    HW1 7354   0.366   3.716   3.326  0.0906  2.4400 -0.4882
 1574SOL    HW2 7355   0.510   3.692   3.284 -0.0139  0.0066  0.3677
 1575SOL     OW 7356   6.440   7.694   8.621  0.2202 -0.8783  0.3483
 1575SOL    HW1 7357   6.362   7.730   8.579  0.8578 -0.0106 -0.1471
 1575SOL    HW2 7358   6.509   7.758   8.602  1.2947 -2.1120 -0.1151
 1576SOL     OW 7359   8.124   1.392   0.157 -0.3754 -0.1881  0.4170
 1576SOL    HW1 7360   8.176   1.431   0.227 -1.4310  1.4885  0.3273
 1576SOL    HW2 7361   8.084   1.467   0.112 -0.7093 -1.2813 -1.2119
 1577SOL     OW 7362   7.742   2.534   4.149 -0.0707 -0.9050 -0.4544
 1577SOL    HW1 7363   7.789   2.613   4.175 -1.1912 -0.5207  0.4752
 1577SOL    HW2 7364   7.754   2.529   4.054  0.3278  0.1680 -0.4753
 1578SOL     OW 7365  10.172   9.645   3.992 -0.0431 -0.1058 -0.3130
 1578SOL    HW1 7366  10.133   9.590   4.059  1.4030 -0.7612  0.0257
 1578SOL    HW2 7367  10.103   9.708   3.969 -0.4253  0.4464  2.1118
 1579SOL     OW 7368   3.288   8.452   3.801  0.4069  0.4052  0.3487
 1579SOL    HW1 7369   3.316   8.522   3.743 -2.2730 -0.8013 -2.7287
 1579SOL    HW2 7370   3.365   8.432   3.854  2.4368  2.9840 -1.3709
 1580SOL     OW 7371   6.562   0.728   3.520  0.4842 -0.1017  0.6867
 1580SOL    HW1 7372   6.528   0.749   3.607  1.1087  0.4780  0.8017
 1580SOL    HW2 7373   6.656   0.747   3.527  0.5589 -0.1908 -0.0711
 1581SOL     OW 7374   6.059   7.915   6.405 -0.0180 -0.0544  0.0769
 1581SOL    HW1 7375   6.047   8.010   6.408 -0.3489 -0.0986  0.1941
 1581SOL    HW2 7376   6.122   7.901   6.334 -2.1227  0.0419 -1.9304
 1582SOL     OW 7377   2.167   1.390   1.647  0.0527  0.3279  0.4849
 1582SOL    HW1 7378   2.174   1.469   1.702 -2.0583 -0.3550  1.8292
 1582SOL    HW2 7379   2.171   1.317   1.709  0.4566 -0.5948 -0.5923
 1583SOL     OW 7380   0.415   2.127   5.750 -0.8437 -0.2157  0.5165
 1583SOL    HW1 7381   0.340   2.124   5.808 -0.8013 -0.0325  0.5811
 1583SOL    HW2 7382   0.452   2.215   5.762 -2.2546  0.7481 -1.5705
 1584SOL     OW 7383   3.934   6.537   2.861 -0.4438  0.4782  0.6189
 1584SOL    HW1 7384   3.869   6.559   2.927  0.4507  2.0322  1.0236
 1584SOL    HW2 7385   3.993   6.613   2.858  0.5697 -0.3071 -0.6903
 1585SOL     OW 7386   5.220   8.372   9.271 -0.5192 -0.0895  0.0143
 1585SOL    HW1 7387   5.197   8.404   9.358  0.8298  1.1436 -0.0456
 1585SOL    HW2 7388   5.144   8.319   9.244 -1.9057  1.3055  1.0185
 1586SOL     OW 7389   8.791   4.753   3.060  0.9784  0.1607 -0.2248
 1586SOL    HW1 7390   8.767   4.845   3.050  2.4385  0.4722 -1.2267
 1586SOL    HW2 7391   8.737   4.722   3.133 -0.8902  1.2986 -1.0460
 1587SOL     OW 7392   3.020   2.166   9.581 -0.2617  0.1970 -0.3909
 1587SOL    HW1 7393   3.024   2.106   9.655  0.0344  0.5272 -0.1338
 1587SOL    HW2 7394   3.008   2.110   9.505  1.0369 -0.2643 -0.2759
 1588SOL     OW 7395   8.231   2.907   6.187  0.2990 -0.0821 -0.1926
 1588SOL    HW1 7396   8.138   2.927   6.183  0.7166  1.9254 -1.0586
 1588SOL    HW2 7397   8.275   2.989   6.163  2.2448 -1.6854 -2.6814
 1589SOL     OW 7398   6.177   0.722   7.623 -0.4328 -0.0679 -0.3911
 1589SOL    HW1 7399   6.148   0.631   7.628  0.2277 -0.2856 -0.5189
 1589SOL    HW2 7400   6.170   0.754   7.713 -1.5511  0.0378 -0.5009
 1590SOL     OW 7401   2.081   1.446   3.565 -0.0549  0.2504  0.0777
 1590SOL    HW1 7402   2.070   1.541   3.565 -0.1352  0.2584  1.7907
 1590SOL    HW2 7403   2.158   1.430   3.620  1.2622 -0.5768 -1.8808
 1591SOL     OW 7404   8.009   2.957   8.320  0.2219 -0.3348 -0.0701
 1591SOL    HW1 7405   7.916   2.963   8.338  0.3993  0.4844  0.6436
 1591SOL    HW2 7406   8.023   3.019   8.248  0.5308  1.0671  1.1611
 1592SOL     OW 7407   4.982   1.249   5.859  0.3081 -0.1379 -0.2486
 1592SOL    HW1 7408   5.052   1.248   5.793  1.8100 -1.2989  1.2787
 1592SOL    HW2 7409   4.906   1.213   5.813  1.4945 -1.5861 -1.1800
 1593SOL     OW 7410   0.135   0.047   3.698  1.2005  0.1091  0.1164
 1593SOL    HW1 7411   0.071   0.115   3.676 -0.0149 -1.1713 -0.4034
 1593SOL    HW2 7412   0.174   0.078   3.780 -0.0110  0.9753  0.3984
 1594SOL     OW 7413   9.685   8.506   0.547 -0.1531  0.4795 -0.6463
 1594SOL    HW1 7414   9.629   8.430   0.533 -0.0858  0.5222 -1.1864
 1594SOL    HW2 7415   9.678   8.524   0.640  1.8260 -1.7185  0.0151
 1595SOL     OW 7416   8.353   2.769   3.693 -0.3769 -0.0125  0.2690
 1595SOL    HW1 7417   8.345   2.776   3.598  0.6345 -0.5330  0.1228
 1595SOL    HW2 7418   8.428   2.711   3.706  1.0672  1.9880  1.3879
 1596SOL     OW 7419   9.718   9.378   0.393  0.1825  0.6529 -0.4498
 1596SOL    HW1 7420   9.794   9.434   0.380 -0.8310  1.5722 -3.1748
 1596SOL    HW2 7421   9.745   9.293   0.357  1.3443 -0.4643  2.6975
 1597SOL     OW 7422   0.535   7.480   6.429 -0.0885 -0.4001 -0.2244
 1597SOL    HW1 7423   0.452   7.526   6.415  0.0288 -0.7067 -2.0415
 1597SOL    HW2 7424   0.588   7.502   6.353  1.5369 -0.1851  0.9301
 1598SOL     OW 7425   6.758   3.119   7.046  0.3228 -0.1333  0.1276
 1598SOL    HW1 7426   6.713   3.151   7.124  1.8745  1.4106  0.4640
 1598SOL    HW2 7427   6.688   3.086   6.989 -1.0569  0.8386  1.1998
 1599SOL     OW 7428   1.529   4.215   4.893  0.3367 -0.8137 -0.2682
 1599SOL    HW1 7429   1.477   4.281   4.939  2.1258  0.9381 -0.6150
 1599SOL    HW2 7430   1.513   4.232   4.800  0.1804 -1.4325 -0.3620
 1600SOL     OW 7431   5.992   4.762   0.626 -0.4433  0.4862 -0.0885
 1600SOL    HW1 7432   5.995   4.825   0.698  0.6144 -1.3351  1.5611
 1600SOL    HW2 7433   6.067   4.704   0.641  0.7056  0.8506 -3.4937
 1601SOL     OW 7434  10.132   4.872   4.190  0.1910  0.4546  0.1052
 1601SOL    HW1 7435  10.105   4.921   4.113 -0.1613  0.7660  0.4237
 1601SOL    HW2 7436  10.226   4.857   4.178 -0.1593 -1.0249 -1.2392
 1602SOL     OW 7437   8.208  10.129   8.314  0.3218 -0.3396  0.4625
 1602SOL    HW1 7438   8.190  10.198   8.378 -1.8724 -0.3531 -0.0755
 1602SOL    HW2 7439   8.142  10.140   8.246  2.1345 -0.7826 -1.4885
 1603SOL     OW 7440   3.054   7.954   1.973 -0.3432  0.0207 -0.1267
 1603SOL    HW1 7441   3.028   7.923   1.886  0.7907 -2.2527  0.2779
 1603SOL    HW2 7442   3.105   7.882   2.010 -0.4696  1.0906  2.2944
 1604SOL     OW 7443   0.607   7.755   1.415 -0.2536  0.7837  0.2357
 1604SOL    HW1 7444   0.675   7.729   1.353 -0.2899  3.1253 -0.9114
 1604SOL    HW2 7445   0.540   7.687   1.407  1.0799 -0.5445 -0.0353
 1605SOL     OW 7446   2.672   2.712   0.528  0.0999  0.1459  0.4847
 1605SOL    HW1 7447   2.669   2.741   0.619 -0.1602  0.1395  0.4787
 1605SOL    HW2 7448   2.629   2.782   0.479 -0.0259  0.0119  0.4031
 1606SOL     OW 7449   1.908   3.911   8.536  0.2473  0.1490  0.1172
 1606SOL    HW1 7450   1.932   3.851   8.465 -0.8673 -0.2322  0.0348
 1606SOL    HW2 7451   1.982   3.906   8.597  0.6763 -0.4565 -0.4259
 1607SOL     OW 7452   9.988   1.435   1.280  0.0254 -0.8175 -0.2291
 1607SOL    HW1 7453   9.897   1.405   1.274 -0.1923 -0.3464  0.5735
 1607SOL    HW2 7454  10.029   1.377   1.344 -0.2036  0.0768  0.7703
 1608SOL     OW 7455   8.598   0.329   7.214  0.0195  0.0301 -0.2627
 1608SOL    HW1 7456   8.532   0.354   7.278  0.5688  1.1839 -0.1282
 1608SOL    HW2 7457   8.549   0.320   7.132 -0.4078  0.1950 -0.0290
 1609SOL     OW 7458  10.170   2.364   8.207 -0.1545  0.3953 -0.1703
 1609SOL    HW1 7459  10.077   2.377   8.223 -0.3432  1.0085 -1.5886
 1609SOL    HW2 7460  10.177   2.272   8.181 -0.5674  0.6600 -1.2620
 1610SOL     OW 7461   9.955   3.722   1.410 -0.2394  0.1555 -0.1560
 1610SOL    HW1 7462   9.956   3.735   1.505  1.3491 -1.8975  0.1833
 1610SOL    HW2 7463   9.864   3.701   1.390 -0.4665 -0.0721  1.0372
 1611SOL     OW 7464   9.918   3.761   2.839  0.2639  0.0470 -0.1827
 1611SOL    HW1 7465   9.996   3.756   2.783  0.7503 -0.8143  0.5616
 1611SOL    HW2 7466   9.849   3.721   2.787  0.0886  1.5741 -1.1932
 1612SOL     OW 7467   0.292   4.889   2.000  0.3578  0.3243 -0.0831
 1612SOL    HW1 7468   0.244   4.830   2.058  2.1441 -0.7148  0.4072
 1612SOL    HW2 7469   0.325   4.958   2.057 -1.2667  1.5771 -0.5701
 1613SOL     OW 7470   1.683   5.329   2.210  0.2405  0.1614  0.0549
 1613SOL    HW1 7471   1.690   5.281   2.293  2.2584  0.0159 -0.1441
 1613SOL    HW2 7472   1.694   5.262   2.142 -1.5819  0.2493 -0.3799
 1614SOL     OW 7473   4.579   6.346   8.840 -0.4041 -0.0152  0.1929
 1614SOL    HW1 7474   4.629   6.335   8.922 -1.6532 -2.3372  0.7223
 1614SOL    HW2 7475   4.595   6.265   8.791 -2.7992 -0.3943 -0.0564
 1615SOL     OW 7476   3.118   4.468   9.886 -0.0973 -0.0421 -0.4133
 1615SOL    HW1 7477   3.105   4.378   9.858 -1.2070 -0.4842  1.3526
 1615SOL    HW2 7478   3.056   4.519   9.834  0.3261 -0.3146 -1.2021
 1616SOL     OW 7479   4.559   5.524   1.838  0.8259 -0.2838  0.1018
 1616SOL    HW1 7480   4.632   5.466   1.818  1.5808  0.2655  1.2264
 1616SOL    HW2 7481   4.545   5.514   1.932  0.4693  0.7830  0.1697
 1617SOL     OW 7482   1.850   6.467   1.736  0.7157  0.2528 -0.3792
 1617SOL    HW1 7483   1.864   6.378   1.769 -2.1231 -0.4249 -0.7218
 1617SOL    HW2 7484   1.894   6.524   1.799  1.5223 -1.3192  0.5275
 1618SOL     OW 7485   6.455   6.941   1.649 -0.3038 -0.1636 -0.1771
 1618SOL    HW1 7486   6.523   6.877   1.670 -1.2179 -0.9940  0.2945
 1618SOL    HW2 7487   6.503   7.024   1.640  0.8704 -0.8656 -0.6282
 1619SOL     OW 7488   8.631   2.015   0.775  1.0243 -0.6042  0.3042
 1619SOL    HW1 7489   8.642   2.103   0.740 -1.9198 -0.3349 -0.1679
 1619SOL    HW2 7490   8.720   1.983   0.788  2.2376  2.9325  1.8562
 1620SOL     OW 7491   9.968   0.634   2.504  0.4428 -0.3372 -0.0932
 1620SOL    HW1 7492  10.053   0.662   2.536 -0.5792  1.0322  1.6192
 1620SOL    HW2 7493   9.953   0.685   2.425 -0.1247  1.9607  1.3938
 1621SOL     OW 7494   7.932   4.289   3.579  0.5170 -0.5918 -0.1227
 1621SOL    HW1 7495   7.965   4.365   3.625  0.9147 -0.0112 -1.3241
 1621SOL    HW2 7496   7.978   4.215   3.619 -0.2886 -0.2818  1.4270
 1622SOL     OW 7497   3.990   6.900   6.790 -0.4916  0.0713  0.0999
 1622SOL    HW1 7498   3.921   6.966   6.804  0.5513  1.0394  0.8775
 1622SOL    HW2 7499   3.980   6.875   6.699  0.1551  2.6301 -0.7577
 1623SOL     OW 7500   1.928   2.815   5.391 -0.6180  0.0733 -0.3464
 1623SOL    HW1 7501   1.846   2.850   5.426  0.5168  1.0562  1.4903
 1623SOL    HW2 7502   1.970   2.891   5.349  0.4154  0.2132  0.8687
 1624SOL     OW 7503   3.900   8.413   6.034 -0.0628  0.6634 -0.7033
 1624SOL    HW1 7504   3.864   8.490   6.078 -0.1370  1.0487 -1.4094
 1624SOL    HW2 7505   3.839   8.342   6.054  0.6812  0.4746  0.9988
 1625SOL     OW 7506   8.011   9.631  10.317  0.1694 -0.2708 -0.9334
 1625SOL    HW1 7507   7.943   9.641  10.384  0.2265 -2.4331 -0.4687
 1625SOL    HW2 7508   7.970   9.659  10.236 -0.3104  1.2050 -0.2099
 1626SOL     OW 7509   7.004   7.135   7.017  0.3488  0.4709 -0.0694
 1626SOL    HW1 7510   6.973   7.158   7.104  0.3939 -0.0014  0.0765
 1626SOL    HW2 7511   6.979   7.043   7.007  1.2112  0.2390 -0.1681
 1627SOL     OW 7512   4.707   9.067   0.034  0.7210 -0.7944  0.5025
 1627SOL    HW1 7513   4.640   9.082   0.101 -0.6513  0.3517 -1.0363
 1627SOL    HW2 7514   4.779   9.124   0.060 -0.7347  1.5133 -0.1929
 1628SOL     OW 7515   0.932   1.128   4.095  0.3538 -0.3646  0.2778
 1628SOL    HW1 7516   0.990   1.151   4.023  1.5797  1.1413  1.6789
 1628SOL    HW2 7517   0.844   1.140   4.059  0.8915 -0.7548 -1.2836
 1629SOL     OW 7518   8.591   9.380   7.134  0.2969 -0.0713  0.3327
 1629SOL    HW1 7519   8.618   9.290   7.116 -1.2770 -0.3243 -1.0468
 1629SOL    HW2 7520   8.614   9.428   7.055 -0.3546  0.3722  0.4048
 1630SOL     OW 7521   2.439   1.953   2.556 -0.3300 -0.4227  0.1114
 1630SOL    HW1 7522   2.355   1.914   2.534 -0.7153 -0.6969  1.9590
 1630SOL    HW2 7523   2.421   2.047   2.564  0.0703 -0.1301 -1.7780
 1631SOL     OW 7524   4.372   3.107   1.403  0.1688  0.2381 -0.7903
 1631SOL    HW1 7525   4.397   3.069   1.319 -0.6225 -1.3614 -0.3302
 1631SOL    HW2 7526   4.340   3.033   1.455  2.2350  0.8679  1.5593
 1632SOL     OW 7527   3.941   1.197  10.249 -0.0902 -0.1611  0.4476
 1632SOL    HW1 7528   3.916   1.284  10.280  0.3068 -0.2677  1.0836
 1632SOL    HW2 7529   3.949   1.206  10.154  2.5377  1.1815  0.7091
 1633SOL     OW 7530   6.470   9.845   3.872  0.1217  0.2715  0.2994
 1633SOL    HW1 7531   6.533   9.917   3.880 -0.4889  0.9073 -0.3763
 1633SOL    HW2 7532   6.462   9.831   3.777 -0.8229  0.2771  0.3729
 1634SOL     OW 7533   3.442  10.292   4.605  0.3905 -0.6823  0.4838
 1634SOL    HW1 7534   3.392  10.210   4.607 -0.5165 -0.1260  0.9557
 1634SOL    HW2 7535   3.421  10.330   4.520 -0.7117 -0.0203  1.0349
 1635SOL     OW 7536   9.508   2.562   8.864 -0.1346  0.4318  0.0218
 1635SOL    HW1 7537   9.527   2.560   8.770 -0.0267  0.9439  0.0286
 1635SOL    HW2 7538   9.520   2.654   8.888  1.2118  0.0635  0.8258
 1636SOL     OW 7539   8.082   0.922   3.729  0.8149 -0.1125 -0.6743
 1636SOL    HW1 7540   8.023   0.856   3.691  0.8584 -0.7231  0.2687
 1636SOL    HW2 7541   8.122   0.965   3.654 -0.5227  0.0274 -1.3364
 1637SOL     OW 7542   0.706   4.133   0.503  0.0885 -0.0478 -0.1076
 1637SOL    HW1 7543   0.711   4.079   0.581  1.2145  0.2687  0.0628
 1637SOL    HW2 7544   0.793   4.174   0.496 -0.0744  0.1404 -1.3611
 1638SOL     OW 7545   8.110   6.838   4.343 -0.2009  0.7696  0.6551
 1638SOL    HW1 7546   8.197   6.836   4.384  0.6476 -2.8281 -0.8395
 1638SOL    HW2 7547   8.124   6.878   4.257  0.1686 -0.2034  0.2377
 1639SOL     OW 7548   3.025   1.362   0.171  0.1040 -0.4661  0.2739
 1639SOL    HW1 7549   3.056   1.448   0.142 -0.4807 -0.5189 -0.5645
 1639SOL    HW2 7550   2.930   1.370   0.170  0.0165 -1.4411 -0.8584
 1640SOL     OW 7551   2.149   6.132   9.514  0.7343 -0.1685  0.4713
 1640SOL    HW1 7552   2.158   6.080   9.593  0.8305 -1.4457 -0.3508
 1640SOL    HW2 7553   2.057   6.157   9.510  0.8478  0.4165  1.2773
 1641SOL     OW 7554   8.666   3.153   7.789 -0.3740 -0.4900  0.1523
 1641SOL    HW1 7555   8.697   3.140   7.879  0.5466 -1.1176 -0.2382
 1641SOL    HW2 7556   8.622   3.071   7.767  3.3976 -2.3177 -1.5052
 1642SOL     OW 7557   6.685   4.248   0.667 -0.2486 -0.0867  0.7409
 1642SOL    HW1 7558   6.685   4.185   0.595 -0.1022 -0.9944  1.5142
 1642SOL    HW2 7559   6.778   4.265   0.685 -0.2804  0.0384  0.7848
 1643SOL     OW 7560   6.063   1.016   0.428 -0.3830  0.3547  0.6018
 1643SOL    HW1 7561   5.991   0.970   0.384  0.8740  0.7770 -2.1066
 1643SOL    HW2 7562   6.140   0.964   0.407  0.3786  0.9958  1.7557
 1644SOL     OW 7563   0.912   7.924  10.294  0.3541  0.6070 -0.4718
 1644SOL    HW1 7564   0.920   8.018  10.278 -0.6280  0.7336 -0.3067
 1644SOL    HW2 7565   0.821   7.904  10.271  0.7367 -0.4341 -1.1502
 1645SOL     OW 7566   0.244   3.747   5.448 -0.3971 -0.1679  0.1932
 1645SOL    HW1 7567   0.292   3.698   5.515 -0.7699 -0.0543  0.5495
 1645SOL    HW2 7568   0.312   3.792   5.398 -0.1705  0.7750  1.3063
 1646SOL     OW 7569   5.679   2.392   8.466 -0.1666  0.3513 -0.0319
 1646SOL    HW1 7570   5.667   2.475   8.512  0.2869  0.5216 -0.2121
 1646SOL    HW2 7571   5.721   2.417   8.383  1.3481 -0.1897  0.5452
 1647SOL     OW 7572   7.943   3.745   5.806  0.3711  0.0687  0.0913
 1647SOL    HW1 7573   7.940   3.650   5.797 -0.8306  0.1445 -0.5308
 1647SOL    HW2 7574   8.022   3.771   5.758 -0.2291 -0.4775 -1.2362
 1648SOL     OW 7575   7.762   4.787   8.143  0.0629 -0.5552 -0.5175
 1648SOL    HW1 7576   7.843   4.816   8.103 -0.1472  4.0759  1.7979
 1648SOL    HW2 7577   7.693   4.833   8.096 -0.8119 -0.9045  0.3651
 1649SOL     OW 7578   5.132   0.156   8.857  0.4237  0.0133 -0.6841
 1649SOL    HW1 7579   5.191   0.107   8.801  1.8431  0.4986  0.3277
 1649SOL    HW2 7580   5.163   0.139   8.946  0.1446  1.6713 -0.2273
 1650SOL     OW 7581   9.145   9.063   1.244 -0.1206 -0.5536 -0.4189
 1650SOL    HW1 7582   9.098   9.128   1.298 -0.4695 -2.0940  1.2626
 1650SOL    HW2 7583   9.182   9.113   1.172  1.0832  1.8135  1.7079
 1651SOL     OW 7584   8.439   1.975   3.037  0.2870  0.1591  0.0802
 1651SOL    HW1 7585   8.484   1.974   2.952 -0.3177 -1.7491 -0.2694
 1651SOL    HW2 7586   8.409   1.885   3.049 -0.7385  0.6812  1.7498
 1652SOL     OW 7587   1.377   6.079   3.160  0.2131  0.2287  0.1710
 1652SOL    HW1 7588   1.295   6.055   3.203 -0.4557  0.0060 -1.1994
 1652SOL    HW2 7589   1.362   6.064   3.067  2.4209 -1.6775  0.0154
 1653SOL     OW 7590   3.245   8.183   2.751  0.8918 -0.5740  0.1238
 1653SOL    HW1 7591   3.220   8.155   2.663 -0.9038 -0.2472  0.4992
 1653SOL    HW2 7592   3.171   8.157   2.806  0.9827  1.2408  1.1666
 1654SOL     OW 7593   8.390   9.515   1.546  0.2429  0.8045 -0.6074
 1654SOL    HW1 7594   8.308   9.525   1.498  0.4291 -0.6610 -1.2763
 1654SOL    HW2 7595   8.457   9.505   1.479  0.9141  1.4832 -0.0598
 1655SOL     OW 7596   5.576   9.847   0.571  0.1943 -0.1050  0.3172
 1655SOL    HW1 7597   5.568   9.770   0.515 -1.7708  0.4399 -0.2196
 1655SOL    HW2 7598   5.664   9.881   0.552  0.1325 -0.7794 -1.3413
 1656SOL     OW 7599   7.238   8.083   9.761  0.2032  0.3057 -0.2334
 1656SOL    HW1 7600   7.248   8.124   9.847 -0.8873  1.0334 -0.4376
 1656SOL    HW2 7601   7.162   8.026   9.771  0.6011 -0.2829 -0.4845
 1657SOL     OW 7602   5.187   2.687   3.114 -0.0672 -0.4534  0.3423
 1657SOL    HW1 7603   5.245   2.759   3.138  0.5405 -0.0463 -2.1018
 1657SOL    HW2 7604   5.120   2.727   3.059 -1.0410 -1.4161  0.7790
 1658SOL     OW 7605   0.305   2.277   2.353  0.1152 -0.1407 -0.5705
 1658SOL    HW1 7606   0.341   2.227   2.426  0.0095  1.2310  0.4584
 1658SOL    HW2 7607   0.264   2.211   2.297 -1.9398 -1.0348  1.8228
 1659SOL     OW 7608   2.343   2.928   3.528  0.1886  0.5838  0.0802
 1659SOL    HW1 7609   2.303   2.907   3.443 -0.6361  0.9708  0.3636
 1659SOL    HW2 7610   2.413   2.863   3.537 -0.5263 -0.2775 -0.3292
 1660SOL     OW 7611   5.088   0.312   5.248  0.4393 -0.4767  0.5476
 1660SOL    HW1 7612   5.129   0.228   5.268 -0.4586 -0.7213  1.4662
 1660SOL    HW2 7613   5.090   0.360   5.332 -0.9411 -0.4220  0.5754
 1661SOL     OW 7614   7.120   9.210   2.330  0.4144 -0.2138  0.1900
 1661SOL    HW1 7615   7.185   9.155   2.374 -0.3457 -0.6850  0.7734
 1661SOL    HW2 7616   7.116   9.289   2.384 -0.8850 -1.0014  1.3330
 1662SOL     OW 7617   3.599   7.752   2.867 -0.5193  0.4240 -0.1243
 1662SOL    HW1 7618   3.534   7.683   2.852  0.6946 -0.5924 -0.9619
 1662SOL    HW2 7619   3.617   7.788   2.779  2.7249 -1.9013 -0.6280
 1663SOL     OW 7620   1.522   8.036   9.658 -0.0636  0.1350  0.0400
 1663SOL    HW1 7621   1.431   8.010   9.648 -0.0433  0.3671 -0.9400
 1663SOL    HW2 7622   1.572   7.967   9.613  0.2012  0.3042  0.0686
 1664SOL     OW 7623   7.709   5.350   4.620 -0.4566 -0.3130 -0.0686
 1664SOL    HW1 7624   7.684   5.360   4.712 -1.5232 -2.1617 -0.1314
 1664SOL    HW2 7625   7.805   5.350   4.622 -0.3824  2.4608  0.6727
 1665SOL     OW 7626   4.521   9.888   6.945  0.0182 -0.5515  0.0642
 1665SOL    HW1 7627   4.581   9.925   7.010 -0.5570 -0.6759  0.6746
 1665SOL    HW2 7628   4.576   9.875   6.867  0.5293  0.3735  0.2464
 1666SOL     OW 7629   3.333   5.122   3.631  0.4453  0.7640  0.1468
 1666SOL    HW1 7630   3.345   5.082   3.717 -0.1248  1.1754  0.4223
 1666SOL    HW2 7631   3.422   5.141   3.601  0.6115  1.4318  1.0326
 1667SOL     OW 7632   7.434   4.214   4.446  0.1905  0.7039 -0.3643
 1667SOL    HW1 7633   7.431   4.309   4.434 -1.0853  0.5748 -1.2965
 1667SOL    HW2 7634   7.527   4.194   4.452  0.5325  1.9140 -1.0885
 1668SOL     OW 7635   8.841   6.402   3.621 -0.0663  0.3839  0.0880
 1668SOL    HW1 7636   8.753   6.413   3.656 -1.6387 -3.2975 -2.0912
 1668SOL    HW2 7637   8.833   6.421   3.527  1.4197 -0.0821 -0.1701
 1669SOL     OW 7638   6.343   6.703   2.566 -0.2643 -0.0243  0.4064
 1669SOL    HW1 7639   6.327   6.617   2.606 -1.0422 -0.5909 -1.0610
 1669SOL    HW2 7640   6.270   6.757   2.597 -0.7336 -0.3933 -0.0311
 1670SOL     OW 7641   5.505   2.665   9.073  0.5467  0.2526  0.3061
 1670SOL    HW1 7642   5.590   2.640   9.108  1.1748  1.8630  0.0143
 1670SOL    HW2 7643   5.504   2.761   9.077 -1.1965  0.2826  0.1700
 1671SOL     OW 7644   0.486   4.599   2.940 -0.0057 -0.4924  0.1212
 1671SOL    HW1 7645   0.435   4.659   2.885  2.1961  1.6128  0.1587
 1671SOL    HW2 7646   0.541   4.551   2.878  2.3618  1.7679  0.2748
 1672SOL     OW 7647   4.349   6.116   0.451 -0.0392  0.1288  0.4857
 1672SOL    HW1 7648   4.370   6.139   0.541 -2.4013  3.0641  0.4482
 1672SOL    HW2 7649   4.401   6.177   0.399  0.2513 -0.6023 -0.1011
 1673SOL     OW 7650   6.486   0.810   9.744  0.2272  0.1691  0.0761
 1673SOL    HW1 7651   6.401   0.815   9.787 -0.4832  0.8344 -1.3206
 1673SOL    HW2 7652   6.522   0.899   9.752  0.6384 -0.0184  0.3522
 1674SOL     OW 7653   3.975   1.160   9.743  0.1752  0.5941  0.1307
 1674SOL    HW1 7654   4.065   1.159   9.775 -0.3852  0.7036  1.7762
 1674SOL    HW2 7655   3.983   1.174   9.648  1.8660  0.7806  0.2830
 1675SOL     OW 7656   8.723   5.066   3.379 -0.2048 -0.7290  0.1184
 1675SOL    HW1 7657   8.724   5.053   3.474  1.6159 -1.1507  0.0954
 1675SOL    HW2 7658   8.641   5.027   3.350 -1.0188 -0.1798  1.5555
 1676SOL     OW 7659   8.325   5.037   3.519  0.2967  0.2882 -0.2434
 1676SOL    HW1 7660   8.389   5.085   3.571 -0.4297  1.6799 -0.5790
 1676SOL    HW2 7661   8.377   4.995   3.450  0.8729  1.2928 -0.4426
 1677SOL     OW 7662   0.917   8.320   5.246 -0.0266  0.1599 -0.1499
 1677SOL    HW1 7663   0.894   8.284   5.160 -0.8674 -1.8519  0.8546
 1677SOL    HW2 7664   0.887   8.254   5.308 -0.0086  1.8484  1.7458
 1678SOL     OW 7665   5.232   2.202   7.218 -0.5431  0.1462  0.0624
 1678SOL    HW1 7666   5.275   2.166   7.140  0.5511  0.6139  0.4369
 1678SOL    HW2 7667   5.155   2.248   7.183 -0.8165 -0.7944 -0.6043
 1679SOL     OW 7668   4.104   0.930  10.218  0.3317 -0.0123 -0.0765
 1679SOL    HW1 7669   4.059   1.013  10.204 -2.3054 -0.9322  2.1381
 1679SOL    HW2 7670   4.125   0.929  10.311  1.6201 -1.2522 -0.3423
 1680SOL     OW 7671   0.336   0.785   6.936  0.2066 -0.5126 -0.0805
 1680SOL    HW1 7672   0.417   0.792   6.986  1.8127 -1.6261 -2.3258
 1680SOL    HW2 7673   0.343   0.853   6.869 -1.3161  0.1696  0.4153
 1681SOL     OW 7674   5.327   1.551   2.034  0.7021  0.0128  0.3892
 1681SOL    HW1 7675   5.379   1.494   1.977  0.3352 -0.8201  0.8542
 1681SOL    HW2 7676   5.295   1.620   1.977  0.7944 -0.5024 -0.2969
 1682SOL     OW 7677   0.749   1.011   2.734  0.2591 -0.0467  0.6164
 1682SOL    HW1 7678   0.670   0.991   2.684  0.6236 -1.4266  0.5642
 1682SOL    HW2 7679   0.767   1.103   2.713  1.0825 -0.8417 -2.8383
 1683SOL     OW 7680   4.444  10.145   0.775 -0.1741  0.4286  0.2558
 1683SOL    HW1 7681   4.360  10.136   0.821 -0.5107  1.2368 -0.1834
 1683SOL    HW2 7682   4.432  10.093   0.695 -0.7485  1.6007 -0.4457
 1684SOL     OW 7683   3.102   7.641   6.606  0.5570  0.7628  0.1238
 1684SOL    HW1 7684   3.119   7.684   6.690  2.3778 -0.4094  0.4116
 1684SOL    HW2 7685   3.070   7.554   6.630  0.0387  0.7947 -0.4203
 1685SOL     OW 7686   8.718   2.763   6.954 -0.0850  0.0255 -0.6372
 1685SOL    HW1 7687   8.656   2.758   7.027  0.9342 -1.2216  0.1789
 1685SOL    HW2 7688   8.712   2.677   6.912  0.8619 -0.0088 -0.7215
 1686SOL     OW 7689   8.222   0.084   5.487  0.3499  0.4479 -0.4236
 1686SOL    HW1 7690   8.313   0.111   5.499  0.2748  1.1528 -1.3437
 1686SOL    HW2 7691   8.226  -0.004   5.449  0.6113 -0.2829  1.2077
 1687SOL     OW 7692   4.001   3.918   0.409  0.2952 -0.8556 -0.1735
 1687SOL    HW1 7693   4.055   3.978   0.461  0.0945 -2.3741  1.9086
 1687SOL    HW2 7694   4.054   3.900   0.331  0.5735  1.5445 -0.6304
 1688SOL     OW 7695   8.892   1.967   6.293 -0.1549 -0.4426 -0.1379
 1688SOL    HW1 7696   8.838   2.021   6.351  0.7665  0.1514  0.1772
 1688SOL    HW2 7697   8.960   1.931   6.350  0.1526 -0.6904 -0.6527
 1689SOL     OW 7698   0.680   3.717  10.197  0.3123  0.4854 -0.0286
 1689SOL    HW1 7699   0.745   3.657  10.161 -1.0539 -1.1957  0.1751
 1689SOL    HW2 7700   0.606   3.710  10.137 -2.0632 -2.4301  2.8323
 1690SOL     OW 7701   3.864  10.284   1.740  0.4626  0.6805  0.3373
 1690SOL    HW1 7702   3.931  10.239   1.791  0.7890  0.2445 -0.4544
 1690SOL    HW2 7703   3.808  10.327   1.805 -0.2910 -1.4572  1.1713
 1691SOL     OW 7704   3.762   8.646   4.487 -0.3991 -0.1441  0.7358
 1691SOL    HW1 7705   3.799   8.567   4.526 -0.9916 -0.3195  0.9427
 1691SOL    HW2 7706   3.834   8.683   4.436  0.3699  0.0492  1.9300
 1692SOL     OW 7707  10.018   6.205   0.889  0.1287  0.1857  0.2603
 1692SOL    HW1 7708   9.942   6.219   0.832 -0.6444  0.6003  1.3725
 1692SOL    HW2 7709  10.044   6.115   0.871  0.9702  0.7944 -1.9923
 1693SOL     OW 7710  10.323   5.816   4.144 -0.0072 -0.2092 -0.0085
 1693SOL    HW1 7711  10.251   5.761   4.177  0.9269 -0.6044  1.4695
 1693SOL    HW2 7712  10.283   5.902   4.133 -1.2535 -0.9216 -1.4210
 1694SOL     OW 7713   4.757  10.089   6.009 -0.7352 -0.0538 -0.5348
 1694SOL    HW1 7714   4.814  10.148   5.959  0.8826 -2.1040 -1.2944
 1694SOL    HW2 7715   4.818  10.029   6.053 -2.2911 -1.5000 -0.2542
 1695SOL     OW 7716   5.723   9.798   6.205 -0.6347  0.0286  0.6910
 1695SOL    HW1 7717   5.639   9.835   6.177  0.4063  2.0083  0.0393
 1695SOL    HW2 7718   5.773   9.873   6.236  1.7632 -0.7079 -1.1283
 1696SOL     OW 7719   7.490   2.748   0.673  0.6568  0.2665  0.6608
 1696SOL    HW1 7720   7.443   2.795   0.742  0.0445  1.1720 -0.3462
 1696SOL    HW2 7721   7.424   2.692   0.633  0.6080  0.9708 -0.2602
 1697SOL     OW 7722   5.705   6.276   5.391  0.1768  0.2405  0.1945
 1697SOL    HW1 7723   5.659   6.349   5.350  0.3955  0.2770  0.0129
 1697SOL    HW2 7724   5.683   6.200   5.337 -0.8782 -0.0337  0.9634
 1698SOL     OW 7725   5.774   0.895   5.177  0.0950  0.3224 -0.3595
 1698SOL    HW1 7726   5.806   0.915   5.265 -1.5227  0.9161  0.1190
 1698SOL    HW2 7727   5.695   0.843   5.191 -0.4542  0.8370 -1.4471
 1699SOL     OW 7728   5.481   9.457   8.937  0.2120  0.3708 -0.0784
 1699SOL    HW1 7729   5.415   9.411   8.989 -0.5622 -0.0375 -1.3732
 1699SOL    HW2 7730   5.434   9.486   8.858  1.3047  1.1151 -0.4794
 1700SOL     OW 7731   7.445   3.493   1.648  0.4971 -0.2939  0.0548
 1700SOL    HW1 7732   7.517   3.554   1.664  0.3815 -0.3910  1.0052
 1700SOL    HW2 7733   7.461   3.420   1.708  0.1119 -0.7498 -0.3873
 1701SOL     OW 7734   7.163   5.675   3.308  0.0100  0.4049  0.5121
 1701SOL    HW1 7735   7.224   5.639   3.373 -0.0301  1.7421  1.3343
 1701SOL    HW2 7736   7.200   5.759   3.284 -0.1574  0.0791 -0.9904
 1702SOL     OW 7737   9.004   2.143   5.261 -0.3379  0.5146 -0.7074
 1702SOL    HW1 7738   9.021   2.167   5.352 -1.8754 -0.0159 -0.2340
 1702SOL    HW2 7739   9.013   2.224   5.212  1.6273  0.5838 -0.2772
 1703SOL     OW 7740   6.896   0.482   3.893  0.0201  0.3185  0.0511
 1703SOL    HW1 7741   6.930   0.398   3.862  0.5006  0.7428 -0.6056
 1703SOL    HW2 7742   6.912   0.482   3.987 -1.1076 -0.8393  0.2739
 1704SOL     OW 7743   6.649   9.954   1.054  0.0765 -0.6291 -0.3488
 1704SOL    HW1 7744   6.741   9.953   1.080  0.4296 -0.1941 -1.5271
 1704SOL    HW2 7745   6.650   9.975   0.961 -1.2174 -0.6921 -0.4016
 1705SOL     OW 7746   6.753   8.909  10.025 -0.3233 -0.8011 -0.8086
 1705SOL    HW1 7747   6.783   8.959  10.101 -0.9508  1.0121 -1.6689
 1705SOL    HW2 7748   6.816   8.930   9.956  0.0357 -2.1313 -0.8979
 1706SOL     OW 7749   6.961   7.831   7.255 -0.4574 -0.3232 -0.6228
 1706SOL    HW1 7750   6.888   7.892   7.239  0.0131  0.9280  1.5926
 1706SOL    HW2 7751   6.931   7.777   7.328  0.5294 -0.2597 -0.1505
 1707SOL     OW 7752   6.866   7.535   2.570  0.5138  0.0058 -0.2188
 1707SOL    HW1 7753   6.770   7.541   2.569  0.5268  0.9511 -2.7566
 1707SOL    HW2 7754   6.885   7.454   2.524  0.9650 -0.3813  0.6231
 1708SOL     OW 7755   4.795   1.526   6.870  0.3353  0.1412  0.0869
 1708SOL    HW1 7756   4.820   1.435   6.857  2.6865  0.7789 -0.2564
 1708SOL    HW2 7757   4.841   1.574   6.801  0.1773  1.7461  1.0461
 1709SOL     OW 7758   9.601   9.612   0.227 -0.2419 -0.3988 -0.0184
 1709SOL    HW1 7759   9.592   9.521   0.199  0.7637 -0.5862  0.2378
 1709SOL    HW2 7760   9.599   9.608   0.323 -2.4228  0.1052  0.0051
 1710SOL     OW 7761  10.155  10.327   1.869  0.5982  0.3971  0.6106
 1710SOL    HW1 7762  10.208  10.248   1.885  1.4425  0.5004 -1.4402
 1710SOL    HW2 7763  10.072  10.309   1.914  0.4798 -2.0258 -0.4050
 1711SOL     OW 7764   0.992   2.209   7.222 -0.1900 -0.2100  0.2548
 1711SOL    HW1 7765   1.085   2.220   7.203 -0.2171 -0.8743 -0.2891
 1711SOL    HW2 7766   0.980   2.249   7.308 -0.0459  2.8082 -1.0166
 1712SOL     OW 7767   7.684   2.160   9.489  0.2721  0.2130 -0.2386
 1712SOL    HW1 7768   7.739   2.238   9.484  2.0918 -1.0268 -0.7770
 1712SOL    HW2 7769   7.695   2.128   9.579  0.2408  0.1084 -0.2714
 1713SOL     OW 7770   8.607   1.000   2.485 -0.0927  0.3486  0.3274
 1713SOL    HW1 7771   8.583   0.971   2.397 -0.7602  0.7394  0.3733
 1713SOL    HW2 7772   8.676   1.064   2.472 -0.1356  0.3466  0.0891
 1714SOL     OW 7773   0.642   5.518   5.877 -0.3140  0.2547  0.1916
 1714SOL    HW1 7774   0.699   5.596   5.874 -0.9447  0.7202  0.1486
 1714SOL    HW2 7775   0.691   5.456   5.931  1.2993 -0.2385 -1.7256
 1715SOL     OW 7776   8.372   0.219   6.022  0.2574  0.3709  0.2400
 1715SOL    HW1 7777   8.328   0.241   5.940 -1.1435  3.1536  1.5805
 1715SOL    HW2 7778   8.308   0.169   6.072  0.8693 -0.7463 -0.0549
 1716SOL     OW 7779   0.165   1.732   3.231  0.1314 -0.1712  0.2802
 1716SOL    HW1 7780   0.114   1.757   3.308 -0.1899  0.2295 -0.0610
 1716SOL    HW2 7781   0.116   1.768   3.157  1.2386  0.7588 -0.0192
 1717SOL     OW 7782   9.019   1.119   7.781 -0.0706 -0.1720  0.5552
 1717SOL    HW1 7783   9.039   1.174   7.706  1.4199 -0.7934  0.4493
 1717SOL    HW2 7784   9.002   1.181   7.852  1.3122  0.4633  0.3812
 1718SOL     OW 7785   0.846   2.422   6.443 -0.0558 -0.1948 -0.0080
 1718SOL    HW1 7786   0.772   2.470   6.480  1.4663  0.8603  1.8433
 1718SOL    HW2 7787   0.908   2.491   6.417  0.5405 -1.0756 -0.9947
 1719SOL     OW 7788   5.255   6.727   2.072  0.0390 -0.0308 -0.0318
 1719SOL    HW1 7789   5.166   6.712   2.105  0.3523 -1.5669  0.1936
 1719SOL    HW2 7790   5.305   6.653   2.104  0.8015 -0.6281 -2.3708
 1720SOL     OW 7791   9.961   1.447   6.492  0.0992 -0.7800 -0.3332
 1720SOL    HW1 7792  10.055   1.455   6.473 -0.0597  1.8823 -0.3003
 1720SOL    HW2 7793   9.957   1.390   6.569  1.5969 -1.6497 -0.8530
 1721SOL     OW 7794   7.606   7.668   0.632  0.0545  0.2645 -0.5629
 1721SOL    HW1 7795   7.570   7.597   0.686  1.9364 -0.2882  0.0161
 1721SOL    HW2 7796   7.572   7.748   0.672  1.0749 -0.1534  1.2378
 1722SOL     OW 7797   2.559   3.777   5.306 -0.5523 -0.2844  0.1418
 1722SOL    HW1 7798   2.497   3.726   5.254 -0.2459  1.1401 -1.7418
 1722SOL    HW2 7799   2.600   3.836   5.243  2.4449 -0.8858  1.3651
 1723SOL     OW 7800   2.938   9.663   1.299 -0.2628  0.4032  0.4850
 1723SOL    HW1 7801   2.948   9.570   1.281 -0.5902  0.1077  1.7512
 1723SOL    HW2 7802   3.028   9.696   1.307 -0.1288 -0.2562  2.1439
 1724SOL     OW 7803   5.036   8.286   0.051  0.3661 -0.3178  0.4238
 1724SOL    HW1 7804   5.023   8.208  -0.004  1.5110  1.0589 -1.9779
 1724SOL    HW2 7805   5.130   8.303   0.046  0.3062  0.6028  1.8386
 1725SOL     OW 7806   3.046   4.160   0.477  0.2318  0.7489  0.6793
 1725SOL    HW1 7807   2.983   4.166   0.406 -0.1540  0.0273  0.9397
 1725SOL    HW2 7808   3.039   4.069   0.507  0.4960  0.9941  1.5295
 1726SOL     OW 7809   9.165  10.197   0.758 -0.3052  0.0105  0.2777
 1726SOL    HW1 7810   9.162  10.275   0.814  0.6073  2.2886 -2.5935
 1726SOL    HW2 7811   9.192  10.230   0.672 -2.1058 -3.1642 -1.7119
 1727SOL     OW 7812   5.217   8.440   0.852 -0.0365 -0.4494  0.2676
 1727SOL    HW1 7813   5.219   8.536   0.858  0.0384 -0.4473  0.2195
 1727SOL    HW2 7814   5.288   8.419   0.790  1.3267 -0.6584  1.8403
 1728SOL     OW 7815   1.293   2.055   2.137  0.5898 -0.1505  0.1587
 1728SOL    HW1 7816   1.384   2.081   2.121  0.1957  1.1359 -0.1580
 1728SOL    HW2 7817   1.256   2.046   2.049  0.2917 -0.2074  0.2906
 1729SOL     OW 7818   2.017   2.123   8.479  0.1883 -0.1766 -0.0051
 1729SOL    HW1 7819   2.033   2.031   8.460  1.8421  0.0356  0.2256
 1729SOL    HW2 7820   2.054   2.170   8.404  2.1060  0.4160  1.2532
 1730SOL     OW 7821   4.310   0.161   1.564 -0.0384  0.3607  0.5016
 1730SOL    HW1 7822   4.293   0.166   1.658  0.5474 -0.9113  0.6938
 1730SOL    HW2 7823   4.405   0.147   1.558 -0.3147 -1.4300 -0.1929
 1731SOL     OW 7824   9.168   3.616   8.538 -0.1727  0.0733 -0.0646
 1731SOL    HW1 7825   9.230   3.543   8.530  0.2328  0.1784  1.6661
 1731SOL    HW2 7826   9.095   3.592   8.481 -0.2519 -1.9222  0.7807
 1732SOL     OW 7827   9.345   1.031   8.367 -0.5714 -0.2068 -0.3453
 1732SOL    HW1 7828   9.277   0.999   8.308  0.4916 -0.1206 -1.6766
 1732SOL    HW2 7829   9.298   1.075   8.437 -1.8861  1.0957 -1.9526
 1733SOL     OW 7830   6.293   2.104   9.032  0.6978 -0.0809 -0.3439
 1733SOL    HW1 7831   6.224   2.044   9.059 -0.3159  0.8810 -0.7007
 1733SOL    HW2 7832   6.275   2.121   8.939 -0.3680  2.3734  0.2152
 1734SOL     OW 7833   3.784   6.614   0.176 -0.5717 -0.1110  0.6844
 1734SOL    HW1 7834   3.786   6.649   0.087  1.1515  0.0888  0.7728
 1734SOL    HW2 7835   3.691   6.611   0.198 -0.9736  0.8337 -0.7280
 1735SOL     OW 7836   1.517   7.349   5.826 -0.1547  0.4768 -0.3679
 1735SOL    HW1 7837   1.581   7.351   5.897 -0.1219  0.6121 -0.4004
 1735SOL    HW2 7838   1.454   7.282   5.852 -0.1997  0.5978 -0.1590
 1736SOL     OW 7839   8.058   2.315   7.549 -0.0119 -0.0381 -0.0318
 1736SOL    HW1 7840   8.109   2.289   7.626  1.9252  0.8463 -0.9517
 1736SOL    HW2 7841   8.006   2.390   7.579  0.3496 -0.0122  0.5389
 1737SOL     OW 7842   4.705   5.430   2.387 -0.2111  0.2814  0.1115
 1737SOL    HW1 7843   4.793   5.399   2.370  0.3925  1.8773  0.1345
 1737SOL    HW2 7844   4.693   5.420   2.482 -1.7298 -3.9495 -0.3137
 1738SOL     OW 7845  10.054   0.345   0.318  0.4600 -0.1176  0.3659
 1738SOL    HW1 7846  10.120   0.317   0.254 -0.8348  0.1642 -1.1669
 1738SOL    HW2 7847  10.034   0.435   0.293  0.1809  0.1273  1.4219
 1739SOL     OW 7848   5.068   8.987   3.812 -0.4461  0.5434 -0.1386
 1739SOL    HW1 7849   5.163   8.978   3.820 -0.2329  1.2380 -1.6324
 1739SOL    HW2 7850   5.056   9.051   3.742 -2.0159 -0.3381 -0.7170
 1740SOL     OW 7851   2.294   6.626   0.361  0.0738  0.1140 -0.0986
 1740SOL    HW1 7852   2.350   6.656   0.289  0.5625 -0.5147  0.0103
 1740SOL    HW2 7853   2.215   6.594   0.318 -0.0760  0.7093 -0.2760
 1741SOL     OW 7854   5.613   7.000   3.724  0.0465 -0.5953  0.4499
 1741SOL    HW1 7855   5.579   7.026   3.638 -0.1877 -1.7341  0.1741
 1741SOL    HW2 7856   5.603   6.905   3.725 -1.2965 -0.4982  2.3122
 1742SOL     OW 7857  10.291   9.217   7.012  0.0353  0.2253 -0.1922
 1742SOL    HW1 7858  10.360   9.151   7.010  0.1654  0.3518  0.1120
 1742SOL    HW2 7859  10.313   9.277   6.941 -0.9398 -0.9098 -1.5165
 1743SOL     OW 7860   9.479   7.781   7.865 -0.4341 -0.0259 -0.7500
 1743SOL    HW1 7861   9.465   7.700   7.817 -0.7509 -0.6704  0.3925
 1743SOL    HW2 7862   9.392   7.822   7.869 -0.1237  0.8334 -2.0792
 1744SOL     OW 7863   1.912   9.912   8.121  0.2161  0.2071 -0.2602
 1744SOL    HW1 7864   1.877   9.957   8.044 -1.4004 -0.6345 -0.0539
 1744SOL    HW2 7865   1.841   9.913   8.184  0.5557 -1.5166  0.2051
 1745SOL     OW 7866   5.391   3.695   3.706 -0.6875 -0.5096  0.0514
 1745SOL    HW1 7867   5.313   3.747   3.726 -1.0294 -0.6206 -0.9251
 1745SOL    HW2 7868   5.429   3.737   3.629 -0.7438 -1.4458 -0.5074
 1746SOL     OW 7869   2.080   7.946   4.720 -0.9177 -0.5650  0.1619
 1746SOL    HW1 7870   2.101   7.888   4.793 -3.4121 -1.5667  0.1644
 1746SOL    HW2 7871   2.112   8.032   4.748  2.3879 -1.7048  0.3787
 1747SOL     OW 7872   1.972   0.647   2.128  0.5009 -0.1281 -0.2918
 1747SOL    HW1 7873   1.956   0.734   2.092  1.2594  0.2412  0.2254
 1747SOL    HW2 7874   1.950   0.587   2.057 -1.6282  0.3696 -0.1202
 1748SOL     OW 7875   1.607   1.176   4.753 -0.0121  0.6518  0.1929
 1748SOL    HW1 7876   1.698   1.203   4.737  0.0053 -0.0020 -0.8941
 1748SOL    HW2 7877   1.556   1.254   4.733  0.2698  0.9114  0.4534
 1749SOL     OW 7878   5.714  10.347   8.460 -0.3556  0.2129  0.0353
 1749SOL    HW1 7879   5.682  10.392   8.382 -0.0047 -0.1135 -0.3020
 1749SOL    HW2 7880   5.636  10.310   8.500 -0.5522  0.4834 -0.0925
 1750SOL     OW 7881   0.221   2.039   1.577 -0.2104  0.3899  0.2947
 1750SOL    HW1 7882   0.238   2.016   1.485 -1.4751  0.4385  0.0220
 1750SOL    HW2 7883   0.155   2.109   1.572 -2.1471 -1.2574  1.2465
 1751SOL     OW 7884   7.315   1.334   1.693  0.2822  0.2145 -0.2109
 1751SOL    HW1 7885   7.400   1.318   1.652 -0.5017  1.4899 -2.5538
 1751SOL    HW2 7886   7.266   1.253   1.681  0.2087  0.4327 -1.5440
 1752SOL     OW 7887  10.187   6.968   2.736  0.2821  0.3242  0.4401
 1752SOL    HW1 7888  10.226   6.962   2.823  1.2554  1.9534  0.1431
 1752SOL    HW2 7889  10.215   7.053   2.702 -1.4048  0.4328 -0.8387
 1753SOL     OW 7890   8.134   0.623   1.825 -0.0926  0.3927  0.0448
 1753SOL    HW1 7891   8.114   0.612   1.732  0.7139 -0.6590 -0.0263
 1753SOL    HW2 7892   8.146   0.534   1.857  1.2773  0.8127  0.7665
 1754SOL     OW 7893   4.663   5.368   8.619 -0.4164 -0.2380  0.0258
 1754SOL    HW1 7894   4.758   5.370   8.632  0.0625  0.8515 -2.9527
 1754SOL    HW2 7895   4.640   5.275   8.628  0.9498 -0.5614  0.4995
 1755SOL     OW 7896   8.368   6.133   2.128  0.6087 -0.3807  0.0407
 1755SOL    HW1 7897   8.422   6.075   2.075 -0.6098 -1.6535  0.1419
 1755SOL    HW2 7898   8.326   6.075   2.192 -0.0013  0.7364  0.6847
 1756SOL     OW 7899   1.744   4.443   9.116  0.4418  0.5040  0.1206
 1756SOL    HW1 7900   1.770   4.404   9.033 -0.3617 -0.1483  0.1693
 1756SOL    HW2 7901   1.816   4.503   9.137  0.8974  0.2950 -0.7809
 1757SOL     OW 7902   4.846   7.729   9.230  0.4149 -0.0048 -0.8032
 1757SOL    HW1 7903   4.896   7.649   9.246 -0.1502 -0.6346 -1.9994
 1757SOL    HW2 7904   4.773   7.701   9.174  0.1724  1.3402 -1.2099
 1758SOL     OW 7905   2.483   8.771   9.758  0.2321 -0.0096  0.0165
 1758SOL    HW1 7906   2.486   8.817   9.675  1.8983 -0.8487 -0.4295
 1758SOL    HW2 7907   2.542   8.820   9.815  1.0595 -0.8562 -0.0873
 1759SOL     OW 7908   2.707   2.423   3.628  0.4906  0.2750 -0.6165
 1759SOL    HW1 7909   2.794   2.440   3.663  0.6954  0.6607 -1.3082
 1759SOL    HW2 7910   2.711   2.333   3.597  0.4888  0.1300 -0.2057
 1760SOL     OW 7911   7.632   5.886   0.324  0.2411 -0.1764 -0.4401
 1760SOL    HW1 7912   7.607   5.855   0.411 -1.0808  0.0704 -0.7097
 1760SOL    HW2 7913   7.624   5.809   0.268 -0.1509 -0.0475 -0.5667
 1761SOL     OW 7914   1.390   2.895   0.154  0.3707 -0.2897 -0.4332
 1761SOL    HW1 7915   1.481   2.918   0.139  0.5143 -0.5697  0.0033
 1761SOL    HW2 7916   1.363   2.849   0.074  0.7594 -0.6578 -0.3530
 1762SOL     OW 7917   1.450   4.528   6.847  0.8043 -0.2802 -0.2602
 1762SOL    HW1 7918   1.454   4.575   6.930  1.6163  1.2322 -1.1152
 1762SOL    HW2 7919   1.417   4.441   6.870 -1.8961  1.0211  1.2274
 1763SOL     OW 7920   5.160   3.470   7.164 -0.6488  0.0910 -0.0773
 1763SOL    HW1 7921   5.207   3.521   7.230  0.3237 -0.5279 -0.2717
 1763SOL    HW2 7922   5.208   3.485   7.083  0.3371 -1.9486  0.0633
 1764SOL     OW 7923   1.201   8.475   6.478 -0.2320  0.2982  0.4001
 1764SOL    HW1 7924   1.197   8.499   6.571 -0.7788  1.3893  0.1126
 1764SOL    HW2 7925   1.294   8.461   6.461 -0.1646 -0.2968  1.2061
 1765SOL     OW 7926   6.117   7.901   1.494 -0.2028 -0.5482 -0.3027
 1765SOL    HW1 7927   6.211   7.882   1.493  0.0978  0.7868  0.0776
 1765SOL    HW2 7928   6.092   7.891   1.586 -0.6264 -1.7318 -0.5399
 1766SOL     OW 7929   5.606   5.107   2.703  0.1308  0.0893 -0.1748
 1766SOL    HW1 7930   5.659   5.133   2.628  1.2308 -1.1183  0.1554
 1766SOL    HW2 7931   5.645   5.153   2.777  0.5000 -0.5062  0.0088
 1767SOL     OW 7932   8.265   4.667   4.333  0.3599  0.6212 -0.4132
 1767SOL    HW1 7933   8.335   4.712   4.287  0.9873  2.5015  2.1748
 1767SOL    HW2 7934   8.308   4.594   4.378  0.2910  0.6147 -0.3573
 1768SOL     OW 7935   6.158  10.182   7.019 -0.4901 -0.5934 -0.6183
 1768SOL    HW1 7936   6.189  10.192   7.109  0.1068 -1.7919 -0.6781
 1768SOL    HW2 7937   6.207  10.248   6.970 -1.3282  0.5453  0.0315
 1769SOL     OW 7938  10.128   5.669   7.257 -0.5903  0.2610  0.2837
 1769SOL    HW1 7939  10.128   5.580   7.221  0.6675  1.8549 -4.3592
 1769SOL    HW2 7940  10.036   5.690   7.269 -1.0055 -0.9591 -0.6008
 1770SOL     OW 7941   7.801   3.710   7.380 -0.4205  0.0432  0.0334
 1770SOL    HW1 7942   7.777   3.625   7.345  1.6893 -1.4579  1.9444
 1770SOL    HW2 7943   7.894   3.702   7.402 -0.1727  2.8082  0.3970
 1771SOL     OW 7944   2.987   8.210   3.459  0.1291  0.3291 -0.3907
 1771SOL    HW1 7945   3.068   8.176   3.420  0.0939  0.3803 -0.5073
 1771SOL    HW2 7946   2.922   8.204   3.389 -0.7259 -2.4788  0.5280
 1772SOL     OW 7947   1.787   4.477   6.112 -0.5185  0.3862 -0.4341
 1772SOL    HW1 7948   1.748   4.487   6.199 -0.5180  1.4683 -0.5483
 1772SOL    HW2 7949   1.837   4.395   6.118 -2.2795 -0.7136 -0.0955
 1773SOL     OW 7950   0.355   1.267   5.980  0.4517  1.1309  0.1488
 1773SOL    HW1 7951   0.282   1.292   6.038  0.6963 -1.5878  1.8171
 1773SOL    HW2 7952   0.421   1.232   6.039  1.2149 -0.7313 -1.6942
 1774SOL     OW 7953   2.621   0.486  10.243 -0.7105  0.0832  0.0722
 1774SOL    HW1 7954   2.712   0.488  10.273 -0.9565  1.0384  0.8090
 1774SOL    HW2 7955   2.570   0.465  10.322 -1.1526 -0.1633 -0.2742
 1775SOL     OW 7956   7.005  10.236   8.827 -0.4770  0.1299 -0.0130
 1775SOL    HW1 7957   7.089  10.275   8.852 -0.8577  2.4562 -1.9380
 1775SOL    HW2 7958   6.963  10.214   8.910  2.1449 -1.4913  0.9956
 1776SOL     OW 7959   5.944   6.339   3.051  0.2976  0.1996 -0.5325
 1776SOL    HW1 7960   5.866   6.346   2.996 -0.1782  1.1087  0.2483
 1776SOL    HW2 7961   5.979   6.428   3.056  1.7972 -0.3078 -1.4456
 1777SOL     OW 7962   0.381   3.438   3.026  0.1652  0.2051  0.5350
 1777SOL    HW1 7963   0.337   3.378   3.087  0.5590  0.7681  1.3957
 1777SOL    HW2 7964   0.309   3.480   2.978 -0.1627 -0.0331  0.8140
 1778SOL     OW 7965   6.534   8.997   1.054  0.2703 -0.3112 -0.8185
 1778SOL    HW1 7966   6.575   9.075   1.017  1.5434 -0.4960  0.1390
 1778SOL    HW2 7967   6.440   9.018   1.056  0.4664  0.7296 -1.6363
 1779SOL     OW 7968   4.080   0.641   1.324 -0.2205  0.1435 -0.4938
 1779SOL    HW1 7969   4.097   0.684   1.240  0.4772  1.3991  0.2490
 1779SOL    HW2 7970   4.165   0.639   1.368 -0.7143  0.2459  0.4989
 1780SOL     OW 7971   3.954   3.460   5.224  0.3030  0.2866  0.2406
 1780SOL    HW1 7972   3.936   3.391   5.160  0.0504  0.1934  0.4118
 1780SOL    HW2 7973   4.045   3.485   5.207  1.3470 -1.9949  1.9579
 1781SOL     OW 7974   4.014   5.127   1.266 -0.6512  0.3198  0.1697
 1781SOL    HW1 7975   4.056   5.050   1.227 -2.3157 -0.3356 -0.4358
 1781SOL    HW2 7976   4.055   5.136   1.352 -0.3170 -1.1435  0.1889
 1782SOL     OW 7977   0.939   3.792   2.961  0.0516  0.4061 -0.2807
 1782SOL    HW1 7978   0.882   3.822   3.032  1.3380  0.0145  0.9633
 1782SOL    HW2 7979   0.965   3.872   2.916  0.9117  0.9166  1.0367
 1783SOL     OW 7980  10.236   1.276   4.107 -0.7070 -0.3029 -0.0820
 1783SOL    HW1 7981  10.179   1.329   4.051  1.0052  0.6585 -0.9796
 1783SOL    HW2 7982  10.252   1.197   4.055  0.2352  0.2396 -0.6456
 1784SOL     OW 7983   4.911   8.268   1.017 -0.0767 -0.3739  0.4684
 1784SOL    HW1 7984   4.880   8.285   1.106 -0.4189  3.0615 -0.1475
 1784SOL    HW2 7985   5.002   8.243   1.028 -0.6127 -1.8806  1.8406
 1785SOL     OW 7986   9.538   3.422   3.481 -0.3696 -0.5621  0.5311
 1785SOL    HW1 7987   9.497   3.483   3.542 -2.5052 -2.1223  0.7761
 1785SOL    HW2 7988   9.606   3.378   3.532  0.2034  0.5582  0.7605
 1786SOL     OW 7989   6.547   9.005   9.099 -0.5037 -0.0410 -0.1481
 1786SOL    HW1 7990   6.593   9.041   9.024 -1.5250  0.2748 -0.6344
 1786SOL    HW2 7991   6.602   8.932   9.127 -1.3018 -1.7938 -2.7559
 1787SOL     OW 7992   4.435   4.648   7.711  0.2934  0.8010 -0.0254
 1787SOL    HW1 7993   4.351   4.692   7.721  0.6382  2.3023 -2.9436
 1787SOL    HW2 7994   4.497   4.703   7.758 -0.0446  0.6940  0.5562
 1788SOL     OW 7995   8.460   7.621   8.001 -0.7521  0.0069  0.0962
 1788SOL    HW1 7996   8.548   7.596   8.030 -1.0229  0.2366  1.1841
 1788SOL    HW2 7997   8.415   7.646   8.082 -0.9719  2.5221 -0.7275
 1789SOL     OW 7998   4.194   4.604   1.184 -0.4913 -0.3587 -0.2242
 1789SOL    HW1 7999   4.245   4.542   1.236 -0.1831 -0.2317 -0.3727
 1789SOL    HW2 8000   4.102   4.583   1.205 -0.4423  1.9829  3.1936
 1790SOL     OW 8001   9.217   3.578   5.992 -0.6559  0.1788  0.0714
 1790SOL    HW1 8002   9.244   3.634   6.065 -0.9928  1.1230 -0.5085
 1790SOL    HW2 8003   9.294   3.523   5.975 -0.5715 -0.0578  1.1203
 1791SOL     OW 8004  10.169   2.930   9.253  0.8040 -0.4127  0.5538
 1791SOL    HW1 8005  10.173   2.835   9.242 -0.0800 -0.3250 -0.8974
 1791SOL    HW2 8006  10.217   2.964   9.177 -2.8941  0.2700 -1.7399
 1792SOL     OW 8007   0.799   0.586   6.596 -0.2680 -0.0781 -0.2513
 1792SOL    HW1 8008   0.737   0.621   6.659  0.1985  0.1394  0.0981
 1792SOL    HW2 8009   0.825   0.501   6.632 -0.3393 -0.1557 -0.3815
 1793SOL     OW 8010  10.255   9.848   8.810  0.0938 -0.1096  0.0647
 1793SOL    HW1 8011  10.301   9.923   8.774 -0.9888 -0.0043 -1.1693
 1793SOL    HW2 8012  10.252   9.865   8.904 -0.4976  1.6272 -0.2292
 1794SOL     OW 8013   5.969   2.629   3.713  0.0345 -0.4993 -0.5317
 1794SOL    HW1 8014   5.932   2.607   3.628 -0.9567  2.1338 -0.8699
 1794SOL    HW2 8015   5.896   2.663   3.764  0.9898 -0.1492  0.6637
 1795SOL     OW 8016   8.551   0.644   1.902 -0.0090  0.4410  0.0079
 1795SOL    HW1 8017   8.616   0.654   1.971  0.5126 -1.6191 -0.1360
 1795SOL    HW2 8018   8.562   0.554   1.871 -1.5134  0.7170 -1.4622
 1796SOL     OW 8019   4.124   8.700   8.826 -0.4344 -0.4420 -0.6287
 1796SOL    HW1 8020   4.032   8.729   8.831 -0.1333  1.0917 -2.6297
 1796SOL    HW2 8021   4.137   8.681   8.733  1.2246 -0.9118 -0.3198
 1797SOL     OW 8022   6.216   4.713   7.871 -0.6215 -0.0965  0.1513
 1797SOL    HW1 8023   6.224   4.732   7.778 -0.7690 -1.6139 -0.1931
 1797SOL    HW2 8024   6.207   4.799   7.912 -0.1486  0.6222 -1.1810
 1798SOL     OW 8025   7.646   2.119   9.758 -0.4456 -0.0758 -0.3498
 1798SOL    HW1 8026   7.585   2.085   9.824 -1.1937  0.1385 -0.9095
 1798SOL    HW2 8027   7.626   2.212   9.753  0.6776  0.2161  0.2174
 1799SOL     OW 8028   2.719   2.145   6.671 -0.5129  0.2120  0.6465
 1799SOL    HW1 8029   2.682   2.108   6.591  1.1852 -2.7766  1.0938
 1799SOL    HW2 8030   2.803   2.183   6.644  0.9279 -2.3908  1.1395
 1800SOL     OW 8031   6.383   4.761   9.411  0.4372  0.7488  0.9132
 1800SOL    HW1 8032   6.335   4.836   9.376  0.6381  0.9207  1.0051
 1800SOL    HW2 8033   6.339   4.741   9.494  1.2756  1.6829  1.6104
 1801SOL     OW 8034   2.844   2.162  10.037 -0.4528  0.2364  0.2694
 1801SOL    HW1 8035   2.840   2.086  10.095 -2.1494  0.5319  0.6070
 1801SOL    HW2 8036   2.846   2.125   9.948 -0.2824 -0.2067  0.4581
 1802SOL     OW 8037   8.123   5.696   6.995 -0.1672  0.3695  0.0744
 1802SOL    HW1 8038   8.121   5.713   7.089  3.0612  1.9693 -0.0292
 1802SOL    HW2 8039   8.094   5.778   6.955 -0.7955 -0.0588 -0.3726
 1803SOL     OW 8040   6.976   9.977   1.962  0.1634 -0.6074 -0.5724
 1803SOL    HW1 8041   7.033   9.936   1.897  1.1557  1.9920 -1.4618
 1803SOL    HW2 8042   7.030   9.985   2.040  0.2246 -0.3214 -0.6434
 1804SOL     OW 8043  10.025   0.133   1.003 -0.5800  0.4835 -0.3538
 1804SOL    HW1 8044  10.086   0.164   0.936 -0.4235  1.0519  0.0377
 1804SOL    HW2 8045  10.040   0.192   1.077 -2.1478  1.1419 -0.5227
 1805SOL     OW 8046   8.119   7.691   0.239 -0.3112  0.6513 -0.4619
 1805SOL    HW1 8047   8.214   7.682   0.250 -0.1476  1.7313 -0.8791
 1805SOL    HW2 8048   8.082   7.628   0.300  0.6616  1.1392  0.6652
 1806SOL     OW 8049   5.896   4.879   1.462 -0.2131 -0.6987  0.2821
 1806SOL    HW1 8050   5.896   4.971   1.436 -0.7413 -0.9152 -0.5352
 1806SOL    HW2 8051   5.832   4.873   1.532 -0.4521 -0.5142  0.0770
 1807SOL     OW 8052   7.974   6.415   0.092 -0.1737  0.4499  0.2868
 1807SOL    HW1 8053   7.958   6.361   0.170 -1.0313  0.5580  0.1911
 1807SOL    HW2 8054   7.905   6.482   0.095  0.8772  1.5722  0.4226
 1808SOL     OW 8055   7.837   4.515   2.201  0.1175 -0.3720  0.2732
 1808SOL    HW1 8056   7.822   4.608   2.217 -1.5459 -0.6821  0.6114
 1808SOL    HW2 8057   7.889   4.486   2.276  1.9271  0.5411 -0.5380
 1809SOL     OW 8058   3.626   5.634   1.802 -0.0176 -0.2045  0.2832
 1809SOL    HW1 8059   3.592   5.553   1.764 -1.5398  0.1480  0.8050
 1809SOL    HW2 8060   3.720   5.619   1.810 -0.1286 -1.5347 -0.5367
 1810SOL     OW 8061   7.514   1.594   2.171 -0.8389 -0.2562 -0.3291
 1810SOL    HW1 8062   7.610   1.596   2.173 -0.8352 -0.2049  1.3693
 1810SOL    HW2 8063   7.492   1.503   2.192 -1.1828 -0.4174 -1.3303
 1811SOL     OW 8064   9.443   5.607   8.188 -0.5012  0.0334 -0.4040
 1811SOL    HW1 8065   9.428   5.683   8.244  1.3672 -0.8910  1.5204
 1811SOL    HW2 8066   9.408   5.533   8.238  1.3993 -0.8444 -0.2651
 1812SOL     OW 8067   9.791   4.529   5.039  0.6258  0.4315 -0.4563
 1812SOL    HW1 8068   9.732   4.583   5.091  0.0633  2.8083 -3.3091
 1812SOL    HW2 8069   9.858   4.589   5.008  1.9252 -1.2571 -1.0877
 1813SOL     OW 8070   3.736   6.719   1.676 -0.2826 -0.4982  0.1984
 1813SOL    HW1 8071   3.688   6.715   1.593  0.0395 -0.8837  0.0277
 1813SOL    HW2 8072   3.669   6.703   1.743 -0.6916  0.5644  0.0742
 1814SOL     OW 8073   2.922   7.466   2.104  0.4179 -0.0031  0.0005
 1814SOL    HW1 8074   2.891   7.492   2.017  1.0027  1.1583  0.1143
 1814SOL    HW2 8075   2.848   7.485   2.162  0.3729  0.1670 -0.1104
 1815SOL     OW 8076   3.648   4.168   4.452 -0.3557 -0.3568 -0.0713
 1815SOL    HW1 8077   3.631   4.136   4.541 -0.7497 -0.7128 -0.2710
 1815SOL    HW2 8078   3.620   4.096   4.395 -2.3312  0.7256 -0.5822
 1816SOL     OW 8079   8.299   1.582   6.334 -0.4390  0.1770 -0.5286
 1816SOL    HW1 8080   8.370   1.646   6.332 -0.6773  0.5076  0.6299
 1816SOL    HW2 8081   8.337   1.503   6.294  0.1660  0.7353 -1.0820
 1817SOL     OW 8082   5.114   7.088   6.471  0.1654  1.1628 -0.5658
 1817SOL    HW1 8083   5.087   7.125   6.387 -1.5889 -1.1089 -1.1243
 1817SOL    HW2 8084   5.136   7.163   6.525 -0.8457  2.8242 -2.3436
 1818SOL     OW 8085   7.776   8.348   2.569 -0.5178  0.5058 -0.3165
 1818SOL    HW1 8086   7.730   8.355   2.486 -0.5751  0.0666 -0.3246
 1818SOL    HW2 8087   7.755   8.429   2.615 -1.7646  0.0690 -0.0808
 1819SOL     OW 8088   2.831   5.214   4.761 -0.3356  0.7037 -0.2554
 1819SOL    HW1 8089   2.904   5.180   4.813 -0.3109  1.0131 -0.0862
 1819SOL    HW2 8090   2.762   5.149   4.772 -0.6646  1.2244  0.9512
 1820SOL     OW 8091   4.945   7.086   3.395  0.4539  0.1100 -0.3944
 1820SOL    HW1 8092   4.985   7.171   3.378  0.1909  0.3470  0.1594
 1820SOL    HW2 8093   4.852   7.105   3.409  0.7938  0.1064  2.3934
 1821SOL     OW 8094   3.626   7.259   5.478 -0.2011 -0.3848 -0.0830
 1821SOL    HW1 8095   3.676   7.289   5.402 -0.8923 -1.8467 -1.1635
 1821SOL    HW2 8096   3.542   7.305   5.471  0.3906  0.9114  0.8865
 1822SOL     OW 8097   9.120   4.968   5.388 -0.5536 -0.5154  0.0936
 1822SOL    HW1 8098   9.134   5.061   5.371 -0.8273 -0.4041  0.4517
 1822SOL    HW2 8099   9.168   4.923   5.319 -0.2034 -0.1119  0.0704
 1823SOL     OW 8100   1.807   3.639   3.490  0.1611 -0.3062  0.4459
 1823SOL    HW1 8101   1.864   3.708   3.523  1.9045 -2.2905  1.9011
 1823SOL    HW2 8102   1.729   3.644   3.545  0.0536  0.7858  0.2093
 1824SOL     OW 8103   0.515   2.893   0.670  0.1573 -0.0711  0.0914
 1824SOL    HW1 8104   0.578   2.964   0.658  0.4120 -0.2208  0.5011
 1824SOL    HW2 8105   0.569   2.813   0.676 -0.1509 -0.3526 -0.7680
 1825SOL     OW 8106   9.413  10.268   7.441 -0.3648 -0.0488  0.5006
 1825SOL    HW1 8107   9.424  10.357   7.474  1.0575 -0.7609  2.0944
 1825SOL    HW2 8108   9.325  10.267   7.404  0.1617  2.4316 -1.0015
 1826SOL     OW 8109  10.184   7.927   4.206 -0.2013  0.0472 -0.4246
 1826SOL    HW1 8110  10.094   7.904   4.227 -0.7889  2.4183 -0.0909
 1826SOL    HW2 8111  10.201   7.886   4.121 -1.7365 -0.0479 -0.7034
 1827SOL     OW 8112   9.408   4.360   7.729  0.0527  0.1205 -0.0572
 1827SOL    HW1 8113   9.366   4.377   7.645  1.9062 -0.0289 -1.0748
 1827SOL    HW2 8114   9.394   4.266   7.744  2.0651 -0.5290 -1.6736
 1828SOL     OW 8115   1.424   2.807   7.447  0.2774 -0.1648 -0.0660
 1828SOL    HW1 8116   1.389   2.739   7.389 -0.4449 -0.2142  0.4132
 1828SOL    HW2 8117   1.498   2.766   7.491 -1.0938 -1.1828  1.3774
 1829SOL     OW 8118   1.034   7.528   4.952  0.7646 -0.1216 -0.0910
 1829SOL    HW1 8119   1.111   7.513   5.006 -0.0762 -0.6147  1.0266
 1829SOL    HW2 8120   1.061   7.594   4.888  1.4123  1.6322  1.8705
 1830SOL     OW 8121   8.546   2.873   7.543 -0.2396 -0.4079  0.5156
 1830SOL    HW1 8122   8.537   2.909   7.455  2.8151  1.7493  0.9252
 1830SOL    HW2 8123   8.460   2.886   7.583 -1.4715 -0.7232 -1.8398
 1831SOL     OW 8124   6.945   6.241   4.782 -0.4416  0.0245 -0.2513
 1831SOL    HW1 8125   7.029   6.222   4.740  0.4946  1.1469  1.0353
 1831SOL    HW2 8126   6.892   6.163   4.764  1.9078 -2.1478  1.4845
 1832SOL     OW 8127   3.829   2.838   6.044 -0.2038 -0.0396 -0.0134
 1832SOL    HW1 8128   3.880   2.898   5.990 -0.5096  0.7185  0.5185
 1832SOL    HW2 8129   3.889   2.812   6.114 -0.4861  0.6902  0.4975
 1833SOL     OW 8130   6.019   1.209   8.449 -0.1497  0.3642 -0.7442
 1833SOL    HW1 8131   5.997   1.128   8.405  0.1053  1.3541 -2.8334
 1833SOL    HW2 8132   5.935   1.246   8.476 -0.4897  0.5835 -2.0436
 1834SOL     OW 8133   3.873   2.469   4.142  0.4973  0.1227  0.0686
 1834SOL    HW1 8134   3.912   2.511   4.065  1.3079 -0.5345  0.1132
 1834SOL    HW2 8135   3.787   2.510   4.149  0.9008  1.1056 -0.4372
 1835SOL     OW 8136   8.882   4.568   4.816  0.7319 -0.5310  0.2302
 1835SOL    HW1 8137   8.846   4.629   4.881  0.0217  1.2926 -1.7422
 1835SOL    HW2 8138   8.971   4.552   4.846  0.8027  1.1515  1.0671
 1836SOL     OW 8139   7.904   4.759  10.161  0.1945  0.7528  0.1897
 1836SOL    HW1 8140   7.956   4.723  10.233  2.2915 -0.1809 -1.6793
 1836SOL    HW2 8141   7.926   4.704  10.086 -1.7466  1.8190 -1.2585
 1837SOL     OW 8142   1.909  10.199   2.963 -0.6075 -0.0558 -0.3799
 1837SOL    HW1 8143   1.932  10.111   2.932 -0.2447  0.2673 -1.0493
 1837SOL    HW2 8144   1.919  10.195   3.058 -1.3808 -0.9667 -0.3252
 1838SOL     OW 8145   0.864   6.291   9.325 -0.3245 -0.3494  0.7627
 1838SOL    HW1 8146   0.878   6.211   9.275 -1.2321  0.5374 -0.9978
 1838SOL    HW2 8147   0.950   6.312   9.361  0.5535 -0.6607 -1.0225
 1839SOL     OW 8148   6.667   7.166   3.287 -0.0514 -0.2402 -0.2910
 1839SOL    HW1 8149   6.692   7.128   3.203  0.2829 -0.4721 -0.0865
 1839SOL    HW2 8150   6.631   7.252   3.264 -1.4654 -0.9280 -0.8371
 1840SOL     OW 8151   9.079   8.399  10.206 -0.5014 -0.1122 -0.1873
 1840SOL    HW1 8152   9.045   8.405  10.117 -1.8333 -1.2559  0.2040
 1840SOL    HW2 8153   9.028   8.328  10.246 -0.1190  0.5583  1.5621
 1841SOL     OW 8154   4.547   1.726   5.581 -0.3921  0.1249  0.0297
 1841SOL    HW1 8155   4.613   1.727   5.512  0.9174  0.4863  1.2623
 1841SOL    HW2 8156   4.498   1.645   5.565  0.5143 -0.2968 -0.7410
 1842SOL     OW 8157   7.828   2.581   0.250  0.1815  0.2696  0.3590
 1842SOL    HW1 8158   7.753   2.625   0.290  1.0377 -0.4308  2.9447
 1842SOL    HW2 8159   7.802   2.489   0.244  0.8728 -0.0172  1.4800
 1843SOL     OW 8160   9.222   0.270   9.353 -0.5554 -0.1068  0.1711
 1843SOL    HW1 8161   9.188   0.343   9.405 -0.3472  0.6760 -0.7483
 1843SOL    HW2 8162   9.263   0.312   9.277  0.7885 -1.1185  0.2966
 1844SOL     OW 8163   6.417   5.606   1.204  0.3079 -0.0572 -0.3211
 1844SOL    HW1 8164   6.511   5.586   1.196  0.1601  0.0526 -4.7084
 1844SOL    HW2 8165   6.373   5.527   1.173 -1.1538 -0.2013  1.9427
 1845SOL     OW 8166  10.299   2.199   9.052  0.5085 -0.3747  0.2837
 1845SOL    HW1 8167  10.383   2.242   9.067  0.7161  0.1596 -2.0760
 1845SOL    HW2 8168  10.235   2.270   9.057  0.0984 -0.8152  2.3065
 1846SOL     OW 8169   0.660   3.954   8.093  0.1213  0.3242  0.1750
 1846SOL    HW1 8170   0.708   4.029   8.058 -1.4751  1.4333  0.2510
 1846SOL    HW2 8171   0.690   3.880   8.041  0.1594  1.4045 -1.4101
 1847SOL     OW 8172   3.693  10.063   4.175  0.0623 -0.6687  0.8852
 1847SOL    HW1 8173   3.782  10.072   4.139  0.1382  0.9681  1.4113
 1847SOL    HW2 8174   3.707  10.052   4.269 -0.2910 -0.6207  0.9420
 1848SOL     OW 8175   2.764   7.639   6.422  0.3910  0.1314  0.0868
 1848SOL    HW1 8176   2.822   7.590   6.365  1.1712  0.9786  0.1350
 1848SOL    HW2 8177   2.816   7.713   6.453 -0.3057  0.2044  1.1631
 1849SOL     OW 8178   8.910   4.527   6.068  0.6017 -0.1704 -0.2380
 1849SOL    HW1 8179   8.903   4.621   6.050  2.3240  0.3664  1.5474
 1849SOL    HW2 8180   9.004   4.509   6.066  0.2813 -1.9463 -0.8579
 1850SOL     OW 8181   4.272   0.690   7.833  0.2758 -0.0385 -0.0151
 1850SOL    HW1 8182   4.246   0.598   7.834 -2.9300  0.7205 -0.5864
 1850SOL    HW2 8183   4.365   0.689   7.814  0.5608 -3.1692  0.9927
 1851SOL     OW 8184   9.968   3.438   0.672 -0.0992 -0.1707  0.2426
 1851SOL    HW1 8185   9.917   3.359   0.658  0.7421 -0.6661 -0.0664
 1851SOL    HW2 8186   9.949   3.493   0.596  0.4700 -0.7053 -0.2934
 1852SOL     OW 8187   6.388   9.340   8.223 -0.0570  0.0987 -0.5581
 1852SOL    HW1 8188   6.427   9.415   8.179 -0.1013  0.3518 -0.1654
 1852SOL    HW2 8189   6.460   9.278   8.235 -0.0318  0.0532 -0.9283
 1853SOL     OW 8190   1.196   6.689   8.740  0.2337 -0.2660  0.0356
 1853SOL    HW1 8191   1.145   6.770   8.746  0.8542  0.1024  0.5371
 1853SOL    HW2 8192   1.152   6.638   8.673  0.1085  0.6929 -0.6356
 1854SOL     OW 8193   4.867   2.489   5.156  0.2312 -0.0774  0.3435
 1854SOL    HW1 8194   4.790   2.545   5.144 -0.4274 -0.8432  0.8493
 1854SOL    HW2 8195   4.928   2.542   5.207 -0.2071  0.3280  0.4452
 1855SOL     OW 8196   4.197   2.562   9.466  0.4079  0.0548  0.1082
 1855SOL    HW1 8197   4.189   2.470   9.440  0.3342  0.5656 -1.7988
 1855SOL    HW2 8198   4.163   2.565   9.556 -0.2592 -1.6453 -0.0634
 1856SOL     OW 8199   2.081   1.535   6.221  0.3502 -0.0377  0.7033
 1856SOL    HW1 8200   2.146   1.507   6.157  0.0664 -1.2769  0.9385
 1856SOL    HW2 8201   2.095   1.629   6.229  0.2601  0.1988 -1.3199
 1857SOL     OW 8202   3.946   4.494   5.385 -0.3403 -0.3423  0.0239
 1857SOL    HW1 8203   4.018   4.557   5.388 -1.6025  1.1365  0.5464
 1857SOL    HW2 8204   3.981   4.420   5.337  1.4180  0.4790 -0.0359
 1858SOL     OW 8205   4.095   3.742   9.610  0.1001  0.3946  0.1615
 1858SOL    HW1 8206   4.029   3.773   9.547  0.3705 -0.6350 -0.6628
 1858SOL    HW2 8207   4.051   3.748   9.695 -0.8199  0.3690 -0.2949
 1859SOL     OW 8208   5.981   7.097   7.871  0.1822  0.3632  0.4937
 1859SOL    HW1 8209   5.924   7.060   7.804  2.1584 -0.6326 -0.7536
 1859SOL    HW2 8210   5.942   7.069   7.954 -1.1509 -0.2125 -0.2954
 1860SOL     OW 8211   2.539   7.315   1.579  0.0594 -0.0463 -0.5834
 1860SOL    HW1 8212   2.485   7.239   1.600 -0.8630  0.7898  0.2312
 1860SOL    HW2 8213   2.481   7.371   1.526  0.1447  0.8096  0.1944
 1861SOL     OW 8214   8.919   0.538   1.898 -0.0616 -0.4152 -0.2191
 1861SOL    HW1 8215   8.985   0.513   1.833  1.6231  1.4147  0.6940
 1861SOL    HW2 8216   8.878   0.455   1.922 -0.1171 -1.2634 -2.9041
 1862SOL     OW 8217   6.754   6.099   8.294 -0.6679 -0.7526 -0.1589
 1862SOL    HW1 8218   6.676   6.053   8.325 -0.3261 -0.3837  1.3182
 1862SOL    HW2 8219   6.725   6.189   8.280 -1.0255 -1.0979 -1.8001
 1863SOL     OW 8220   2.394   6.527   2.045  0.5701  0.4570  0.5810
 1863SOL    HW1 8221   2.316   6.541   2.099 -1.0834  0.1768 -1.5746
 1863SOL    HW2 8222   2.431   6.614   2.032 -1.5957  1.2069 -1.3503
 1864SOL     OW 8223   3.453   2.735   6.199 -0.4446  0.0478  0.4564
 1864SOL    HW1 8224   3.418   2.689   6.123  1.0357 -0.5976  0.1402
 1864SOL    HW2 8225   3.421   2.824   6.190 -0.3723 -0.0409 -0.8780
 1865SOL     OW 8226   6.789   5.446   2.666 -0.5577  0.0687  0.4142
 1865SOL    HW1 8227   6.812   5.373   2.723 -0.0464  0.1986  0.3723
 1865SOL    HW2 8228   6.872   5.488   2.645 -0.4015 -1.3437 -2.2852
 1866SOL     OW 8229   4.534   4.901   4.529 -0.1523 -0.2631  0.0503
 1866SOL    HW1 8230   4.509   4.893   4.621 -0.7461  0.1409 -0.0624
 1866SOL    HW2 8231   4.568   4.990   4.522 -0.8442 -0.0113 -0.2706
 1867SOL     OW 8232   2.321   1.064   3.576  0.2096 -0.0211 -0.4259
 1867SOL    HW1 8233   2.305   0.987   3.522  0.2564  0.0867 -0.5928
 1867SOL    HW2 8234   2.234   1.092   3.605 -0.0072  1.0429 -1.9910
 1868SOL     OW 8235   9.014   8.594   8.484  0.1764 -0.3530  0.1780
 1868SOL    HW1 8236   8.983   8.639   8.562  0.2505  1.5075 -0.8159
 1868SOL    HW2 8237   8.934   8.574   8.435  0.1137 -1.7112  0.8015
 1869SOL     OW 8238   3.535   8.588   0.239  0.3424 -0.0850 -0.6550
 1869SOL    HW1 8239   3.587   8.578   0.319  0.6020 -1.2453 -0.9567
 1869SOL    HW2 8240   3.503   8.679   0.243 -0.9250 -0.5468  1.5444
 1870SOL     OW 8241  10.103   2.530   4.147 -0.5059 -0.8601 -0.3129
 1870SOL    HW1 8242  10.083   2.596   4.080 -0.9059 -1.5397 -0.8818
 1870SOL    HW2 8243  10.121   2.580   4.226 -3.0704 -0.1124 -0.1296
 1871SOL     OW 8244   9.796   4.872   0.103 -0.2585 -0.2131 -0.1639
 1871SOL    HW1 8245   9.793   4.850   0.196 -1.6867  1.6243  0.2816
 1871SOL    HW2 8246   9.714   4.838   0.068 -0.8188  1.1186 -0.2118
 1872SOL     OW 8247   1.189   1.898   0.864  0.0247  0.5740  0.3505
 1872SOL    HW1 8248   1.184   1.862   0.952  1.3615 -2.9554 -0.8246
 1872SOL    HW2 8249   1.101   1.884   0.828 -0.8214  2.9417  1.3329
 1873SOL     OW 8250   6.309   8.767   2.772 -0.5227 -0.4610 -0.5328
 1873SOL    HW1 8251   6.305   8.850   2.724 -0.8133 -0.0774  0.1337
 1873SOL    HW2 8252   6.252   8.708   2.723 -0.4431 -0.2186 -0.9203
 1874SOL     OW 8253   3.494   9.773   7.363 -0.5843 -0.4271  0.0125
 1874SOL    HW1 8254   3.415   9.753   7.312  0.1873 -2.4985 -0.4718
 1874SOL    HW2 8255   3.461   9.790   7.451 -1.5657 -1.8797 -0.0318
 1875SOL     OW 8256   2.186   0.069   4.608  0.4217  0.3933 -0.1163
 1875SOL    HW1 8257   2.133   0.136   4.651 -1.1005  0.2265 -1.6342
 1875SOL    HW2 8258   2.174  -0.009   4.661 -0.3829  0.5126 -0.1167
 1876SOL     OW 8259   2.004   4.738   9.530  0.0235  0.0006  0.0561
 1876SOL    HW1 8260   1.945   4.665   9.549 -0.2348 -0.1420 -1.2418
 1876SOL    HW2 8261   2.031   4.769   9.617 -1.2369 -0.5099  0.6634
 1877SOL     OW 8262   7.034   5.099   3.580  0.0573  0.4184  0.2484
 1877SOL    HW1 8263   6.969   5.059   3.637  1.3027 -0.0619  1.3991
 1877SOL    HW2 8264   7.075   5.167   3.634 -0.8023  2.0769 -1.0901
 1878SOL     OW 8265   3.928   0.935   2.553  0.3266  0.2196  0.5005
 1878SOL    HW1 8266   3.916   0.863   2.615  0.4179 -0.8353 -0.6520
 1878SOL    HW2 8267   3.993   0.901   2.491 -1.3243  0.3767 -1.4034
 1879SOL     OW 8268   1.409   3.207   2.673 -0.2208 -0.7149  0.0162
 1879SOL    HW1 8269   1.406   3.251   2.588  0.8778 -0.5279  0.0689
 1879SOL    HW2 8270   1.411   3.278   2.737 -0.8176 -0.8564  0.2083
 1880SOL     OW 8271   7.433   6.475   5.550  0.5424 -0.0912 -0.2845
 1880SOL    HW1 8272   7.485   6.476   5.469  0.2481 -2.0757 -0.5570
 1880SOL    HW2 8273   7.462   6.396   5.595  0.6403  0.9456  1.5582
 1881SOL     OW 8274   1.088   8.290   4.406  0.2728  0.1571  0.1628
 1881SOL    HW1 8275   1.123   8.259   4.323  1.0633 -0.0701  0.5725
 1881SOL    HW2 8276   0.995   8.307   4.389 -0.0877 -1.9239 -0.2161
 1882SOL     OW 8277   6.375   0.263   0.809  0.4783 -0.1500  0.3056
 1882SOL    HW1 8278   6.291   0.300   0.781 -0.0872 -2.4759 -1.3737
 1882SOL    HW2 8279   6.356   0.170   0.825  2.6357 -0.6324  0.3910
 1883SOL     OW 8280   5.514   1.121   4.956 -0.2986 -0.2314  0.5052
 1883SOL    HW1 8281   5.519   1.184   4.885 -2.2237 -0.4557  0.1048
 1883SOL    HW2 8282   5.605   1.095   4.973  0.1897 -0.6702 -2.3296
 1884SOL     OW 8283   7.794   4.780   9.100  0.1752  0.3105  0.3847
 1884SOL    HW1 8284   7.870   4.723   9.114  0.8779  0.3577 -2.6668
 1884SOL    HW2 8285   7.831   4.868   9.095  0.2137  0.2246 -2.3332
 1885SOL     OW 8286   9.687  10.255   7.372 -0.2442  0.0979 -0.6668
 1885SOL    HW1 8287   9.737  10.249   7.290 -1.0834  1.8787 -1.3757
 1885SOL    HW2 8288   9.598  10.275   7.343 -0.6756  0.1673  0.6771
 1886SOL     OW 8289   0.230   6.057   1.341 -0.1525 -0.9190  0.5000
 1886SOL    HW1 8290   0.319   6.038   1.311 -0.6361  0.7543 -2.3399
 1886SOL    HW2 8291   0.243   6.104   1.424  1.8824  1.5939 -1.0715
 1887SOL     OW 8292   6.659   9.345   9.948 -0.6772 -0.3449 -0.3834
 1887SOL    HW1 8293   6.703   9.417   9.903 -0.2912 -0.5895 -0.3946
 1887SOL    HW2 8294   6.612   9.388  10.020 -0.8327 -0.0268 -0.6708
 1888SOL     OW 8295   4.004   9.294   1.064  0.0636  0.5035  0.1540
 1888SOL    HW1 8296   4.082   9.333   1.102  0.9224  1.0436 -1.9896
 1888SOL    HW2 8297   4.011   9.201   1.085  1.2599  0.5614  0.0590
 1889SOL     OW 8298   8.918   9.310   7.193 -0.3255 -0.3778  0.5361
 1889SOL    HW1 8299   8.936   9.384   7.135 -1.9801  2.6476  3.5225
 1889SOL    HW2 8300   8.824   9.294   7.182 -0.6947  0.3332  2.3344
 1890SOL     OW 8301   2.700  10.109   0.627 -0.5027 -0.5612 -0.3777
 1890SOL    HW1 8302   2.671  10.177   0.566  1.0422  1.0356  0.5774
 1890SOL    HW2 8303   2.641  10.117   0.701 -0.3061 -0.2294 -0.2546
 1891SOL     OW 8304   5.999   8.290   3.737 -0.1699 -0.3100  0.5853
 1891SOL    HW1 8305   5.979   8.330   3.822  0.6059 -0.6655  0.9398
 1891SOL    HW2 8306   5.918   8.301   3.686 -0.3175  0.7778  1.0234
 1892SOL     OW 8307   0.424   2.459   2.776 -0.2299  0.5398 -0.6374
 1892SOL    HW1 8308   0.484   2.513   2.827 -0.7545  0.3206  0.2469
 1892SOL    HW2 8309   0.480   2.391   2.737  0.1390  0.5065 -0.0633
 1893SOL     OW 8310   6.242   3.527   7.729 -0.2636 -0.4789  0.0870
 1893SOL    HW1 8311   6.254   3.461   7.660  2.1035  0.5116 -0.5503
 1893SOL    HW2 8312   6.269   3.482   7.809  0.5790 -0.5513 -0.2220
 1894SOL     OW 8313   5.243   8.952   8.607  0.2663 -0.6366  0.7731
 1894SOL    HW1 8314   5.213   8.965   8.696  2.0125 -1.2801  1.4974
 1894SOL    HW2 8315   5.306   9.022   8.592 -1.0661  0.3605 -0.5193
 1895SOL     OW 8316  10.017   6.178   1.565  0.2004  0.0350  0.2058
 1895SOL    HW1 8317   9.993   6.110   1.502 -1.0796  0.3687  0.3121
 1895SOL    HW2 8318  10.067   6.241   1.514  0.4599 -0.4420 -0.1385
 1896SOL     OW 8319   4.969   7.990   1.732  0.2451  0.3676  0.4118
 1896SOL    HW1 8320   5.054   8.020   1.764 -0.1874  1.1080  0.8896
 1896SOL    HW2 8321   4.976   7.894   1.732  1.5156  0.4347 -0.7772
 1897SOL     OW 8322   5.634   8.766   0.748 -0.1821  0.9238  0.0508
 1897SOL    HW1 8323   5.610   8.704   0.817  0.1140  0.8669  0.1006
 1897SOL    HW2 8324   5.703   8.820   0.786  0.5333  0.3908 -0.4596
 1898SOL     OW 8325   8.666   2.766   2.700  0.0062  0.5379 -0.2241
 1898SOL    HW1 8326   8.747   2.759   2.651 -0.1614  1.6073 -0.6766
 1898SOL    HW2 8327   8.597   2.751   2.636 -0.1704  0.1964  0.0423
 1899SOL     OW 8328   3.660  10.086   2.254 -0.2229 -0.3081 -0.0226
 1899SOL    HW1 8329   3.748  10.112   2.280 -0.4620  0.4547  0.0668
 1899SOL    HW2 8330   3.616  10.169   2.235 -1.8248 -0.3836  2.7475
 1900SOL     OW 8331   9.061   9.951   0.803  0.1946  0.0332 -0.1318
 1900SOL    HW1 8332   9.041   9.915   0.717 -0.5303  0.8003 -0.2999
 1900SOL    HW2 8333   9.094  10.040   0.785  0.9203 -0.1281  0.3342
 1901SOL     OW 8334   5.586   7.427   1.813 -0.5150  0.1448 -0.0888
 1901SOL    HW1 8335   5.525   7.446   1.884  1.3730 -0.8076  1.9026
 1901SOL    HW2 8336   5.579   7.332   1.800 -0.5299  0.2469 -0.8842
 1902SOL     OW 8337   7.139   5.222   7.524  0.0041  0.0887 -0.7216
 1902SOL    HW1 8338   7.181   5.296   7.479 -1.3060  2.4728  1.6489
 1902SOL    HW2 8339   7.048   5.224   7.494 -0.2375 -0.0050 -0.0217
 1903SOL     OW 8340   2.647   0.753   2.575  0.1593  0.5409  0.1596
 1903SOL    HW1 8341   2.568   0.756   2.629 -1.2881  1.5587 -1.8640
 1903SOL    HW2 8342   2.719   0.767   2.636 -1.3639  1.4160  1.8345
 1904SOL     OW 8343   0.030   0.321   6.172  0.4189  0.5397 -0.0335
 1904SOL    HW1 8344  -0.055   0.306   6.214  1.0767 -1.8682  0.6088
 1904SOL    HW2 8345   0.085   0.359   6.241  0.4249  0.1912  0.1551
 1905SOL     OW 8346   7.869   3.419   0.456 -0.7102 -0.1527  0.1414
 1905SOL    HW1 8347   7.907   3.396   0.541 -1.5057 -0.8547  0.3239
 1905SOL    HW2 8348   7.935   3.473   0.413  0.9144 -2.0773  0.0639
 1906SOL     OW 8349   1.393   0.977   7.981 -0.0631 -0.5584  0.2252
 1906SOL    HW1 8350   1.345   0.906   7.938 -0.9749 -0.7736  1.5234
 1906SOL    HW2 8351   1.470   0.933   8.019 -0.2507 -0.7311  0.4129
 1907SOL     OW 8352   9.037   1.107   3.631 -0.1008 -0.5150 -0.2186
 1907SOL    HW1 8353   9.039   1.067   3.718 -0.6034 -1.9622 -0.8403
 1907SOL    HW2 8354   9.072   1.195   3.644  0.1653 -0.8301  1.3769
 1908SOL     OW 8355   4.419   1.588   8.262  0.4510  0.1252  0.2275
 1908SOL    HW1 8356   4.470   1.616   8.186  1.7076  2.6941  1.8973
 1908SOL    HW2 8357   4.328   1.594   8.234  0.9065  0.6382 -1.2028
 1909SOL     OW 8358   3.515   0.983   6.554  0.3366 -0.1756 -0.0158
 1909SOL    HW1 8359   3.443   0.919   6.557 -0.1729  0.4243  1.0306
 1909SOL    HW2 8360   3.594   0.931   6.572 -0.1847 -0.3841  1.8810
 1910SOL     OW 8361   1.358   0.030   5.726 -0.3351 -0.4093  0.1259
 1910SOL    HW1 8362   1.444   0.015   5.765  0.2091  0.0975 -0.8525
 1910SOL    HW2 8363   1.300   0.045   5.801  0.9078  1.7045  0.7580
 1911SOL     OW 8364   1.997   7.103   4.673  0.0266 -0.3822 -0.7408
 1911SOL    HW1 8365   2.015   7.065   4.759  1.1041  1.8597  0.1064
 1911SOL    HW2 8366   2.017   7.196   4.684 -0.3888  0.0594 -3.2688
 1912SOL     OW 8367   5.415   1.528   3.008  0.2375 -0.1213 -0.6336
 1912SOL    HW1 8368   5.501   1.569   3.002  0.9457 -1.4595  0.0432
 1912SOL    HW2 8369   5.358   1.597   3.040  0.8305  1.0625 -2.0108
 1913SOL     OW 8370   3.047   3.146   0.135  0.4250 -0.0208 -0.3333
 1913SOL    HW1 8371   3.045   3.225   0.080 -2.2739  1.2830  1.4176
 1913SOL    HW2 8372   2.995   3.082   0.086 -0.5124  0.5687 -0.1491
 1914SOL     OW 8373   2.830   0.233   3.354 -0.1491  0.1468  0.1519
 1914SOL    HW1 8374   2.829   0.323   3.321 -0.1013 -0.0074 -0.2852
 1914SOL    HW2 8375   2.840   0.179   3.275  0.4495 -0.2151  0.4726
 1915SOL     OW 8376   4.570   1.367   7.282 -0.7485 -0.0561 -0.4530
 1915SOL    HW1 8377   4.582   1.290   7.336  1.3310  1.1116  0.8828
 1915SOL    HW2 8378   4.486   1.353   7.238 -0.9964 -2.4842  0.6517
 1916SOL     OW 8379   4.450   4.585   4.019  0.3981  0.1205 -0.3925
 1916SOL    HW1 8380   4.533   4.605   4.061 -0.3339 -0.6308  1.5279
 1916SOL    HW2 8381   4.448   4.489   4.014 -1.2611 -0.0568  1.7470
 1917SOL     OW 8382   0.476  10.347   0.937  0.3140 -0.4140 -0.0022
 1917SOL    HW1 8383   0.394  10.327   0.892  0.5468 -1.2253 -0.0918
 1917SOL    HW2 8384   0.518  10.261   0.949  1.1085 -0.0224  0.1070
 1918SOL     OW 8385   1.480   7.768   1.722  0.1012  0.7802 -0.0375
 1918SOL    HW1 8386   1.532   7.839   1.760 -0.2635  0.0890  1.8831
 1918SOL    HW2 8387   1.390   7.789   1.744 -0.2512  0.8638 -1.4651
 1919SOL     OW 8388   6.945   7.598   1.454 -0.2357 -0.1099  0.2350
 1919SOL    HW1 8389   6.961   7.564   1.366  0.3642 -1.6437  0.8965
 1919SOL    HW2 8390   7.032   7.600   1.494 -0.4638  0.8825  0.7020
 1920SOL     OW 8391   1.327   6.513   5.497  0.2512  0.4645 -0.4453
 1920SOL    HW1 8392   1.351   6.490   5.587  0.6817  0.2522 -0.6134
 1920SOL    HW2 8393   1.234   6.535   5.502  0.2373  0.3041  0.0251
 1921SOL     OW 8394   9.288   4.237   6.835  0.2903  0.3695  0.0029
 1921SOL    HW1 8395   9.210   4.236   6.778  1.2548  0.8156 -1.3787
 1921SOL    HW2 8396   9.265   4.298   6.905 -1.9619 -2.1743  1.7310
 1922SOL     OW 8397   9.348   3.402   8.540 -0.3489  0.2129 -0.4424
 1922SOL    HW1 8398   9.377   3.398   8.631 -1.9611  1.2066  0.1703
 1922SOL    HW2 8399   9.300   3.320   8.527 -0.8212  0.4280 -0.1121
 1923SOL     OW 8400   4.032   3.715   4.699 -0.6305 -0.0875  0.0411
 1923SOL    HW1 8401   4.077   3.634   4.725  1.2746  1.2747  1.1800
 1923SOL    HW2 8402   4.102   3.778   4.686 -2.1768  1.9544  1.1242
 1924SOL     OW 8403   2.308   0.843   3.397 -0.6972 -0.2256  0.3921
 1924SOL    HW1 8404   2.347   0.909   3.340 -1.4952  0.3013  0.4502
 1924SOL    HW2 8405   2.301   0.765   3.342 -0.4545 -0.0476  0.1031
 1925SOL     OW 8406  10.097   3.363   1.842  0.0759  0.0703 -0.4303
 1925SOL    HW1 8407  10.005   3.368   1.815 -0.3844 -1.4662  0.7260
 1925SOL    HW2 8408  10.098   3.302   1.916  2.2141 -1.0025 -1.2443
 1926SOL     OW 8409   8.909   8.195   1.489  0.4795 -0.5004 -0.1959
 1926SOL    HW1 8410   8.952   8.279   1.471  0.7008 -0.6291 -0.2685
 1926SOL    HW2 8411   8.914   8.147   1.406 -0.2545 -0.3176 -0.3512
 1927SOL     OW 8412   4.708   7.587  10.286  0.2087 -0.2082 -0.4635
 1927SOL    HW1 8413   4.793   7.561  10.322  0.8845 -1.3855 -2.6940
 1927SOL    HW2 8414   4.645   7.557  10.351  1.4448  0.0745  0.9260
 1928SOL     OW 8415   4.482   1.908   4.956 -0.3226 -0.1214 -0.0467
 1928SOL    HW1 8416   4.495   1.813   4.958 -0.6126 -0.1684 -0.2656
 1928SOL    HW2 8417   4.551   1.943   5.013 -0.4727 -0.4907  0.3698
 1929SOL     OW 8418   6.181   3.142   9.045 -0.3192 -0.3271 -0.1042
 1929SOL    HW1 8419   6.164   3.232   9.071 -1.7582 -0.5628 -0.1588
 1929SOL    HW2 8420   6.262   3.147   8.994 -0.8858  1.0789 -0.9201
 1930SOL     OW 8421   7.377  10.296   0.893 -0.0720 -0.4184  0.4773
 1930SOL    HW1 8422   7.403  10.373   0.944 -1.3241 -0.3851  1.1064
 1930SOL    HW2 8423   7.364  10.329   0.804  0.6062 -0.1684  0.4612
 1931SOL     OW 8424   3.618   4.863   6.886 -0.0193 -0.3734  0.3003
 1931SOL    HW1 8425   3.662   4.876   6.801  0.2944  0.6130  0.6028
 1931SOL    HW2 8426   3.686   4.883   6.951 -0.6560  0.2798  0.7767
 1932SOL     OW 8427   1.813   0.189   2.040 -0.2381  0.3108  0.5617
 1932SOL    HW1 8428   1.839   0.143   1.960  0.8349  0.0319  1.0554
 1932SOL    HW2 8429   1.733   0.235   2.016 -1.2604 -1.6435 -0.0003
 1933SOL     OW 8430   9.389   6.305   9.463  0.0068  0.0730 -0.5092
 1933SOL    HW1 8431   9.347   6.269   9.385 -0.7570 -3.4753  1.2926
 1933SOL    HW2 8432   9.462   6.245   9.480  1.4915  2.0370  0.3444
 1934SOL     OW 8433   8.350   0.393   1.216 -0.1725  0.0655  0.2900
 1934SOL    HW1 8434   8.324   0.307   1.182 -0.9135  0.1681  0.5669
 1934SOL    HW2 8435   8.436   0.410   1.177 -0.9997  0.1995 -1.5821
 1935SOL     OW 8436   9.895   2.136   9.519  0.1778 -0.2627  0.2987
 1935SOL    HW1 8437   9.847   2.071   9.467 -0.8011  1.2712 -0.8105
 1935SOL    HW2 8438   9.986   2.126   9.491  0.0756 -1.2867  0.2995
 1936SOL     OW 8439   3.336   0.783   2.942  0.4694 -0.2424 -0.2935
 1936SOL    HW1 8440   3.269   0.731   2.899  0.3226 -0.9683  0.7836
 1936SOL    HW2 8441   3.396   0.719   2.980  1.4456  0.3899 -0.7180
 1937SOL     OW 8442   7.472   9.945   3.665  0.2486 -0.3699 -0.1159
 1937SOL    HW1 8443   7.551   9.966   3.714  0.7901  0.9449 -1.4676
 1937SOL    HW2 8444   7.504   9.920   3.578 -0.8250  2.2736 -1.3978
 1938SOL     OW 8445   1.478   8.784   5.774 -0.4497  0.3233  0.3000
 1938SOL    HW1 8446   1.399   8.767   5.723 -2.1760  1.0239  2.6045
 1938SOL    HW2 8447   1.506   8.871   5.747 -0.3184  0.0018 -0.6543
 1939SOL     OW 8448   4.330   9.101   5.560  0.2041  0.2406  0.0557
 1939SOL    HW1 8449   4.254   9.074   5.508 -0.8402  0.1976  1.5424
 1939SOL    HW2 8450   4.402   9.048   5.526 -0.3425  0.4834 -1.5793
 1940SOL     OW 8451   6.842   8.198   0.445 -0.4346 -0.3773 -0.3718
 1940SOL    HW1 8452   6.859   8.184   0.538  0.1758 -0.2394 -0.4613
 1940SOL    HW2 8453   6.899   8.135   0.401  0.1545  0.3619 -0.6866
 1941SOL     OW 8454   8.447   9.535   2.595 -0.2166 -0.6069 -0.0150
 1941SOL    HW1 8455   8.455   9.629   2.608  0.4139 -0.2032 -2.7260
 1941SOL    HW2 8456   8.361   9.524   2.554  0.2985 -0.9884 -1.0422
 1942SOL     OW 8457   3.507   6.616   6.078  0.1092  0.4140 -0.1708
 1942SOL    HW1 8458   3.481   6.655   6.160  1.4877  2.8785 -0.8124
 1942SOL    HW2 8459   3.467   6.529   6.079  0.2994  0.2386  3.1767
 1943SOL     OW 8460   8.632   2.825   2.359 -0.1530  0.3090 -0.4639
 1943SOL    HW1 8461   8.615   2.758   2.293 -1.5719 -0.8581  1.0148
 1943SOL    HW2 8462   8.691   2.783   2.421  0.6527  1.1773 -0.6296
 1944SOL     OW 8463   9.957   0.584   3.142  0.1832  0.0347 -0.2413
 1944SOL    HW1 8464  10.036   0.594   3.193  0.4365 -0.3885 -0.5431
 1944SOL    HW2 8465   9.889   0.630   3.192  0.9627  1.9215 -0.8230
 1945SOL     OW 8466   1.027   4.469   5.061  0.1798 -0.1297 -0.2961
 1945SOL    HW1 8467   0.945   4.457   5.109  0.1204  0.3505 -0.2756
 1945SOL    HW2 8468   1.073   4.385   5.071  0.5898  0.2646  1.3998
 1946SOL     OW 8469   0.726   2.829   5.741 -0.0123 -0.1054  0.0928
 1946SOL    HW1 8470   0.763   2.742   5.726 -1.7073 -0.8140 -0.2650
 1946SOL    HW2 8471   0.723   2.870   5.654  1.4388  0.6255  0.3571
 1947SOL     OW 8472   9.166   7.979   9.505  0.3930 -0.3647 -0.0476
 1947SOL    HW1 8473   9.204   8.048   9.450 -1.3172  0.9022  0.2459
 1947SOL    HW2 8474   9.156   7.904   9.447  2.9872 -0.6938 -0.1931
 1948SOL     OW 8475   1.645   7.334   4.214  0.1211  0.0479  0.2894
 1948SOL    HW1 8476   1.628   7.407   4.273 -0.5529  1.0736 -1.1007
 1948SOL    HW2 8477   1.650   7.375   4.127 -2.0688 -1.7128 -0.7751
 1949SOL     OW 8478   2.050   7.373   4.764 -0.0857  0.3155 -0.5468
 1949SOL    HW1 8479   2.096   7.327   4.835 -0.7868 -2.0189 -1.5002
 1949SOL    HW2 8480   2.119   7.402   4.705  0.4206  1.0979  0.4040
 1950SOL     OW 8481   0.532   9.263  10.064 -0.0071 -0.2275  0.1072
 1950SOL    HW1 8482   0.442   9.294  10.075 -0.1490 -0.5014 -0.2555
 1950SOL    HW2 8483   0.551   9.214  10.143  0.2052  0.7407  0.6765
 1951SOL     OW 8484   9.216   4.473   6.530 -0.4072  0.1270 -0.1091
 1951SOL    HW1 8485   9.184   4.440   6.446 -1.2382  0.3492  0.1126
 1951SOL    HW2 8486   9.310   4.485   6.517 -0.6817  1.1584 -1.3486
 1952SOL     OW 8487   3.797   1.843   0.161  0.0115 -0.6011 -0.3936
 1952SOL    HW1 8488   3.843   1.857   0.079  0.9048 -0.3549  0.1335
 1952SOL    HW2 8489   3.866   1.830   0.226 -0.4870  3.0649  1.0786
 1953SOL     OW 8490   9.474   5.254   1.880  0.0494  0.4237 -0.0092
 1953SOL    HW1 8491   9.472   5.252   1.976 -1.8689  0.9677  0.0023
 1953SOL    HW2 8492   9.540   5.321   1.860  0.9126 -0.1228  0.9044
 1954SOL     OW 8493   7.001   9.595   5.794  0.3713  0.4420  0.3385
 1954SOL    HW1 8494   6.960   9.563   5.714  0.1180  1.0985  0.1968
 1954SOL    HW2 8495   7.006   9.519   5.852 -0.5968  0.2456  0.1709
 1955SOL     OW 8496   0.620   9.444   6.522  0.3188 -0.0701  0.3465
 1955SOL    HW1 8497   0.614   9.387   6.598  1.4233  0.3506  0.7649
 1955SOL    HW2 8498   0.655   9.526   6.557 -0.6157  0.6574 -0.3539
 1956SOL     OW 8499   8.298   8.597   5.832  0.4886 -0.0873 -0.8254
 1956SOL    HW1 8500   8.282   8.536   5.760  0.7569 -1.2497  0.0687
 1956SOL    HW2 8501   8.211   8.632   5.854  0.2176 -0.7156 -0.8689
 1957SOL     OW 8502   2.845   4.413   0.058 -0.0253 -0.2342  0.4984
 1957SOL    HW1 8503   2.751   4.419   0.079 -0.1525  0.0692 -0.1177
 1957SOL    HW2 8504   2.882   4.493   0.096 -0.1681  0.0668  0.0165
 1958SOL     OW 8505   3.496   6.482   7.588 -0.5482  0.2758 -0.0714
 1958SOL    HW1 8506   3.569   6.425   7.611 -1.4491  0.5055  4.0574
 1958SOL    HW2 8507   3.489   6.544   7.661 -3.3237  1.8462 -1.4915
 1959SOL     OW 8508   5.024   8.578   6.242 -0.4378 -0.0315 -0.1714
 1959SOL    HW1 8509   5.021   8.554   6.335 -2.5545  1.1202  0.1106
 1959SOL    HW2 8510   4.988   8.666   6.239 -0.5011 -0.0874 -2.1112
 1960SOL     OW 8511   8.611   6.448   3.767 -0.6637  0.7664 -0.5943
 1960SOL    HW1 8512   8.567   6.455   3.851  0.3751 -0.9391  0.1425
 1960SOL    HW2 8513   8.570   6.372   3.725  0.0675  0.4922 -0.8300
 1961SOL     OW 8514   8.304   1.972   5.698  0.4717 -0.0806  0.2397
 1961SOL    HW1 8515   8.225   2.017   5.666  0.7856  0.3675  0.0929
 1961SOL    HW2 8516   8.363   1.972   5.623  0.6746 -0.2791  0.3986
 1962SOL     OW 8517   7.628   3.595   6.699 -0.3704  0.0814 -0.2508
 1962SOL    HW1 8518   7.684   3.589   6.776  1.0820 -0.1519 -1.2792
 1962SOL    HW2 8519   7.643   3.513   6.652 -0.8714  0.4178 -1.0150
 1963SOL     OW 8520   3.401   5.203   4.116  0.0303  0.2586  0.2729
 1963SOL    HW1 8521   3.396   5.255   4.196 -1.2225  1.8316 -0.7550
 1963SOL    HW2 8522   3.354   5.123   4.137 -0.0275  0.5256  1.2016
 1964SOL     OW 8523   3.675   6.260   7.653  0.2175 -0.3242 -0.0060
 1964SOL    HW1 8524   3.592   6.246   7.698 -0.0741 -2.1672 -1.0375
 1964SOL    HW2 8525   3.732   6.297   7.721 -1.0401 -0.2746  1.0732
 1965SOL     OW 8526   0.118   0.538   5.496  0.3533 -0.2199 -0.4582
 1965SOL    HW1 8527   0.210   0.561   5.512 -0.3688  2.5162  0.3683
 1965SOL    HW2 8528   0.087   0.608   5.438 -1.6336 -0.0742  0.7160
 1966SOL     OW 8529   9.028   9.631   4.229 -0.2218 -0.2476  0.1665
 1966SOL    HW1 8530   8.975   9.624   4.308 -1.4181 -0.6154 -0.6385
 1966SOL    HW2 8531   9.106   9.680   4.256 -0.9469  0.2737  1.3869
 1967SOL     OW 8532   8.693   3.648   4.591  0.4448 -0.0513 -0.2028
 1967SOL    HW1 8533   8.736   3.730   4.615 -2.0018  1.3985 -0.4832
 1967SOL    HW2 8534   8.676   3.603   4.674  1.9998 -0.4296 -0.0644
 1968SOL     OW 8535   2.971   1.641   1.966 -0.4994 -0.2301 -0.1562
 1968SOL    HW1 8536   2.921   1.559   1.964 -1.1402  0.0231  2.5190
 1968SOL    HW2 8537   3.039   1.626   2.031 -0.0198  1.0585 -0.3371
 1969SOL     OW 8538   3.832   2.258   2.081  0.0370  0.3799 -0.2254
 1969SOL    HW1 8539   3.881   2.194   2.030  1.6279  0.8113  0.6889
 1969SOL    HW2 8540   3.897   2.325   2.104 -1.0702  1.1633  0.7407
 1970SOL     OW 8541   6.054   8.500   1.222  0.0202  0.7796 -0.1455
 1970SOL    HW1 8542   6.020   8.576   1.176 -1.3387  1.3641  1.6656
 1970SOL    HW2 8543   6.149   8.507   1.216 -0.0608  0.4141 -3.3664
 1971SOL     OW 8544   3.126   9.041   6.385  0.1127  0.0121  0.3287
 1971SOL    HW1 8545   3.205   8.995   6.414  0.4275  1.0154  1.1057
 1971SOL    HW2 8546   3.147   9.072   6.297  0.8113  0.7563  0.7422
 1972SOL     OW 8547   0.123   7.066   8.471 -0.3837  0.1378  0.0702
 1972SOL    HW1 8548   0.114   7.047   8.565 -0.3900  1.2368  0.3099
 1972SOL    HW2 8549   0.213   7.095   8.461  0.5315 -2.6704 -0.8039
 1973SOL     OW 8550   5.912   4.935   7.025  0.1526 -0.6471 -0.1071
 1973SOL    HW1 8551   5.997   4.908   6.990 -0.3182 -2.2180 -0.1376
 1973SOL    HW2 8552   5.857   4.856   7.018 -2.6719  1.3082 -4.0649
 1974SOL     OW 8553   0.341   9.315   9.279  0.4858 -0.0808 -0.2620
 1974SOL    HW1 8554   0.322   9.358   9.196 -1.7369  0.3331  0.3963
 1974SOL    HW2 8555   0.259   9.272   9.303  1.0486 -0.1291  1.7650
 1975SOL     OW 8556   9.041   5.002   6.974  0.2330  0.4684 -0.0613
 1975SOL    HW1 8557   8.953   5.013   7.011  0.2934  1.9154 -0.2824
 1975SOL    HW2 8558   9.084   5.086   6.989  1.7582 -0.3561  0.4463
 1976SOL     OW 8559   5.856   1.391   1.139  0.2836 -0.4039 -0.1550
 1976SOL    HW1 8560   5.948   1.398   1.165  0.5687  0.0392 -1.2393
 1976SOL    HW2 8561   5.855   1.417   1.047 -0.7517 -1.5660 -0.4961
 1977SOL     OW 8562   6.098   3.259   1.360  0.0303  0.4727 -0.5178
 1977SOL    HW1 8563   6.141   3.303   1.287  2.1909 -0.4385  0.1115
 1977SOL    HW2 8564   6.156   3.275   1.435 -1.0936 -0.2568  0.5488
 1978SOL     OW 8565   6.692   6.868   6.844  0.3128 -0.0860 -0.0915
 1978SOL    HW1 8566   6.641   6.884   6.765 -0.6343  2.6365  0.9517
 1978SOL    HW2 8567   6.669   6.778   6.869 -5.3376  1.2568  1.0534
 1979SOL     OW 8568   1.753   8.469   3.787 -0.2328 -0.2755 -0.1929
 1979SOL    HW1 8569   1.795   8.533   3.730  0.5657 -0.8270 -0.2403
 1979SOL    HW2 8570   1.793   8.482   3.873 -0.6067 -0.2124 -0.0262
 1980SOL     OW 8571   9.318   1.841   9.052 -0.2950 -0.0012  0.1082
 1980SOL    HW1 8572   9.337   1.851   8.959 -0.3177  0.1243  0.1163
 1980SOL    HW2 8573   9.303   1.747   9.064  0.1138 -0.0693  0.0669
 1981SOL     OW 8574   6.389   1.940   5.380 -0.2936  0.0810  0.5745
 1981SOL    HW1 8575   6.445   2.017   5.396  0.6232 -0.9755  3.0142
 1981SOL    HW2 8576   6.301   1.970   5.399 -0.3081  1.1380 -0.9528
 1982SOL     OW 8577   9.375   8.906   6.728 -0.5009  0.2774 -0.5257
 1982SOL    HW1 8578   9.392   8.986   6.679 -0.4186 -0.4366 -1.7020
 1982SOL    HW2 8579   9.290   8.921   6.770 -0.4865  0.9694 -0.7352
 1983SOL     OW 8580   4.700   7.199   0.240  0.8392  0.0760 -0.2544
 1983SOL    HW1 8581   4.635   7.236   0.182  1.0703  3.0471  1.1929
 1983SOL    HW2 8582   4.649   7.155   0.308  0.3809  0.7150 -0.1734
 1984SOL     OW 8583   8.066   3.024   1.465  0.0543  0.1268  0.4410
 1984SOL    HW1 8584   8.103   3.107   1.432  0.0134  0.6936  1.7572
 1984SOL    HW2 8585   7.992   3.051   1.518  0.2907 -0.7318  1.2226
 1985SOL     OW 8586   8.059   1.775   6.158  0.5276 -0.1261  0.0891
 1985SOL    HW1 8587   8.042   1.796   6.249  0.9810  0.8021 -0.0202
 1985SOL    HW2 8588   8.017   1.846   6.109  1.7007  0.3052 -0.3329
 1986SOL     OW 8589   4.007   6.084   8.594 -0.4985  0.4892  0.6092
 1986SOL    HW1 8590   4.030   5.997   8.625 -1.1254  0.6840  1.6582
 1986SOL    HW2 8591   4.083   6.138   8.617 -0.0959  0.2291 -0.0705
 1987SOL     OW 8592   7.332   2.373   3.665  0.1331  0.4918  0.2371
 1987SOL    HW1 8593   7.301   2.284   3.649  1.2115  0.0669  0.4532
 1987SOL    HW2 8594   7.293   2.396   3.749  1.6970 -0.6686  1.3296
 1988SOL     OW 8595   1.769   0.144   6.563  0.0881  0.1338  0.5318
 1988SOL    HW1 8596   1.837   0.131   6.630 -0.0047  0.6540  0.7290
 1988SOL    HW2 8597   1.816   0.141   6.480  0.3199  0.2731  0.6567
 1989SOL     OW 8598   6.240   2.719   1.629  0.1191  0.1402 -0.1541
 1989SOL    HW1 8599   6.149   2.707   1.601 -0.3795  0.7875  1.0858
 1989SOL    HW2 8600   6.233   2.772   1.709  1.4396 -1.8313  1.3456
 1990SOL     OW 8601   5.083   1.780   5.806  0.3845  0.7784  0.3184
 1990SOL    HW1 8602   5.137   1.838   5.860  0.2877 -0.6060  2.0038
 1990SOL    HW2 8603   5.024   1.738   5.868 -1.5631  1.0376 -1.2610
 1991SOL     OW 8604   1.927   2.583   3.473  0.0283  0.0091  0.3632
 1991SOL    HW1 8605   1.951   2.600   3.382  0.1640  0.0298  0.4040
 1991SOL    HW2 8606   1.891   2.494   3.471 -1.1512  0.4740  0.0594
 1992SOL     OW 8607   2.973   5.475   1.437  0.1932 -0.0085 -0.2829
 1992SOL    HW1 8608   3.061   5.488   1.402  0.8507 -3.0649 -0.0480
 1992SOL    HW2 8609   2.960   5.548   1.498  1.5695  1.8103 -2.0026
 1993SOL     OW 8610   1.646   5.205   3.943  0.0030 -0.2118 -0.7175
 1993SOL    HW1 8611   1.688   5.173   3.864  0.3614 -0.0686 -0.5866
 1993SOL    HW2 8612   1.617   5.126   3.989 -0.2402 -0.2923 -1.0059
 1994SOL     OW 8613   6.968   2.858   5.065 -0.3521  0.1669 -0.3131
 1994SOL    HW1 8614   6.883   2.819   5.088  0.1704 -0.9219 -0.1593
 1994SOL    HW2 8615   7.022   2.845   5.142  0.6515 -1.2438 -1.2045
 1995SOL     OW 8616   1.911   0.162   8.537 -0.2216  0.2529  0.2952
 1995SOL    HW1 8617   1.821   0.178   8.566  0.0570 -0.7066  1.7997
 1995SOL    HW2 8618   1.960   0.239   8.565 -0.2689  0.0393  0.9819
 1996SOL     OW 8619   9.951   8.320   7.344  0.3850  0.0761 -0.3196
 1996SOL    HW1 8620   9.859   8.330   7.368  0.1453 -2.7096  0.3128
 1996SOL    HW2 8621   9.968   8.389   7.280 -2.0747  0.7863 -0.2723
 1997SOL     OW 8622   7.015   0.395   3.234 -0.4668  0.1286 -0.5609
 1997SOL    HW1 8623   7.029   0.460   3.304 -0.0525  1.0389 -1.4638
 1997SOL    HW2 8624   7.090   0.337   3.240 -0.7396 -0.1626  0.1331
 1998SOL     OW 8625   8.202   7.050   1.073  0.0163 -0.0560  0.3259
 1998SOL    HW1 8626   8.120   7.090   1.042  0.1210  2.9433  3.3119
 1998SOL    HW2 8627   8.267   7.073   1.007 -0.6264  2.0302  0.3428
 1999SOL     OW 8628   8.778   5.773   8.984  0.0470 -0.5350  0.1496
 1999SOL    HW1 8629   8.838   5.796   8.913  0.7540  0.8378  1.1347
 1999SOL    HW2 8630   8.700   5.738   8.941  0.8102 -0.5661 -1.2360
 2000SOL     OW 8631   6.147   8.527  10.149 -0.2557 -0.0259 -0.0065
 2000SOL    HW1 8632   6.071   8.557  10.100 -0.4546  0.8529  0.8095
 2000SOL    HW2 8633   6.211   8.597  10.138  0.6300 -0.9570 -1.0678
 2001SOL     OW 8634   4.748   5.562   0.455 -0.8905  0.5442  0.3101
 2001SOL    HW1 8635   4.783   5.573   0.544 -0.0672  1.0689 -0.0682
 2001SOL    HW2 8636   4.662   5.523   0.468 -0.7217  0.4862  1.3369
 2002SOL     OW 8637   9.330   0.315   4.262 -0.0424  0.4586 -0.3301
 2002SOL    HW1 8638   9.395   0.249   4.288 -1.3137 -1.0565 -0.8134
 2002SOL    HW2 8639   9.354   0.393   4.311  0.6533 -0.8034  1.4288
 2003SOL     OW 8640   1.773   4.310   8.870  0.1805 -0.0414 -0.2345
 2003SOL    HW1 8641   1.752   4.400   8.843 -1.4686 -0.4677 -0.4374
 2003SOL    HW2 8642   1.813   4.271   8.793  1.2848  0.6086 -0.0226
 2004SOL     OW 8643   8.093   3.997   0.575 -0.1509  0.5132 -0.1739
 2004SOL    HW1 8644   8.104   4.042   0.658  3.0955  1.8151 -1.1406
 2004SOL    HW2 8645   8.005   3.958   0.579 -1.1263  2.7208  2.7363
 2005SOL     OW 8646   5.415   1.116   2.646 -0.4669 -0.0595 -0.1259
 2005SOL    HW1 8647   5.346   1.182   2.643 -0.4933 -0.0389  0.7586
 2005SOL    HW2 8648   5.418   1.089   2.738  0.9578  0.2110 -0.0801
 2006SOL     OW 8649   7.152   8.302   2.079 -0.0661  0.4622 -0.5002
 2006SOL    HW1 8650   7.062   8.319   2.049 -0.1647 -1.4532 -1.3814
 2006SOL    HW2 8651   7.166   8.209   2.062  1.2623  0.1625  1.8377
 2007SOL     OW 8652   2.950   8.682   5.917 -0.0494  0.4483  0.0767
 2007SOL    HW1 8653   3.046   8.675   5.918 -0.0803 -1.2190 -1.6261
 2007SOL    HW2 8654   2.923   8.637   5.998  0.5879 -0.1639 -0.0311
 2008SOL     OW 8655   0.611   0.082   6.287 -0.3536  0.1952  0.2544
 2008SOL    HW1 8656   0.675   0.027   6.331 -0.5049 -0.2161 -0.0311
 2008SOL    HW2 8657   0.663   0.141   6.232 -0.2303 -1.9409 -2.1290
 2009SOL     OW 8658   7.754   7.009   5.666 -0.1629 -0.3551 -0.6553
 2009SOL    HW1 8659   7.850   7.013   5.675 -0.3218  0.2529  1.3286
 2009SOL    HW2 8660   7.735   7.064   5.590  1.1163 -1.4464 -1.8264
 2010SOL     OW 8661   1.888  10.178   8.866  0.4355 -0.3873 -0.1768
 2010SOL    HW1 8662   1.858  10.090   8.890 -0.3430 -0.5507 -1.6581
 2010SOL    HW2 8663   1.808  10.230   8.857  0.8050  0.1125 -0.6754
 2011SOL     OW 8664   8.029   9.305   0.923  0.0458 -0.0518  0.2320
 2011SOL    HW1 8665   8.022   9.213   0.897 -0.3445  0.2328 -0.7031
 2011SOL    HW2 8666   7.972   9.313   0.999  0.1749 -0.6009  0.3961
 2012SOL     OW 8667   4.095   8.668   8.058  0.8287 -0.0736 -0.3416
 2012SOL    HW1 8668   4.051   8.752   8.063  1.4760  0.3004 -0.7498
 2012SOL    HW2 8669   4.147   8.672   7.977  4.0150  0.7254  1.5450
 2013SOL     OW 8670   5.278   9.642   6.478  0.2174  0.2752  0.2134
 2013SOL    HW1 8671   5.366   9.607   6.465 -0.4288 -1.2526 -0.1827
 2013SOL    HW2 8672   5.251   9.672   6.392  0.3982  0.8979  0.3669
 2014SOL     OW 8673   9.795   1.970   8.188 -0.4961 -0.0352 -0.2501
 2014SOL    HW1 8674   9.838   2.011   8.263 -1.7023 -1.3863  1.2226
 2014SOL    HW2 8675   9.814   2.030   8.115 -0.8760  2.3493  1.4728
 2015SOL     OW 8676   3.924   2.204   6.804  0.0532 -0.0626 -0.3298
 2015SOL    HW1 8677   3.880   2.182   6.721  2.5570  0.8317 -2.0083
 2015SOL    HW2 8678   4.006   2.154   6.801  0.3468  0.2589  1.4954
 2016SOL     OW 8679   1.629   5.863   6.888 -0.2747 -0.0916  0.2218
 2016SOL    HW1 8680   1.660   5.799   6.951 -0.1072 -0.9825 -0.7275
 2016SOL    HW2 8681   1.562   5.913   6.934 -1.4292 -1.8835  0.5729
 2017SOL     OW 8682   4.011   7.335   6.915  0.1575 -0.2502 -0.3164
 2017SOL    HW1 8683   4.058   7.300   6.839 -1.7462 -0.1191 -1.5992
 2017SOL    HW2 8684   4.015   7.265   6.980  0.1843 -1.1115 -1.2241
 2018SOL     OW 8685   6.732   8.043   5.376  0.9426 -0.1629  0.8043
 2018SOL    HW1 8686   6.715   8.009   5.464 -2.8108 -0.9667 -0.0446
 2018SOL    HW2 8687   6.698   8.133   5.378  3.7704  0.9992  0.9249
 2019SOL     OW 8688   8.607   7.723   5.676 -0.3867  0.2596 -0.1026
 2019SOL    HW1 8689   8.696   7.705   5.705 -1.2953 -0.6978  2.3921
 2019SOL    HW2 8690   8.593   7.666   5.600  0.4052 -1.2861  0.8897
 2020SOL     OW 8691   6.121   2.435   5.680 -0.2366  0.1357  0.3165
 2020SOL    HW1 8692   6.033   2.406   5.656  0.3595 -2.0820  0.6599
 2020SOL    HW2 8693   6.169   2.438   5.597  0.1586 -1.6037  0.4541
 2021SOL     OW 8694   8.534   2.065   3.456  0.0842  0.7062  0.0929
 2021SOL    HW1 8695   8.578   2.075   3.540 -1.5979  0.3435  1.0789
 2021SOL    HW2 8696   8.469   1.995   3.472 -0.3343  0.7048 -1.4707
 2022SOL     OW 8697   0.297   0.900   7.975 -0.1652 -0.1683  0.4028
 2022SOL    HW1 8698   0.215   0.947   7.958 -0.3220 -0.9505 -1.0749
 2022SOL    HW2 8699   0.270   0.821   8.021 -0.3529 -0.8340 -0.8169
 2023SOL     OW 8700   1.160   9.524   3.306 -0.1140  0.0593  0.3605
 2023SOL    HW1 8701   1.090   9.468   3.342  1.2575 -1.6174  0.5668
 2023SOL    HW2 8702   1.216   9.543   3.381  0.3535  0.2887 -0.0419
 2024SOL     OW 8703   1.841   6.267   5.204 -0.0293  0.5966 -0.3206
 2024SOL    HW1 8704   1.885   6.299   5.283  1.9045 -0.6219 -0.8485
 2024SOL    HW2 8705   1.782   6.338   5.180  2.5386  2.9341 -0.2704
 2025SOL     OW 8706   3.361   4.820   6.485  0.1706 -0.2060 -0.2920
 2025SOL    HW1 8707   3.278   4.771   6.493 -0.7983  1.4659  0.3604
 2025SOL    HW2 8708   3.378   4.852   6.573  1.0032  0.2910 -0.6240
 2026SOL     OW 8709  10.130   4.849   7.551  0.2184  0.3608  0.1932
 2026SOL    HW1 8710  10.067   4.811   7.489  0.8146  1.8151 -1.3745
 2026SOL    HW2 8711  10.205   4.790   7.547 -1.1492 -1.6966  2.4858
 2027SOL     OW 8712   0.421   9.415   6.360 -0.0603 -0.0929 -0.2384
 2027SOL    HW1 8713   0.342   9.402   6.413 -0.5262 -1.3847 -1.1962
 2027SOL    HW2 8714   0.486   9.448   6.422 -0.5927 -1.5266  1.1562
 2028SOL     OW 8715   0.775   9.311   1.416  0.2005  0.0119 -0.1631
 2028SOL    HW1 8716   0.740   9.368   1.347  1.2746  1.3744  0.3829
 2028SOL    HW2 8717   0.848   9.360   1.453 -0.9790 -0.2093  2.6598
 2029SOL     OW 8718   6.669   6.005   3.624 -0.0883  0.4741 -0.2148
 2029SOL    HW1 8719   6.704   6.083   3.667 -0.4541  0.9518 -0.7744
 2029SOL    HW2 8720   6.738   5.939   3.634  0.1236  0.7920  0.4742
 2030SOL     OW 8721   2.534   2.885   9.014  0.1444  0.0180 -0.0798
 2030SOL    HW1 8722   2.477   2.809   9.022  1.8918 -1.3638 -0.1202
 2030SOL    HW2 8723   2.592   2.864   8.941  2.5368  0.0474  1.6831
 2031SOL     OW 8724   7.127   4.792   2.570 -0.3990  0.0583  0.8537
 2031SOL    HW1 8725   7.059   4.802   2.503 -0.0858 -0.5142  0.4372
 2031SOL    HW2 8726   7.083   4.748   2.643 -0.8343  1.0174  1.1768
 2032SOL     OW 8727   1.062   5.628   3.553  0.0676  0.1862 -0.3702
 2032SOL    HW1 8728   1.106   5.572   3.615 -0.1341  2.0278  1.5549
 2032SOL    HW2 8729   1.130   5.653   3.490  0.3194 -1.5538 -0.8177
 2033SOL     OW 8730   2.517   8.860   6.860 -0.1444 -0.4456  0.0013
 2033SOL    HW1 8731   2.440   8.810   6.835  0.5310 -1.0969 -0.8166
 2033SOL    HW2 8732   2.591   8.814   6.819  0.4557  1.4643 -1.1960
 2034SOL     OW 8733   4.413   1.612   0.485 -0.2446 -0.3682  0.1250
 2034SOL    HW1 8734   4.359   1.534   0.487  0.9001 -1.1869  0.3329
 2034SOL    HW2 8735   4.418   1.641   0.576 -0.5323 -0.1449  0.0711
 2035SOL     OW 8736   7.719   4.314   2.382 -0.1717  0.0485  0.0346
 2035SOL    HW1 8737   7.700   4.370   2.307 -0.6981 -0.1751  0.0027
 2035SOL    HW2 8738   7.643   4.258   2.391  0.8747 -1.5904 -0.7594
 2036SOL     OW 8739   5.492   8.658   1.377  0.8495 -0.0114 -0.5203
 2036SOL    HW1 8740   5.442   8.652   1.296  3.6739  0.1428 -2.3710
 2036SOL    HW2 8741   5.473   8.747   1.410  0.2300  0.1834 -1.3587
 2037SOL     OW 8742   5.898   1.965   3.665  0.1151 -0.0469  0.6836
 2037SOL    HW1 8743   5.806   1.965   3.638  0.6632 -2.5791 -1.5886
 2037SOL    HW2 8744   5.901   1.903   3.738 -0.2144  1.5321  2.1124
 2038SOL     OW 8745   2.298   3.431   1.927  0.4840 -0.1212  0.2412
 2038SOL    HW1 8746   2.312   3.438   2.021 -2.4239 -0.5237  0.7996
 2038SOL    HW2 8747   2.368   3.374   1.896 -0.5791 -3.1820  2.8725
 2039SOL     OW 8748   0.441   8.151   2.004  0.7094  0.2309 -0.3190
 2039SOL    HW1 8749   0.469   8.060   2.011  0.2065 -0.0566 -1.7682
 2039SOL    HW2 8750   0.367   8.149   1.944 -1.0330  1.2611  1.6733
 2040SOL     OW 8751   1.693   3.186   1.447 -0.1070 -0.0209  0.1421
 2040SOL    HW1 8752   1.730   3.264   1.404  0.0154 -0.3887 -0.4306
 2040SOL    HW2 8753   1.708   3.115   1.385 -0.9661 -0.3475  0.2954
 2041SOL     OW 8754   1.336   8.230   6.579 -0.3577 -0.5163 -0.1711
 2041SOL    HW1 8755   1.382   8.303   6.537 -1.4249 -0.3809 -1.1360
 2041SOL    HW2 8756   1.352   8.155   6.521  0.0610 -0.8680  0.3915
 2042SOL     OW 8757   3.525   9.516   8.095  0.2024  0.0553  0.4795
 2042SOL    HW1 8758   3.431   9.522   8.112 -0.0660  0.3152 -1.0061
 2042SOL    HW2 8759   3.539   9.425   8.069  0.0758  0.4079 -0.8588
 2043SOL     OW 8760   5.646   4.708   0.105  0.2716  0.0599  0.1636
 2043SOL    HW1 8761   5.691   4.789   0.081  0.6217 -0.1430  0.1303
 2043SOL    HW2 8762   5.609   4.676   0.023  0.1009  0.2089  0.1839
 2044SOL     OW 8763   4.098   3.058   7.493 -0.2092  0.3948 -0.8008
 2044SOL    HW1 8764   4.060   3.105   7.567  0.2856  0.7998 -0.7954
 2044SOL    HW2 8765   4.089   2.966   7.515  1.4064  0.5188  0.5349
 2045SOL     OW 8766   2.878   0.391   5.928 -0.1011 -0.3252 -0.2030
 2045SOL    HW1 8767   2.926   0.411   5.848  1.7378  0.3882  1.0049
 2045SOL    HW2 8768   2.945   0.383   5.995 -1.6441  0.5290  1.5588
 2046SOL     OW 8769   1.134   1.534   0.339  0.3252  0.6173  0.4372
 2046SOL    HW1 8770   1.058   1.534   0.397  1.2401 -0.5648  1.7063
 2046SOL    HW2 8771   1.182   1.614   0.361 -0.8466  1.7345 -0.8572
 2047SOL     OW 8772   4.215   2.135   8.755 -0.2308 -0.0323 -0.1868
 2047SOL    HW1 8773   4.157   2.159   8.827  0.7667 -2.2913  1.4740
 2047SOL    HW2 8774   4.221   2.040   8.759  2.3342  0.0014 -1.2635
 2048SOL     OW 8775   8.805   1.385   7.449  0.1013  0.1826 -0.3189
 2048SOL    HW1 8776   8.751   1.376   7.527 -0.4918 -1.0390 -0.8495
 2048SOL    HW2 8777   8.830   1.477   7.447  0.7596  0.0803  1.7225
 2049SOL     OW 8778   3.557   8.308   7.939  0.5328 -0.1406 -0.5406
 2049SOL    HW1 8779   3.612   8.295   8.016  0.1058  0.8742 -0.0537
 2049SOL    HW2 8780   3.577   8.233   7.883  0.2308 -1.3404  0.9012
 2050SOL     OW 8781   7.804   3.693   9.237 -0.7094  0.7960 -0.2259
 2050SOL    HW1 8782   7.842   3.781   9.247  0.1001  0.3369  0.8358
 2050SOL    HW2 8783   7.847   3.640   9.303 -1.1525 -0.4359 -0.8923
 2051SOL     OW 8784   2.963   3.177   0.497 -0.2182 -0.3302 -0.1786
 2051SOL    HW1 8785   2.952   3.164   0.403 -2.1097  1.1518 -0.2248
 2051SOL    HW2 8786   3.012   3.259   0.505 -2.0519  0.8286  0.0412
 2052SOL     OW 8787   2.147   4.332   0.060 -0.0754  0.1132 -0.4163
 2052SOL    HW1 8788   2.167   4.303   0.149  0.1633 -3.0684 -1.3733
 2052SOL    HW2 8789   2.173   4.259   0.005 -0.7518  1.7439 -3.0939
 2053SOL     OW 8790   8.459   3.634   1.396  0.3772 -0.5309 -0.2420
 2053SOL    HW1 8791   8.520   3.570   1.361 -0.6032 -1.6880  0.1035
 2053SOL    HW2 8792   8.455   3.703   1.330  0.1668 -1.6468 -1.4288
 2054SOL     OW 8793   6.172   9.985   9.301 -0.0683  0.1550 -0.2021
 2054SOL    HW1 8794   6.210   9.932   9.370  0.8585  2.2194  0.9761
 2054SOL    HW2 8795   6.245  10.039   9.270 -1.1519  1.3871 -0.6873
 2055SOL     OW 8796   9.643   3.204   8.660  0.8086 -0.1011 -0.0118
 2055SOL    HW1 8797   9.671   3.266   8.591 -0.8978 -0.2655 -0.9036
 2055SOL    HW2 8798   9.666   3.248   8.742  0.6980  1.1978 -0.6480
 2056SOL     OW 8799   1.605   9.725   1.277  0.2303 -0.4299 -0.4424
 2056SOL    HW1 8800   1.532   9.750   1.334 -0.5779 -0.8763 -1.2586
 2056SOL    HW2 8801   1.661   9.672   1.333 -0.1313 -0.1847  0.1702
 2057SOL     OW 8802   6.699   1.509   6.963  0.3036  0.1387  0.4233
 2057SOL    HW1 8803   6.763   1.466   6.907  0.1358  0.3323  0.0769
 2057SOL    HW2 8804   6.681   1.446   7.032 -0.5333 -0.6678 -0.5112
 2058SOL     OW 8805  10.036   6.004   1.806  0.3288 -0.0096  0.7599
 2058SOL    HW1 8806  10.046   5.909   1.795  1.4376  0.1155  0.6002
 2058SOL    HW2 8807  10.052   6.041   1.719 -1.5628  0.2503  0.4762
 2059SOL     OW 8808   5.543   2.800   9.803  0.2333 -0.0361 -0.2565
 2059SOL    HW1 8809   5.594   2.788   9.723 -0.0139 -0.6596 -0.3334
 2059SOL    HW2 8810   5.456   2.825   9.772 -0.3802 -2.0252 -0.3048
 2060SOL     OW 8811   0.020   4.066   4.077 -0.1101 -0.1784  0.2581
 2060SOL    HW1 8812   0.012   4.004   4.005  0.6382  0.2931 -0.2454
 2060SOL    HW2 8813   0.051   4.013   4.150  0.1240 -0.4736 -0.0501
 2061SOL     OW 8814   6.027   8.094   9.238  0.5577  0.5397 -0.0050
 2061SOL    HW1 8815   6.013   8.026   9.171  1.3242 -0.5408  0.8976
 2061SOL    HW2 8816   6.111   8.072   9.278 -0.9551 -0.3683  3.0024
 2062SOL     OW 8817   4.057   9.071   5.015  0.3819  0.3144  0.7770
 2062SOL    HW1 8818   4.101   9.111   4.940 -0.2730  0.2559  0.3503
 2062SOL    HW2 8819   4.106   8.991   5.031  0.8341  0.5783  0.7358
 2063SOL     OW 8820   7.069   9.922   2.796  0.0584  0.3335  0.1299
 2063SOL    HW1 8821   7.159   9.942   2.823  0.2711  0.8052 -0.8721
 2063SOL    HW2 8822   7.023  10.006   2.802 -0.4237  0.0140  1.0147
 2064SOL     OW 8823   1.961   8.454   4.787  0.1378  0.2841  0.3811
 2064SOL    HW1 8824   1.912   8.444   4.705 -0.9182  0.9427  0.9117
 2064SOL    HW2 8825   2.018   8.530   4.771  1.5794 -0.9224 -0.4932
 2065SOL     OW 8826  10.167   5.251   5.760  0.0696  0.4322 -0.4063
 2065SOL    HW1 8827  10.194   5.328   5.709  0.4650 -0.6129 -1.8298
 2065SOL    HW2 8828  10.186   5.177   5.703 -2.2356 -0.6220  0.0897
 2066SOL     OW 8829   3.179   8.813   3.336 -0.2047 -0.1011 -0.0254
 2066SOL    HW1 8830   3.219   8.853   3.413 -1.2826 -1.5605  1.3500
 2066SOL    HW2 8831   3.251   8.806   3.273  1.6270 -1.9613  2.0900
 2067SOL     OW 8832   6.643   4.347   7.044 -0.0126 -0.2437  0.1658
 2067SOL    HW1 8833   6.734   4.342   7.075  0.0904 -0.1824 -0.1275
 2067SOL    HW2 8834   6.609   4.258   7.055  0.1390 -0.3090  0.1071
 2068SOL     OW 8835   4.531   0.186   4.457  0.3316  0.6231 -0.2057
 2068SOL    HW1 8836   4.601   0.150   4.512 -0.7004  0.4888  1.0580
 2068SOL    HW2 8837   4.452   0.142   4.487 -0.2357  0.3621 -2.0086
 2069SOL     OW 8838   2.503   4.158   9.594  0.4090  0.1192 -0.1619
 2069SOL    HW1 8839   2.500   4.246   9.632  2.3166 -0.2487  0.9651
 2069SOL    HW2 8840   2.419   4.118   9.620  1.3129  0.1134  3.2758
 2070SOL     OW 8841   8.081   1.963   3.783  0.0730 -0.6129  0.5180
 2070SOL    HW1 8842   8.059   2.043   3.736 -1.1930 -1.4618 -0.4152
 2070SOL    HW2 8843   8.150   1.989   3.844  1.7289  0.5834 -1.7077
 2071SOL     OW 8844   9.988   9.623   4.705  0.0951 -0.0430 -0.1386
 2071SOL    HW1 8845  10.036   9.693   4.749  1.1793 -0.0230 -1.2911
 2071SOL    HW2 8846   9.978   9.555   4.771 -0.2150  0.8373  0.7501
 2072SOL     OW 8847   1.228   5.582   3.952 -0.1174  0.4866 -0.1925
 2072SOL    HW1 8848   1.313   5.539   3.948 -1.1808 -1.6631 -1.1082
 2072SOL    HW2 8849   1.248   5.676   3.948  2.2354  0.0845  0.8448
 2073SOL     OW 8850   4.129   3.373   7.068 -0.3233 -0.6259 -0.3168
 2073SOL    HW1 8851   4.091   3.378   6.980 -0.8243 -3.2205 -0.3407
 2073SOL    HW2 8852   4.118   3.281   7.093  3.1230 -0.8380  0.9771
 2074SOL     OW 8853  10.050   6.890   1.823 -0.0381  0.2317 -0.1580
 2074SOL    HW1 8854  10.145   6.876   1.823  0.1466  0.0789 -4.8084
 2074SOL    HW2 8855  10.017   6.828   1.887  2.7908 -2.1324 -0.7851
 2075SOL     OW 8856   3.707   2.942   7.503  1.2780 -0.2022 -0.9652
 2075SOL    HW1 8857   3.770   2.870   7.510  1.5992  0.1685  0.2469
 2075SOL    HW2 8858   3.629   2.902   7.467  1.5061 -1.1337 -0.4488
 2076SOL     OW 8859   1.036   6.609   9.188 -0.1533 -0.1568  0.1426
 2076SOL    HW1 8860   1.054   6.541   9.123 -1.5587 -0.1001 -0.3422
 2076SOL    HW2 8861   1.022   6.689   9.136  0.8691  0.3883  0.6685
 2077SOL     OW 8862   8.934   3.994   6.037  0.1721 -0.3885 -0.4320
 2077SOL    HW1 8863   8.867   4.049   6.078 -0.3564 -0.8861 -0.6160
 2077SOL    HW2 8864   8.958   3.932   6.105  0.1093 -0.5021 -0.5133
 2078SOL     OW 8865   4.140   8.924   2.562 -0.0580 -0.1703  0.2653
 2078SOL    HW1 8866   4.227   8.886   2.554 -0.3132 -0.6582 -0.2324
 2078SOL    HW2 8867   4.150   9.014   2.532 -0.2802 -0.9917 -2.5016
 2079SOL     OW 8868   5.806   2.877   1.705  0.1677 -0.3561 -0.0966
 2079SOL    HW1 8869   5.814   2.863   1.800  3.8629 -0.6607 -0.3276
 2079SOL    HW2 8870   5.846   2.962   1.690  0.6918 -0.8179 -1.4778
 2080SOL     OW 8871   6.013   8.887   0.354 -0.0232  0.1695  0.1662
 2080SOL    HW1 8872   6.058   8.811   0.390 -1.3859 -1.4076 -1.2708
 2080SOL    HW2 8873   6.061   8.907   0.273  0.8604  1.4426  0.9667
 2081SOL     OW 8874   5.429   8.014   6.780  0.4204 -0.3562  0.2734
 2081SOL    HW1 8875   5.377   7.949   6.828  0.9013 -1.2212 -0.3551
 2081SOL    HW2 8876   5.492   7.962   6.730 -0.3597  0.4869 -1.6814
 2082SOL     OW 8877   9.931   4.026   6.233 -0.1364  0.8212  0.2246
 2082SOL    HW1 8878   9.965   4.059   6.150  2.7091 -2.6116 -0.2086
 2082SOL    HW2 8879  10.006   4.026   6.292 -1.1557 -0.2892  1.5980
 2083SOL     OW 8880   9.308   5.932   6.674 -0.2306  0.1317 -0.0372
 2083SOL    HW1 8881   9.249   5.926   6.598 -1.7569  0.8308  1.0398
 2083SOL    HW2 8882   9.374   5.865   6.658 -0.6969  0.0405 -1.8254
 2084SOL     OW 8883   6.122   5.152   0.408  0.4981 -0.1959 -0.0761
 2084SOL    HW1 8884   6.120   5.060   0.385  0.5503 -0.6255  1.5195
 2084SOL    HW2 8885   6.131   5.153   0.504 -3.0687  1.3796  0.4254
 2085SOL     OW 8886   1.249  10.128   1.612 -0.3061  0.0161 -0.3473
 2085SOL    HW1 8887   1.157  10.107   1.599  0.1245 -2.8372  0.4745
 2085SOL    HW2 8888   1.263  10.116   1.706  0.9431  0.2632 -0.4770
 2086SOL     OW 8889   0.814   1.804   3.477 -1.0434  0.2224 -0.0959
 2086SOL    HW1 8890   0.833   1.841   3.563 -0.9333 -0.6896  0.2802
 2086SOL    HW2 8891   0.814   1.880   3.418 -0.5283  0.7778  0.5993
 2087SOL     OW 8892   5.921   0.082   6.100 -0.1940  0.6275  0.2546
 2087SOL    HW1 8893   5.842   0.127   6.072 -0.0607  1.0025  0.4731
 2087SOL    HW2 8894   5.993   0.137   6.068 -0.0396  1.4800  1.9801
 2088SOL     OW 8895   1.211   6.811   4.152 -0.4340  0.5876 -0.7085
 2088SOL    HW1 8896   1.168   6.858   4.223 -0.5619 -1.3152  0.5330
 2088SOL    HW2 8897   1.143   6.756   4.114  0.0091  0.4169 -1.2768
 2089SOL     OW 8898   7.751   8.106   5.064 -0.6683 -0.1977  0.2176
 2089SOL    HW1 8899   7.782   8.106   4.974 -0.9497  2.0059  0.0821
 2089SOL    HW2 8900   7.818   8.153   5.113 -1.7548  0.9307  0.6694
 2090SOL     OW 8901   2.105   3.166   6.720 -0.2951  0.4938 -0.3403
 2090SOL    HW1 8902   2.112   3.185   6.627  1.6910 -1.3029 -0.6336
 2090SOL    HW2 8903   2.189   3.194   6.757 -0.6185  0.1576  0.6897
 2091SOL     OW 8904   4.194   0.867   6.371 -0.0738  0.5875 -0.7355
 2091SOL    HW1 8905   4.269   0.913   6.407 -1.0782  1.9788 -0.3177
 2091SOL    HW2 8906   4.157   0.819   6.446  0.4606 -0.2119 -0.9722
 2092SOL     OW 8907   1.451   5.200   6.677 -0.5106 -0.2023 -0.0422
 2092SOL    HW1 8908   1.421   5.128   6.732 -2.3421 -0.3732 -1.1762
 2092SOL    HW2 8909   1.455   5.163   6.589  1.0600  0.4275 -0.2815
 2093SOL     OW 8910   1.275   2.201   4.393 -0.4852 -0.9326 -0.4607
 2093SOL    HW1 8911   1.329   2.229   4.319  0.2885 -0.1665  0.3600
 2093SOL    HW2 8912   1.215   2.137   4.356 -1.4417  0.8528 -2.1605
 2094SOL     OW 8913   5.482   4.130   8.109 -0.1549  0.4085 -0.4026
 2094SOL    HW1 8914   5.495   4.152   8.016 -0.9283 -1.4244 -0.9833
 2094SOL    HW2 8915   5.511   4.039   8.117 -1.6827 -0.0210  0.7631
 2095SOL     OW 8916   4.389   7.154   0.423  0.2444  0.5404  0.0839
 2095SOL    HW1 8917   4.413   7.074   0.377  3.2079  0.1147  2.0719
 2095SOL    HW2 8918   4.312   7.130   0.474 -1.0567  0.0783 -1.9915
 2096SOL     OW 8919   3.782   0.777   7.026 -0.1248  0.6974  0.0036
 2096SOL    HW1 8920   3.768   0.813   6.938 -1.7469 -0.0464 -0.0769
 2096SOL    HW2 8921   3.802   0.854   7.080  0.6859  1.1864 -0.9536
 2097SOL     OW 8922   7.243   0.209  10.008 -0.0134 -0.3088  0.0737
 2097SOL    HW1 8923   7.222   0.149  10.080 -1.0180  1.3894  1.2624
 2097SOL    HW2 8924   7.303   0.273  10.047 -0.8156  0.8109 -0.5031
 2098SOL     OW 8925   3.518   9.550   8.569  0.1705  0.7361 -0.1665
 2098SOL    HW1 8926   3.556   9.523   8.485 -1.4343 -0.8757 -0.4537
 2098SOL    HW2 8927   3.588   9.539   8.632  0.2507 -2.2956 -0.6433
 2099SOL     OW 8928   3.860   0.044   7.590 -0.1259 -0.2422  0.0356
 2099SOL    HW1 8929   3.903  -0.035   7.621  0.0314 -0.2536 -0.2080
 2099SOL    HW2 8930   3.931   0.097   7.554 -0.4109 -0.6215 -1.1450
 2100SOL     OW 8931   5.527   5.861   8.681  0.0792 -0.2029  0.4979
 2100SOL    HW1 8932   5.568   5.883   8.597 -1.6012  3.2176  0.3769
 2100SOL    HW2 8933   5.466   5.791   8.661  0.8875 -0.5777 -0.7492
 2101SOL     OW 8934   3.657   4.974   3.927 -0.3472  0.2133 -0.1616
 2101SOL    HW1 8935   3.653   5.066   3.956 -0.2615 -0.1369  1.0331
 2101SOL    HW2 8936   3.575   4.960   3.881 -0.3933  0.8776 -0.2974
 2102SOL     OW 8937   2.577   2.009   2.965  0.1327  0.1714  0.6411
 2102SOL    HW1 8938   2.538   2.003   3.052  1.6225  0.8271  1.3874
 2102SOL    HW2 8939   2.532   2.082   2.923 -1.9319 -1.3079  0.0898
 2103SOL     OW 8940   2.584   2.340   0.123  0.5669  0.0918  0.3060
 2103SOL    HW1 8941   2.510   2.337   0.184  0.5235 -1.3828  0.2246
 2103SOL    HW2 8942   2.593   2.250   0.092  2.2556  0.2896  0.1235
 2104SOL     OW 8943   7.984   6.354   4.969  0.1827  0.5494  0.1575
 2104SOL    HW1 8944   8.027   6.303   4.900 -0.3053  0.4679 -0.0906
 2104SOL    HW2 8945   8.011   6.311   5.051  1.6821  1.3341  0.1008
 2105SOL     OW 8946   0.461   8.298   4.452 -0.3772  0.3036 -0.7773
 2105SOL    HW1 8947   0.509   8.298   4.369  1.2061 -0.1923  0.0851
 2105SOL    HW2 8948   0.464   8.206   4.481 -1.0631  0.4407 -0.2632
 2106SOL     OW 8949   0.819   0.991  10.004  0.5548  0.0851 -0.1123
 2106SOL    HW1 8950   0.914   1.003   9.995  0.6556 -0.5245  0.0384
 2106SOL    HW2 8951   0.790   1.066  10.055  0.8791  0.5524 -0.6138
 2107SOL     OW 8952   9.693   9.773   3.178 -0.3929  0.4423  0.2951
 2107SOL    HW1 8953   9.662   9.856   3.212 -0.6536  0.0663  0.9898
 2107SOL    HW2 8954   9.720   9.724   3.256 -0.1128 -0.0678 -0.1187
 2108SOL     OW 8955   7.622   0.813   0.751 -0.3905  0.5064  0.3476
 2108SOL    HW1 8956   7.544   0.799   0.698 -1.3220  2.1646  1.1888
 2108SOL    HW2 8957   7.690   0.835   0.688 -1.0424  0.7257 -0.2974
 2109SOL     OW 8958   9.182   4.562   6.056 -0.0218 -0.3283  0.1026
 2109SOL    HW1 8959   9.236   4.624   6.105 -0.2295 -1.0516  1.2914
 2109SOL    HW2 8960   9.243   4.522   5.993  0.8139 -1.0003  1.3042
 2110SOL     OW 8961   8.758   0.517   5.487 -0.2071  0.2567 -0.4707
 2110SOL    HW1 8962   8.726   0.542   5.401 -1.5524  2.0753  0.4990
 2110SOL    HW2 8963   8.697   0.558   5.549  1.8815  0.7300  1.3988
 2111SOL     OW 8964   8.028   2.924   6.781 -0.2691 -0.3912 -0.3957
 2111SOL    HW1 8965   7.967   2.997   6.777  0.9406  0.6810  0.1527
 2111SOL    HW2 8966   8.003   2.868   6.707 -1.0304  0.7114 -1.0036
 2112SOL     OW 8967   0.104   4.652   9.439 -0.3567 -0.0689 -0.0421
 2112SOL    HW1 8968   0.165   4.579   9.451  0.5421  0.9876  2.4665
 2112SOL    HW2 8969   0.017   4.612   9.441  0.1352 -1.1375  0.9346
 2113SOL     OW 8970   8.384   1.138   7.907 -0.3651 -0.1277 -0.0471
 2113SOL    HW1 8971   8.437   1.099   7.837 -0.5066 -1.4704  0.5644
 2113SOL    HW2 8972   8.428   1.111   7.988 -1.4739 -0.5135  0.4390
 2114SOL     OW 8973   8.025   9.466   8.690 -0.2344 -0.0678  0.1065
 2114SOL    HW1 8974   8.079   9.387   8.690  0.8341  0.6549 -0.1374
 2114SOL    HW2 8975   8.009   9.484   8.783 -0.4311 -0.5275  0.1644
 2115SOL     OW 8976   2.596   4.210   5.049  0.1972  0.2020  0.2890
 2115SOL    HW1 8977   2.645   4.213   4.967  1.0416 -0.0649  0.7722
 2115SOL    HW2 8978   2.560   4.298   5.058  1.8746  0.8893  0.6757
 2116SOL     OW 8979   5.342   4.141   6.525  0.9018 -0.0563  0.1143
 2116SOL    HW1 8980   5.358   4.180   6.611  0.3146 -0.9732  0.6576
 2116SOL    HW2 8981   5.264   4.186   6.492  0.7776 -0.1203  0.3220
 2117SOL     OW 8982   0.239   1.298   7.787  0.0069  0.0833 -0.0109
 2117SOL    HW1 8983   0.169   1.348   7.828 -0.8946 -0.5685 -0.7087
 2117SOL    HW2 8984   0.277   1.357   7.722  1.1074  0.9468  1.3627
 2118SOL     OW 8985   3.670   1.347   1.673 -0.1539  0.2872 -0.3209
 2118SOL    HW1 8986   3.622   1.400   1.737  0.2927 -0.3331  0.5414
 2118SOL    HW2 8987   3.606   1.331   1.603 -0.7548  0.6978  0.1177
 2119SOL     OW 8988   9.592   8.133   9.513  0.4565  0.0333 -0.3824
 2119SOL    HW1 8989   9.639   8.205   9.556 -2.5412  1.1853  1.2357
 2119SOL    HW2 8990   9.514   8.174   9.476  0.0190 -1.9872 -1.8709
 2120SOL     OW 8991   1.724   2.114   3.353  0.0640 -0.1111  0.1844
 2120SOL    HW1 8992   1.702   2.107   3.260 -0.4865  0.4454  0.2639
 2120SOL    HW2 8993   1.680   2.039   3.394  1.8253 -1.4474 -0.2420
 2121SOL     OW 8994   9.016   6.030   6.942 -0.4294 -0.2515  0.4643
 2121SOL    HW1 8995   8.969   6.034   7.026  0.3163  0.1664  0.8731
 2121SOL    HW2 8996   9.073   5.954   6.951 -1.6561 -1.3073 -0.3825
 2122SOL     OW 8997   9.373   7.723   7.528  0.2250 -0.2538 -0.2090
 2122SOL    HW1 8998   9.443   7.659   7.520 -0.1086 -0.5584 -0.6952
 2122SOL    HW2 8999   9.340   7.712   7.617  1.4503  0.5731  0.3745
 2123SOL     OW 9000   3.028   6.733   1.797  0.1579 -0.6931  0.7612
 2123SOL    HW1 9001   3.002   6.650   1.838 -1.8607 -0.1808  0.6244
 2123SOL    HW2 9002   3.035   6.713   1.704  0.4243 -0.8855  0.8230
 2124SOL     OW 9003   3.794   0.707   8.018 -0.6275 -0.1590  0.5881
 2124SOL    HW1 9004   3.861   0.751   8.071  3.1265 -2.2181 -1.9079
 2124SOL    HW2 9005   3.746   0.653   8.080  1.3526 -0.0265  2.3409
 2125SOL     OW 9006   2.115   1.643   9.046  0.0367  0.0835  0.0630
 2125SOL    HW1 9007   2.125   1.738   9.056  0.3868  0.0746 -0.1680
 2125SOL    HW2 9008   2.055   1.617   9.116 -2.9535  0.9958 -1.9398
 2126SOL     OW 9009   2.498   1.060   2.387 -0.3436  0.3366 -0.3681
 2126SOL    HW1 9010   2.569   1.022   2.336  1.1324  4.7049 -1.9768
 2126SOL    HW2 9011   2.418   1.026   2.345  0.8087 -0.3815 -2.0784
 2127SOL     OW 9012   1.163  10.331   3.057 -0.0349 -0.5924 -0.0238
 2127SOL    HW1 9013   1.069  10.343   3.045  0.3196  3.0508 -0.2889
 2127SOL    HW2 9014   1.199  10.332   2.969  0.2296 -3.4119 -0.0250
 2128SOL     OW 9015   0.053   5.744   6.819  0.2583 -0.1953 -0.1562
 2128SOL    HW1 9016   0.109   5.811   6.779  2.0063 -1.4842 -0.0372
 2128SOL    HW2 9017   0.106   5.709   6.891 -1.8592  0.3943  1.7701
 2129SOL     OW 9018   1.176   5.942   9.837 -0.2979  0.0829 -0.4498
 2129SOL    HW1 9019   1.144   6.031   9.855  1.9244  0.7971  0.2735
 2129SOL    HW2 9020   1.133   5.888   9.904 -2.0597  0.4735 -1.2052
 2130SOL     OW 9021   4.691   2.202   3.330 -0.0709 -0.5130 -0.2785
 2130SOL    HW1 9022   4.720   2.197   3.422  0.3160  0.1600 -0.3648
 2130SOL    HW2 9023   4.602   2.235   3.335  0.1446  0.0647 -0.1723
 2131SOL     OW 9024   3.831   6.133   7.436  0.1509  0.4275 -0.1428
 2131SOL    HW1 9025   3.783   6.163   7.513 -2.1456  1.1327 -1.7655
 2131SOL    HW2 9026   3.773   6.069   7.395  0.3019  1.6648 -2.4571
 2132SOL     OW 9027   9.397   5.651   1.900  0.4466 -0.1773  0.0883
 2132SOL    HW1 9028   9.315   5.626   1.942 -0.9322  1.7031 -1.3156
 2132SOL    HW2 9029   9.460   5.657   1.971 -0.4037 -2.3079  1.1251
 2133SOL     OW 9030   4.205   9.553   0.008 -0.2092  0.3823 -0.3308
 2133SOL    HW1 9031   4.252   9.621  -0.039 -0.7131  0.7649 -0.2954
 2133SOL    HW2 9032   4.167   9.598   0.084 -0.1261 -0.0452 -0.0315
 2134SOL     OW 9033   5.568   1.174   7.778 -0.1061 -0.3165 -0.5065
 2134SOL    HW1 9034   5.490   1.183   7.832  0.0484 -1.3889 -0.0821
 2134SOL    HW2 9035   5.599   1.264   7.766  0.1801 -0.0755  1.6823
 2135SOL     OW 9036   0.056  10.016   5.523 -0.3524  0.2986 -0.5200
 2135SOL    HW1 9037   0.018  10.067   5.451  0.3830  2.2187  0.3931
 2135SOL    HW2 9038   0.044  10.071   5.600  1.0055 -0.6696  0.4128
 2136SOL     OW 9039   9.735   7.125   9.598 -0.3009 -0.1491 -0.2963
 2136SOL    HW1 9040   9.755   7.202   9.546  1.6796 -0.6746 -0.3908
 2136SOL    HW2 9041   9.820   7.089   9.622 -1.1515 -0.8077  2.0121
 2137SOL     OW 9042   3.150   2.054  10.148  0.3563  0.1007  0.1546
 2137SOL    HW1 9043   3.242   2.061  10.123  1.1638  1.8232  3.0259
 2137SOL    HW2 9044   3.113   2.140  10.128 -0.7694 -0.6767 -1.2596
 2138SOL     OW 9045   8.495   5.349   9.604 -0.3764 -0.0551 -0.3526
 2138SOL    HW1 9046   8.431   5.393   9.659 -0.8546 -1.4913  0.2866
 2138SOL    HW2 9047   8.533   5.282   9.660  0.1332 -0.6303 -1.3534
 2139SOL     OW 9048   1.034   4.430   1.440 -0.1068  0.1389  0.7374
 2139SOL    HW1 9049   1.013   4.481   1.361 -0.1854 -0.3057  0.4649
 2139SOL    HW2 9050   1.012   4.488   1.512  1.9577  1.3612  0.4501
 2140SOL     OW 9051   8.756   8.575   2.203 -0.0900 -0.0406  0.3531
 2140SOL    HW1 9052   8.673   8.617   2.181 -0.4098 -0.1410  1.3125
 2140SOL    HW2 9053   8.820   8.616   2.146 -0.7715  0.1643 -0.2783
 2141SOL     OW 9054   3.440   5.102   7.466 -0.0437 -0.2381 -0.6992
 2141SOL    HW1 9055   3.467   5.056   7.545 -1.5070  0.5823  0.3220
 2141SOL    HW2 9056   3.496   5.066   7.397  0.0821 -2.2451  0.3692
 2142SOL     OW 9057   2.704   2.544   3.300  0.0160  0.0097 -0.2621
 2142SOL    HW1 9058   2.676   2.533   3.209 -1.3839  0.0569  0.1330
 2142SOL    HW2 9059   2.637   2.499   3.352  0.4885  0.4461  0.7668
 2143SOL     OW 9060   0.000   0.039   0.897  0.4701 -0.3673  0.1877
 2143SOL    HW1 9061  -0.058   0.085   0.837 -0.4692 -2.3988 -0.5406
 2143SOL    HW2 9062  -0.037   0.055   0.984  0.2184  0.2854 -0.0300
 2144SOL     OW 9063   4.887   3.809   9.175 -0.0171 -0.4766  0.2992
 2144SOL    HW1 9064   4.814   3.748   9.167  0.0705 -0.4533 -0.9966
 2144SOL    HW2 9065   4.938   3.777   9.249 -0.7396 -1.1394  0.5227
 2145SOL     OW 9066   5.088   8.804   9.528 -0.3239  0.2222 -0.0491
 2145SOL    HW1 9067   5.062   8.796   9.620  2.8512 -1.6569  0.8422
 2145SOL    HW2 9068   5.159   8.867   9.529 -1.4671  1.6127 -1.5915
 2146SOL     OW 9069   2.274   7.080   7.463 -0.8594 -0.3567  0.1048
 2146SOL    HW1 9070   2.318   6.998   7.438  0.3122  0.4008 -0.4319
 2146SOL    HW2 9071   2.295   7.091   7.555  0.0579 -0.0260 -0.1365
 2147SOL     OW 9072  10.017   9.456   8.881 -0.0463 -0.7799  0.1765
 2147SOL    HW1 9073  10.103   9.487   8.852 -0.7048 -0.3195 -1.3990
 2147SOL    HW2 9074   9.988   9.396   8.813 -0.8377 -1.1773  0.8437
 2148SOL     OW 9075   8.611   8.767   6.633  0.2232 -0.2411 -0.0371
 2148SOL    HW1 9076   8.684   8.776   6.694 -0.9621  2.3415  1.1283
 2148SOL    HW2 9077   8.642   8.807   6.552  0.4648 -0.1575  0.0949
 2149SOL     OW 9078   4.684   3.158   9.787 -0.3431 -0.1739  0.2356
 2149SOL    HW1 9079   4.599   3.152   9.830 -0.7754  0.2417 -0.5645
 2149SOL    HW2 9080   4.734   3.086   9.825 -1.4807 -1.2540 -0.2432
 2150SOL     OW 9081   6.919   3.156   5.366 -0.1942  0.5806  0.1212
 2150SOL    HW1 9082   6.855   3.223   5.390 -0.1907  0.6171  0.0280
 2150SOL    HW2 9083   6.867   3.078   5.347 -0.4982  1.4247 -3.0322
 2151SOL     OW 9084   3.048   7.412   1.328  0.3693  0.1366  0.1602
 2151SOL    HW1 9085   3.129   7.410   1.380  0.5113  1.6346  0.0464
 2151SOL    HW2 9086   3.010   7.325   1.340  2.4648 -0.9651 -0.5475
 2152SOL     OW 9087   2.085   2.922   0.707 -0.3859 -0.4000  0.2951
 2152SOL    HW1 9088   2.032   2.842   0.698 -0.7157 -0.2096  0.5360
 2152SOL    HW2 9089   2.164   2.903   0.657 -1.8317  0.3671 -2.5087
 2153SOL     OW 9090   0.495   0.960   1.971  0.1675  0.0222 -1.0124
 2153SOL    HW1 9091   0.430   0.916   1.916  0.5156  0.5746 -1.8765
 2153SOL    HW2 9092   0.570   0.901   1.970  0.1002 -0.0668 -0.9430
 2154SOL     OW 9093   5.168   7.554   5.586  0.1301  0.2083 -0.3246
 2154SOL    HW1 9094   5.159   7.648   5.570 -3.5854  0.1615  0.6534
 2154SOL    HW2 9095   5.157   7.513   5.501 -0.3366  0.5875 -0.4479
 2155SOL     OW 9096   7.518   1.622   0.932  0.2673  0.3314  0.0743
 2155SOL    HW1 9097   7.447   1.674   0.969 -0.3250  0.6989 -1.5263
 2155SOL    HW2 9098   7.502   1.621   0.838  0.6534 -2.1814 -0.0403
 2156SOL     OW 9099   5.876   0.004   0.723 -0.1487  0.1639  0.5228
 2156SOL    HW1 9100   5.912  -0.055   0.657 -1.7641 -0.6902  0.3508
 2156SOL    HW2 9101   5.949   0.020   0.783  1.0654  0.1307 -0.8691
 2157SOL     OW 9102   6.690  10.193   2.267 -0.0114 -0.1893 -0.2886
 2157SOL    HW1 9103   6.634  10.203   2.345  1.2842  1.0367  0.5294
 2157SOL    HW2 9104   6.770  10.154   2.300  0.2345 -0.4562 -1.1785
 2158SOL     OW 9105   8.085   3.718   2.475 -0.1308 -0.0457  0.5191
 2158SOL    HW1 9106   8.128   3.637   2.501 -0.1363 -0.1938  0.0886
 2158SOL    HW2 9107   7.994   3.707   2.504  0.3171  0.6726  2.2887
 2159SOL     OW 9108   8.777   0.739   7.296 -0.1221  0.0112  0.1087
 2159SOL    HW1 9109   8.805   0.652   7.269  0.3479  0.4506 -0.8758
 2159SOL    HW2 9110   8.856   0.778   7.335 -0.4711 -0.1795  1.0311
 2160SOL     OW 9111   4.272   1.437   1.402  0.5743 -0.4309 -0.0808
 2160SOL    HW1 9112   4.205   1.377   1.434 -0.2294 -0.4692 -1.7397
 2160SOL    HW2 9113   4.226   1.520   1.388  0.9081 -0.4049 -1.0655
 2161SOL     OW 9114  10.290   3.917   3.838 -0.0329  0.2694 -0.7159
 2161SOL    HW1 9115  10.343   3.946   3.764 -0.9421  2.5643 -0.5544
 2161SOL    HW2 9116  10.339   3.844   3.876  1.9190  0.9356 -1.8183
 2162SOL     OW 9117   2.836   1.436   0.802 -0.0218  0.1946 -0.2946
 2162SOL    HW1 9118   2.857   1.528   0.815 -1.0686  0.3142  0.6292
 2162SOL    HW2 9119   2.921   1.391   0.807  0.2830  0.8914  1.2796
 2163SOL     OW 9120   1.119   2.056   5.200  0.3264 -0.3966  0.1427
 2163SOL    HW1 9121   1.177   2.131   5.187  1.4829 -1.4253 -0.7523
 2163SOL    HW2 9122   1.104   2.021   5.113  0.3484 -1.6266  0.6150
 2164SOL     OW 9123   9.524   3.760   8.716 -0.0755 -0.7998  0.0345
 2164SOL    HW1 9124   9.577   3.754   8.796  0.0823 -0.0482 -0.0073
 2164SOL    HW2 9125   9.433   3.757   8.747 -0.0176 -1.0766  0.1865
 2165SOL     OW 9126   9.590   2.742   6.710 -0.1766 -0.0344 -0.8377
 2165SOL    HW1 9127   9.621   2.665   6.662 -0.2449 -0.0453 -0.8648
 2165SOL    HW2 9128   9.639   2.740   6.792 -1.1622 -0.8947 -0.2366
 2166SOL     OW 9129   2.205   5.508   1.977 -0.1309  0.1231 -0.1734
 2166SOL    HW1 9130   2.238   5.436   2.031 -0.3836 -0.2121 -0.4655
 2166SOL    HW2 9131   2.275   5.524   1.914  1.3929  2.3263  1.8799
 2167SOL     OW 9132   9.921   6.346   1.123 -0.0687  0.3918 -0.7392
 2167SOL    HW1 9133   9.923   6.324   1.030 -0.0286 -0.6956 -0.4988
 2167SOL    HW2 9134   9.955   6.435   1.128  0.3788  0.2842 -1.7188
 2168SOL     OW 9135   5.030   7.745   0.686 -0.5418  0.1847 -0.1044
 2168SOL    HW1 9136   5.074   7.772   0.605 -1.3585  0.8491 -0.3345
 2168SOL    HW2 9137   4.998   7.826   0.724 -1.1009 -0.2407  0.3365
 2169SOL     OW 9138   7.028   9.713   7.764  0.2627  0.5334  0.3966
 2169SOL    HW1 9139   7.118   9.742   7.777  1.2592 -2.5323  1.3797
 2169SOL    HW2 9140   7.024   9.628   7.808 -1.9850 -1.2688 -2.8575
 2170SOL     OW 9141   6.069   4.237   0.084  0.3196 -0.0644 -0.3053
 2170SOL    HW1 9142   5.992   4.192   0.049  0.0068  0.3101 -0.1045
 2170SOL    HW2 9143   6.049   4.330   0.076  1.7266  0.1173 -2.4651
 2171SOL     OW 9144   4.705   4.005   2.253 -0.2943  0.1907  0.0591
 2171SOL    HW1 9145   4.685   3.955   2.174  0.4775 -2.2826  1.3265
 2171SOL    HW2 9146   4.622   4.047   2.276 -0.6559  0.5463 -1.7365
 2172SOL     OW 9147   2.612   6.300   9.238  0.0215  0.1138 -0.0042
 2172SOL    HW1 9148   2.526   6.299   9.195 -0.6886  1.5294  1.3146
 2172SOL    HW2 9149   2.593   6.315   9.330  1.7333  1.5054  0.1730
 2173SOL     OW 9150   4.249   0.994   9.903  0.0781  0.0088  0.7953
 2173SOL    HW1 9151   4.171   0.961   9.947  0.2050 -1.6379 -0.1280
 2173SOL    HW2 9152   4.256   0.941   9.824  1.8611  0.4672  0.6039
 2174SOL     OW 9153   9.139   4.480   4.906  0.2231 -0.3884 -0.4323
 2174SOL    HW1 9154   9.208   4.476   4.840  1.1620 -1.0463  0.5537
 2174SOL    HW2 9155   9.172   4.543   4.971  1.1844 -2.6202  1.3823
 2175SOL     OW 9156   6.598   3.455   2.925 -0.4475  0.7115  0.6082
 2175SOL    HW1 9157   6.625   3.545   2.941  3.0598 -0.3438  1.3290
 2175SOL    HW2 9158   6.647   3.429   2.847 -1.5017 -0.5786  0.3381
 2176SOL     OW 9159   9.515   7.708   5.933  0.3638  0.2503 -0.0315
 2176SOL    HW1 9160   9.426   7.712   5.897  1.3404  0.9407 -2.5702
 2176SOL    HW2 9161   9.539   7.800   5.949  0.2248  0.0023  1.8548
 2177SOL     OW 9162   6.985   1.205   4.548 -0.0569  0.1291 -0.5742
 2177SOL    HW1 9163   7.055   1.262   4.582 -1.2745  1.9834 -1.0214
 2177SOL    HW2 9164   6.931   1.263   4.495 -1.7467 -1.3402 -0.5387
 2178SOL     OW 9165   1.754   3.291   3.688 -0.0784  0.1902 -0.1137
 2178SOL    HW1 9166   1.708   3.215   3.653  0.0945  0.7063 -1.5394
 2178SOL    HW2 9167   1.708   3.311   3.770 -2.6089  0.8070 -1.5650
 2179SOL     OW 9168   5.103   1.687   9.993  0.2335  0.3988  0.0593
 2179SOL    HW1 9169   5.151   1.747   9.936 -0.8366  1.4806  0.2713
 2179SOL    HW2 9170   5.167   1.618  10.013  0.5530 -0.2395 -2.7016
 2180SOL     OW 9171   5.646   0.879   4.166 -0.2035  0.3520 -0.1823
 2180SOL    HW1 9172   5.585   0.899   4.236 -2.4267  0.4507 -2.0143
 2180SOL    HW2 9173   5.670   0.965   4.130 -0.7309  0.2462 -0.8172
 2181SOL     OW 9174   2.267   3.640   0.868 -0.8388 -0.5825  0.5261
 2181SOL    HW1 9175   2.202   3.681   0.810 -0.9409 -1.2225  0.1848
 2181SOL    HW2 9176   2.259   3.546   0.851  0.4138 -0.6569  0.2348
 2182SOL     OW 9177   3.338   9.023   0.392  0.1444  0.2066  0.4131
 2182SOL    HW1 9178   3.397   9.067   0.332 -0.7749  0.0077 -0.6700
 2182SOL    HW2 9179   3.263   9.082   0.401  0.9172  0.9474  2.6029
 2183SOL     OW 9180   3.358   9.315  10.251  0.2770 -0.0737  0.4181
 2183SOL    HW1 9181   3.407   9.243  10.211 -0.6572 -0.4845 -0.0451
 2183SOL    HW2 9182   3.339   9.375  10.179 -0.4226 -0.2368  0.4537
 2184SOL     OW 9183   3.676   9.923   2.044  0.3275  0.6120 -0.3878
 2184SOL    HW1 9184   3.736   9.964   1.982  1.0541 -0.0336 -0.1155
 2184SOL    HW2 9185   3.686   9.973   2.125  1.0905  0.0190 -0.1059
 2185SOL     OW 9186   8.838   1.109   9.815  0.3108 -0.1924 -0.2675
 2185SOL    HW1 9187   8.801   1.158   9.741  1.6023  1.5938  0.2003
 2185SOL    HW2 9188   8.924   1.080   9.784  1.0102  0.8627  0.5934
 2186SOL     OW 9189   1.784   2.876   9.340  0.4668 -0.0129 -0.1052
 2186SOL    HW1 9190   1.758   2.837   9.257 -2.5645 -0.9073  1.1540
 2186SOL    HW2 9191   1.859   2.824   9.369  1.4142  0.1560 -2.0733
 2187SOL     OW 9192   9.142   4.580   6.989 -0.1696  0.1977  0.8562
 2187SOL    HW1 9193   9.062   4.532   6.969 -0.5088  0.7205  0.9345
 2187SOL    HW2 9194   9.137   4.659   6.936  0.1274  0.4001  1.1244
 2188SOL     OW 9195   1.054   7.782   4.815 -0.2910  0.2577  0.1890
 2188SOL    HW1 9196   1.029   7.838   4.888 -0.2252  0.1962  0.2586
 2188SOL    HW2 9197   1.136   7.818   4.783  0.4518 -0.5929  1.0848
 2189SOL     OW 9198   6.245   9.370   5.592 -0.4190 -0.1066  0.2513
 2189SOL    HW1 9199   6.162   9.327   5.615  1.3080 -2.8348  1.9491
 2189SOL    HW2 9200   6.257   9.353   5.499 -1.3584 -0.3851  0.1726
 2190SOL     OW 9201   1.299   6.873   5.710  0.4929  0.3823 -0.2791
 2190SOL    HW1 9202   1.347   6.858   5.629  0.7869 -1.0114  0.1374
 2190SOL    HW2 9203   1.219   6.821   5.701  0.4627  0.3272  0.2661
 2191SOL     OW 9204   1.460   8.494   2.095  0.7501  0.6559 -0.1994
 2191SOL    HW1 9205   1.435   8.523   2.183  1.2707 -1.0045  0.5426
 2191SOL    HW2 9206   1.377   8.470   2.053  0.3097  3.0711 -0.8373
 2192SOL     OW 9207   6.513   8.513   3.854  0.2453  0.2297 -0.0479
 2192SOL    HW1 9208   6.534   8.435   3.803  0.4814  0.5780 -0.4827
 2192SOL    HW2 9209   6.435   8.550   3.813  0.1161  0.2097  0.1745
 2193SOL     OW 9210   5.252   3.039   2.047  0.2270 -0.4184  0.2937
 2193SOL    HW1 9211   5.258   3.120   2.097  0.9033 -0.7314  0.7340
 2193SOL    HW2 9212   5.159   3.032   2.025 -0.1293 -0.3477  1.6596
 2194SOL     OW 9213   9.635   4.011   8.121 -0.5438  0.2823  1.1172
 2194SOL    HW1 9214   9.595   4.032   8.206  0.2966  0.1758  1.5438
 2194SOL    HW2 9215   9.636   4.094   8.074 -1.6062  0.2154  0.9511
 2195SOL     OW 9216   3.431   9.257   9.504  0.1617  0.2682 -0.3085
 2195SOL    HW1 9217   3.454   9.164   9.510  0.7376  0.3853 -0.5504
 2195SOL    HW2 9218   3.442   9.278   9.411 -1.6387  0.1746 -0.5835
 2196SOL     OW 9219   6.851   7.657   5.706  0.0620 -0.0682  0.0736
 2196SOL    HW1 9220   6.790   7.632   5.775  0.4828 -1.2142  0.0586
 2196SOL    HW2 9221   6.800   7.713   5.648  0.4716  3.6050  2.8610
 2197SOL     OW 9222   2.749   7.355   4.239  0.1712 -0.5720 -0.1525
 2197SOL    HW1 9223   2.724   7.271   4.277 -2.1741  0.5163  0.8289
 2197SOL    HW2 9224   2.714   7.352   4.150  0.4032 -0.7540 -0.2398
 2198SOL     OW 9225   1.620   3.554   7.888  0.3747 -0.1735  0.1059
 2198SOL    HW1 9226   1.639   3.570   7.795  1.4459  1.3463  0.5527
 2198SOL    HW2 9227   1.704   3.528   7.926  0.2304  0.4949  0.8982
 2199SOL     OW 9228   6.329   5.556   7.525  0.7192  0.0440  0.2499
 2199SOL    HW1 9229   6.296   5.646   7.532  1.9081  0.4483  0.8425
 2199SOL    HW2 9230   6.423   5.563   7.543  1.0550 -1.1489 -0.8613
 2200SOL     OW 9231   9.270   6.248   9.832  0.1551  0.5830 -0.3868
 2200SOL    HW1 9232   9.190   6.195   9.830  1.4410 -1.6033  1.5014
 2200SOL    HW2 9233   9.240   6.335   9.860 -1.2918 -1.1548  4.5437
 2201SOL     OW 9234   9.588   6.804   3.318 -0.7656  0.6419 -0.4064
 2201SOL    HW1 9235   9.650   6.835   3.252 -0.9049  1.4912 -0.1491
 2201SOL    HW2 9236   9.504   6.843   3.292 -1.2780 -0.7547 -0.9404
 2202SOL     OW 9237   6.664   0.858   1.951 -0.2230 -0.0212 -0.0031
 2202SOL    HW1 9238   6.607   0.858   1.874  0.2678  1.6827 -0.4164
 2202SOL    HW2 9239   6.728   0.927   1.933  1.3009 -1.1402  0.9439
 2203SOL     OW 9240   3.159   3.699   1.670  0.6842  0.1264  0.3055
 2203SOL    HW1 9241   3.144   3.771   1.731  0.9358  0.1768  0.3110
 2203SOL    HW2 9242   3.204   3.632   1.723  0.1422 -0.1791  0.3902
 2204SOL     OW 9243   2.896   6.279   9.243 -0.3669 -0.6396 -0.1959
 2204SOL    HW1 9244   2.929   6.294   9.332  0.8104  0.8736 -0.8527
 2204SOL    HW2 9245   2.801   6.283   9.253 -0.2487  0.0084  0.9361
 2205SOL     OW 9246   1.537   5.577   6.995 -0.2941 -0.3325  0.3986
 2205SOL    HW1 9247   1.600   5.506   6.981 -0.0444 -0.1316  0.4841
 2205SOL    HW2 9248   1.521   5.577   7.089  0.3550  0.2574  0.5250
 2206SOL     OW 9249   2.755   3.222   5.288 -0.3106  0.3118 -0.1794
 2206SOL    HW1 9250   2.754   3.297   5.229  0.9733  0.9257  0.5274
 2206SOL    HW2 9251   2.797   3.255   5.367  2.6532 -1.7516 -0.7309
 2207SOL     OW 9252   5.362   7.196   9.751 -0.6560  0.3075 -0.5699
 2207SOL    HW1 9253   5.419   7.270   9.727 -0.4935  0.7002  0.9510
 2207SOL    HW2 9254   5.301   7.232   9.815 -2.7193 -0.0979 -2.2221
 2208SOL     OW 9255   2.964   8.733   9.991 -0.4838 -0.5162 -0.0485
 2208SOL    HW1 9256   3.007   8.664  10.042  0.8831  0.2727 -0.0845
 2208SOL    HW2 9257   2.960   8.698   9.902 -0.2912 -0.7651  0.0394
 2209SOL     OW 9258   1.182   3.981   4.174  0.1283  0.5287  0.0615
 2209SOL    HW1 9259   1.227   3.984   4.089 -0.2749  0.8888 -0.1461
 2209SOL    HW2 9260   1.250   4.003   4.238  0.4917  0.0253 -0.1402
 2210SOL     OW 9261   6.688   5.107   5.820  0.3269 -0.0717  0.1775
 2210SOL    HW1 9262   6.706   5.162   5.743 -0.8198  0.7178  0.4449
 2210SOL    HW2 9263   6.615   5.052   5.793 -0.1792  0.3128  0.7415
 2211SOL     OW 9264   9.643   0.037   6.552  0.0263 -0.6013  0.2194
 2211SOL    HW1 9265   9.677   0.084   6.629  1.9870 -1.1066 -0.2671
 2211SOL    HW2 9266   9.681  -0.050   6.560 -0.9225 -1.0981 -0.5922
 2212SOL     OW 9267   1.042   7.584   0.641 -0.0236 -0.0378 -0.4423
 2212SOL    HW1 9268   1.066   7.511   0.699  0.2681  0.2991 -0.1404
 2212SOL    HW2 9269   0.965   7.623   0.682 -0.2346 -0.2294 -0.6523
 2213SOL     OW 9270  10.086   6.531  10.249  0.0631 -0.0397 -0.4296
 2213SOL    HW1 9271  10.166   6.499  10.289  0.0067 -0.7476 -0.8520
 2213SOL    HW2 9272  10.055   6.601  10.307 -0.3853 -1.4650  1.1349
 2214SOL     OW 9273   8.346   8.656   7.410  0.0246 -0.0720 -0.0832
 2214SOL    HW1 9274   8.284   8.599   7.366 -0.0023  1.1615 -1.7451
 2214SOL    HW2 9275   8.400   8.693   7.339  0.8309  1.0103  1.0339
 2215SOL     OW 9276   3.561   1.257   6.149  0.1737  0.3312  0.2446
 2215SOL    HW1 9277   3.554   1.244   6.054 -0.9358 -0.2648  0.3889
 2215SOL    HW2 9278   3.483   1.215   6.185 -1.0386  3.1553  1.2037
 2216SOL     OW 9279   0.353   4.289   9.708 -0.4014 -0.5537  0.0940
 2216SOL    HW1 9280   0.441   4.259   9.684 -0.2668 -0.8812  0.9836
 2216SOL    HW2 9281   0.296   4.252   9.640  0.2637  0.5801 -1.1329
 2217SOL     OW 9282   4.338   7.262  10.060  0.0034  0.5488 -0.0145
 2217SOL    HW1 9283   4.400   7.293   9.995 -0.4177  0.7536 -0.3218
 2217SOL    HW2 9284   4.309   7.177  10.028 -2.1980  1.7703 -1.5019
 2218SOL     OW 9285   9.568   8.894   2.253  0.4710 -0.0154 -0.2521
 2218SOL    HW1 9286   9.576   8.810   2.209  0.5978  0.0251 -0.3074
 2218SOL    HW2 9287   9.529   8.953   2.188 -0.2338 -0.1966  0.0012
 2219SOL     OW 9288   4.751   1.392   2.034 -0.0583 -0.1581 -0.7245
 2219SOL    HW1 9289   4.827   1.409   2.090 -1.8682 -1.6336  2.3902
 2219SOL    HW2 9290   4.776   1.314   1.985  1.7203  1.3994 -2.5185
 2220SOL     OW 9291   4.845   1.621   2.294 -0.1972 -0.1511 -0.7599
 2220SOL    HW1 9292   4.814   1.698   2.246  1.2479 -0.9452 -3.1688
 2220SOL    HW2 9293   4.802   1.547   2.251 -0.6731 -0.7923  0.7592
 2221SOL     OW 9294   3.002   0.054   3.470 -0.2193 -0.1692 -0.6677
 2221SOL    HW1 9295   3.078   0.090   3.516 -1.1509  0.6250  0.2926
 2221SOL    HW2 9296   2.942   0.128   3.461 -1.2942 -1.0062 -0.5561
 2222SOL     OW 9297   7.054   3.351   5.200  0.2237 -0.1295  0.2814
 2222SOL    HW1 9298   7.053   3.329   5.107  0.5052  0.0519  0.2327
 2222SOL    HW2 9299   7.008   3.279   5.243  0.4967 -0.4448  0.0505
 2223SOL     OW 9300   9.296  10.158   3.264 -0.1441  0.3806 -0.3289
 2223SOL    HW1 9301   9.340  10.206   3.194  0.5590  0.1161 -0.0790
 2223SOL    HW2 9302   9.338  10.188   3.345 -0.5841  0.2969 -0.0666
 2224SOL     OW 9303   4.995   5.469   0.995  0.1662 -0.5174  0.4431
 2224SOL    HW1 9304   5.066   5.524   1.028 -0.5463 -0.6404  2.2564
 2224SOL    HW2 9305   4.915   5.514   1.023 -0.4537 -1.3932  0.1199
 2225SOL     OW 9306   9.022   6.149   4.281 -0.0172  0.1399 -0.0418
 2225SOL    HW1 9307   9.011   6.136   4.375  0.9030 -0.1262  0.0476
 2225SOL    HW2 9308   8.993   6.066   4.242 -0.4964  0.2876 -0.0037
 2226SOL     OW 9309   8.046   7.800   2.508  0.1064 -0.4555 -0.0807
 2226SOL    HW1 9310   8.127   7.777   2.462 -0.1967 -1.1337 -0.2789
 2226SOL    HW2 9311   8.017   7.719   2.549  0.3187  0.1137  1.2512
 2227SOL     OW 9312   6.215   2.072   3.253 -0.2220 -1.0374  0.1001
 2227SOL    HW1 9313   6.275   2.113   3.315 -4.3879  2.1307  2.5863
 2227SOL    HW2 9314   6.159   2.017   3.307 -1.5725 -1.2882 -1.4733
 2228SOL     OW 9315   5.567   6.737   2.045  0.2346 -0.4474  0.5480
 2228SOL    HW1 9316   5.647   6.769   2.086 -1.3279  1.1404  2.5869
 2228SOL    HW2 9317   5.558   6.789   1.965 -0.7880  2.4298  2.3889
 2229SOL     OW 9318   8.319   5.059   6.650 -0.4167 -0.2275  0.3179
 2229SOL    HW1 9319   8.251   5.005   6.691  0.0533 -0.0660  1.3547
 2229SOL    HW2 9320   8.314   5.143   6.697  0.5361 -0.2417  0.4669
 2230SOL     OW 9321   5.456   0.591   7.809 -0.4152 -0.2334  0.1462
 2230SOL    HW1 9322   5.379   0.629   7.852  0.2812  2.6429 -0.9942
 2230SOL    HW2 9323   5.424   0.559   7.725 -0.9584 -2.1645  1.0247
 2231SOL     OW 9324   8.364   7.445   7.464  0.5220  0.2661  0.3672
 2231SOL    HW1 9325   8.308   7.419   7.390 -0.6239  0.4383  1.1461
 2231SOL    HW2 9326   8.451   7.413   7.440 -0.2706 -1.8118  0.0054
 2232SOL     OW 9327   5.196   9.019  10.189  0.4018 -0.1558 -0.6881
 2232SOL    HW1 9328   5.227   9.050  10.104  0.4915  2.0727  0.0867
 2232SOL    HW2 9329   5.105   9.049  10.194 -0.6106 -2.8273 -1.1302
 2233SOL     OW 9330   5.863   6.918   4.821  0.9299  0.0342 -0.3014
 2233SOL    HW1 9331   5.781   6.915   4.871  0.9977 -1.8715 -0.2332
 2233SOL    HW2 9332   5.839   6.883   4.735  2.1102 -3.0169  0.4902
 2234SOL     OW 9333   0.015   1.454   4.607 -0.2655 -0.2056  0.6205
 2234SOL    HW1 9334   0.023   1.415   4.520 -0.1685  1.6643 -0.2614
 2234SOL    HW2 9335  -0.077   1.441   4.631 -1.9934  4.0661 -2.3411
 2235SOL     OW 9336   6.398   2.914   6.689 -0.0543  0.3748 -0.4050
 2235SOL    HW1 9337   6.455   2.852   6.643  0.3441 -0.0648  0.6531
 2235SOL    HW2 9338   6.458   2.970   6.739 -0.4859  0.6623 -0.1983
 2236SOL     OW 9339   9.893   0.432   5.145  0.7704 -0.2539 -0.4275
 2236SOL    HW1 9340   9.912   0.526   5.137  2.1802 -0.5782 -1.2435
 2236SOL    HW2 9341   9.807   0.429   5.187  0.7866  1.3984 -0.1821
 2237SOL     OW 9342   4.047   2.225   3.947 -0.1632 -0.4185  0.2226
 2237SOL    HW1 9343   4.042   2.183   4.033 -1.2555  1.3426  1.0834
 2237SOL    HW2 9344   4.111   2.294   3.958 -1.9264  1.2801  0.3631
 2238SOL     OW 9345   6.852   3.533   0.265 -0.2889 -0.0821 -0.0609
 2238SOL    HW1 9346   6.944   3.511   0.278 -0.4684 -0.5539  0.4398
 2238SOL    HW2 9347   6.826   3.484   0.186 -0.8079 -2.1111  1.2967
 2239SOL     OW 9348   3.779   0.545   5.061 -0.1343  0.2108  0.0571
 2239SOL    HW1 9349   3.829   0.627   5.069 -0.0854  0.3449 -1.3906
 2239SOL    HW2 9350   3.766   0.534   4.967 -1.1909 -0.8296  0.3064
 2240SOL     OW 9351   2.844   4.918   2.834  0.3592 -0.0767 -0.2157
 2240SOL    HW1 9352   2.889   4.876   2.760 -1.9331 -1.6933 -0.8260
 2240SOL    HW2 9353   2.905   4.910   2.907  1.3918 -1.4521 -1.1655
 2241SOL     OW 9354   5.589   1.297   1.175 -0.2017 -0.1749  0.0874
 2241SOL    HW1 9355   5.675   1.334   1.153 -0.3907 -0.9491 -2.1865
 2241SOL    HW2 9356   5.594   1.205   1.149 -1.1110 -0.7547  1.7766
 2242SOL     OW 9357   2.421   6.551   3.766 -0.0181  0.6690  0.2533
 2242SOL    HW1 9358   2.498   6.603   3.741 -0.1898 -0.2979 -2.7407
 2242SOL    HW2 9359   2.457   6.465   3.787 -0.2487 -0.4138 -3.1387
 2243SOL     OW 9360   3.091   3.227   9.655 -0.4413  0.1515 -0.3567
 2243SOL    HW1 9361   3.061   3.207   9.744 -1.9103  0.7658 -0.6857
 2243SOL    HW2 9362   3.162   3.290   9.667  0.6142 -1.1182  0.4331
 2244SOL     OW 9363   4.033   3.022   8.474 -0.3727 -0.1323 -0.1350
 2244SOL    HW1 9364   3.943   3.051   8.488 -0.1785  0.8450 -0.7516
 2244SOL    HW2 9365   4.087   3.098   8.499  0.1817 -0.0960 -1.3627
 2245SOL     OW 9366   6.745   5.901   9.493 -0.2852  0.0370 -0.7449
 2245SOL    HW1 9367   6.675   5.966   9.487 -0.5250 -0.1986 -0.5047
 2245SOL    HW2 9368   6.825   5.950   9.474 -0.1061  1.0551  2.2103
 2246SOL     OW 9369   5.819   6.621   0.836 -0.1858 -0.0102 -0.1029
 2246SOL    HW1 9370   5.823   6.716   0.822  0.8113  0.2610  1.8328
 2246SOL    HW2 9371   5.725   6.602   0.840 -0.3949  0.8982 -0.3701
 2247SOL     OW 9372   5.928   5.258   7.966  0.2026 -0.1010  0.2288
 2247SOL    HW1 9373   5.874   5.313   8.023  0.1942 -0.4420  0.5543
 2247SOL    HW2 9374   5.925   5.301   7.881  0.2391  0.4325  0.4919
 2248SOL     OW 9375   8.051   9.701   1.650 -0.2047 -0.0287 -0.4561
 2248SOL    HW1 9376   8.132   9.742   1.681  0.6045 -1.2339 -0.9012
 2248SOL    HW2 9377   8.071   9.670   1.562 -0.8991 -1.0108 -0.2956
 2249SOL     OW 9378   8.736   7.561   2.991 -0.0951 -0.0141 -0.0399
 2249SOL    HW1 9379   8.749   7.483   2.938  0.8977  1.0688 -1.4655
 2249SOL    HW2 9380   8.681   7.618   2.937 -0.9442  0.2198  1.0443
 2250SOL     OW 9381   6.739   9.656   9.911 -0.2183  0.0749 -0.5985
 2250SOL    HW1 9382   6.802   9.727   9.927 -1.3917  0.9324  0.3805
 2250SOL    HW2 9383   6.720   9.663   9.818 -0.0622  0.8358 -0.5852
 2251SOL     OW 9384   6.980   9.597  10.322  0.0436 -0.5969  0.1481
 2251SOL    HW1 9385   7.006   9.682  10.358  1.4524  0.0695 -2.2476
 2251SOL    HW2 9386   6.960   9.543  10.399  0.6767  1.3965  1.7820
 2252SOL     OW 9387   7.583   3.327   4.948  0.1574 -0.0057 -0.0233
 2252SOL    HW1 9388   7.535   3.388   5.004 -0.4445 -0.7545  0.2927
 2252SOL    HW2 9389   7.673   3.330   4.980  0.2193  0.9951 -0.2604
 2253SOL     OW 9390   0.539   9.092   5.591  0.1710  0.1700  0.4024
 2253SOL    HW1 9391   0.597   9.163   5.565  1.8879 -0.7520  1.5576
 2253SOL    HW2 9392   0.487   9.128   5.663  1.0715  0.2766  1.0208
 2254SOL     OW 9393   0.634   9.711   6.227  0.2965 -0.3044  0.1042
 2254SOL    HW1 9394   0.721   9.673   6.238  1.8683  2.3650 -1.8451
 2254SOL    HW2 9395   0.614   9.751   6.312  2.4819  1.7069 -0.2036
 2255SOL     OW 9396   2.168   8.422   7.330 -0.1050  0.7077  0.0661
 2255SOL    HW1 9397   2.143   8.488   7.265  0.1498  0.0618 -0.6989
 2255SOL    HW2 9398   2.194   8.473   7.407 -2.0093  1.4622  0.2754
 2256SOL     OW 9399   8.720   3.785   3.108 -0.3560  0.0343  0.3624
 2256SOL    HW1 9400   8.722   3.800   3.013  1.0481 -1.6769  0.0831
 2256SOL    HW2 9401   8.704   3.872   3.145 -0.6741  0.7890 -1.4196
 2257SOL     OW 9402   7.333  10.080   0.518  0.4699 -0.4769  0.1108
 2257SOL    HW1 9403   7.375  10.048   0.438 -0.5497 -1.1650 -0.1716
 2257SOL    HW2 9404   7.380  10.037   0.589  2.0584  0.9255 -0.0454
 2258SOL     OW 9405   2.850   2.843   1.355 -0.3604  0.0397 -0.5159
 2258SOL    HW1 9406   2.766   2.831   1.399 -0.5210 -1.9973 -1.2669
 2258SOL    HW2 9407   2.889   2.920   1.397 -1.4646 -0.5028  1.5994
 2259SOL     OW 9408   8.642   0.588   8.189  0.0843 -0.4043  0.0954
 2259SOL    HW1 9409   8.661   0.521   8.123 -0.5778  0.8978 -1.4831
 2259SOL    HW2 9410   8.558   0.562   8.227 -0.0161 -0.6319 -0.2782
 2260SOL     OW 9411   4.989  10.192   4.577  0.6023 -0.1657  0.0890
 2260SOL    HW1 9412   4.986  10.108   4.532  0.8627 -0.5076  0.6960
 2260SOL    HW2 9413   5.071  10.232   4.550  0.4587 -0.0815 -0.2330
 2261SOL     OW 9414   2.306   9.700   8.573  0.1089  0.0205 -0.0228
 2261SOL    HW1 9415   2.284   9.693   8.480  1.0906  0.8156 -0.3389
 2261SOL    HW2 9416   2.377   9.637   8.587 -0.2162 -0.2889  0.2519
 2262SOL     OW 9417   4.052   0.552   9.688  0.2286 -0.1535  0.0822
 2262SOL    HW1 9418   4.027   0.628   9.741  0.1617  1.8234 -2.5461
 2262SOL    HW2 9419   3.970   0.503   9.677 -0.1888  0.5131  0.1519
 2263SOL     OW 9420   9.048   0.489   7.011  0.5632  0.0930  0.4262
 2263SOL    HW1 9421   8.994   0.506   7.089  0.4022  0.6439  0.1999
 2263SOL    HW2 9422   9.042   0.394   6.999 -1.8119  0.2876 -0.6034
 2264SOL     OW 9423   5.244   4.812   3.223 -0.1400 -0.0272 -0.5793
 2264SOL    HW1 9424   5.191   4.865   3.282  1.0263 -0.0855  0.5511
 2264SOL    HW2 9425   5.229   4.852   3.136 -0.0004  1.5819  0.0976
 2265SOL     OW 9426   8.881   4.291   1.228  0.2261  0.2981 -0.0874
 2265SOL    HW1 9427   8.971   4.270   1.202  0.3336 -0.4674  0.8574
 2265SOL    HW2 9428   8.891   4.363   1.290  0.2446 -0.2275  0.5260
 2266SOL     OW 9429   4.495   1.337   1.531  0.3550  0.5428  0.2573
 2266SOL    HW1 9430   4.409   1.375   1.513 -1.0637 -0.5670  3.8354
 2266SOL    HW2 9431   4.557   1.405   1.504 -1.6363  1.8067 -1.4561
 2267SOL     OW 9432   1.797   7.388   1.671 -0.0105 -0.6303  0.0755
 2267SOL    HW1 9433   1.820   7.446   1.744 -0.5302  0.5705 -0.6687
 2267SOL    HW2 9434   1.705   7.406   1.655 -0.5256 -2.6011  0.5973
 2268SOL     OW 9435   5.468   6.137   3.923 -0.1172  0.1564 -0.1362
 2268SOL    HW1 9436   5.432   6.180   3.845  0.3932 -1.5642 -1.3667
 2268SOL    HW2 9437   5.394   6.134   3.984 -1.1572 -0.3323 -1.3587
 2269SOL     OW 9438   3.737   0.396   2.078  0.2702 -0.2857 -1.0464
 2269SOL    HW1 9439   3.806   0.335   2.103 -0.4834 -1.7875 -2.4442
 2269SOL    HW2 9440   3.658   0.360   2.119 -0.0345  0.2450 -1.1675
 2270SOL     OW 9441   5.701   8.223   7.129 -0.1769  0.2339  0.8380
 2270SOL    HW1 9442   5.627   8.178   7.169 -0.7396 -1.2464 -1.7025
 2270SOL    HW2 9443   5.665   8.268   7.053  1.4158 -0.0814 -0.1629
 2271SOL     OW 9444   4.752   3.229   6.241  0.3735  0.1384 -0.2762
 2271SOL    HW1 9445   4.748   3.305   6.301  1.9846  0.5844 -0.6989
 2271SOL    HW2 9446   4.727   3.265   6.156 -0.7767 -0.2536 -0.1277
 2272SOL     OW 9447   8.043   4.045   8.975 -0.1275  0.0158  0.0047
 2272SOL    HW1 9448   8.049   4.044   9.070  0.6525 -1.6739 -0.0371
 2272SOL    HW2 9449   8.111   4.107   8.947  1.8518 -1.8443  0.4617
 2273SOL     OW 9450   0.839   6.280   1.289 -0.0537  0.2037  0.1305
 2273SOL    HW1 9451   0.834   6.266   1.195 -0.2508 -0.0533  0.1771
 2273SOL    HW2 9452   0.925   6.319   1.303 -0.5564  1.5341 -0.3125
 2274SOL     OW 9453   8.107   6.234   5.723 -0.2029  0.0099  0.6038
 2274SOL    HW1 9454   8.021   6.205   5.753  0.1166 -2.4024 -0.5507
 2274SOL    HW2 9455   8.091   6.319   5.682 -2.8069 -1.8171 -2.6803
 2275SOL     OW 9456   1.096   5.850   3.185 -0.6509 -0.2324  0.3551
 2275SOL    HW1 9457   1.067   5.847   3.093 -1.1012 -0.0888  0.4888
 2275SOL    HW2 9458   1.079   5.941   3.212  0.2850 -0.0360  0.3272
 2276SOL     OW 9459   2.042   6.056   5.231 -0.2569  0.9250  0.1031
 2276SOL    HW1 9460   2.058   6.103   5.313  0.5016  0.7741  0.0518
 2276SOL    HW2 9461   1.951   6.075   5.209  0.0346  2.3639  0.0867
 2277SOL     OW 9462  10.247   2.068   6.162 -0.0921  0.0601 -0.4683
 2277SOL    HW1 9463  10.303   1.998   6.130 -2.1776 -2.0464  0.2461
 2277SOL    HW2 9464  10.308   2.139   6.183  2.5285 -2.5803  1.6792
 2278SOL     OW 9465   3.204   6.866   0.386 -0.2991  0.0654 -0.0731
 2278SOL    HW1 9466   3.143   6.871   0.312 -0.9849  0.4024  0.5031
 2278SOL    HW2 9467   3.276   6.812   0.354 -0.7176 -0.0225 -0.8967
 2279SOL     OW 9468   4.961   8.590   4.898 -0.2060 -0.2570  0.5495
 2279SOL    HW1 9469   5.041   8.640   4.882 -0.4493  0.3785  1.2988
 2279SOL    HW2 9470   4.992   8.503   4.923  0.2121 -1.0405 -2.3152
 2280SOL     OW 9471   5.750  10.007   1.494 -0.0187 -0.3499 -0.2885
 2280SOL    HW1 9472   5.657  10.016   1.515  0.2174  0.7883  0.3324
 2280SOL    HW2 9473   5.783  10.096   1.489  1.2219 -0.7427  0.3313
 2281SOL     OW 9474   3.730   8.063   5.481  0.1050  0.3202 -0.1744
 2281SOL    HW1 9475   3.643   8.025   5.470 -0.6043  1.8927 -0.2410
 2281SOL    HW2 9476   3.786   7.988   5.501 -1.7052 -0.4634  2.4417
 2282SOL     OW 9477   4.413   5.545   8.740 -0.0222  0.0483  0.2839
 2282SOL    HW1 9478   4.421   5.465   8.790 -2.4686 -1.2931 -1.2716
 2282SOL    HW2 9479   4.481   5.603   8.776  2.2543 -2.8534  1.0769
 2283SOL     OW 9480   5.028   9.796   1.527 -1.0712  0.4428  0.2257
 2283SOL    HW1 9481   5.057   9.868   1.471  2.0907 -0.2494  0.7875
 2283SOL    HW2 9482   5.043   9.828   1.616  1.5693 -1.2467  0.4765
 2284SOL     OW 9483   2.003   4.209   7.391 -0.5164  0.4967  0.2039
 2284SOL    HW1 9484   2.092   4.243   7.397  0.4339 -1.7289 -0.3756
 2284SOL    HW2 9485   1.949   4.286   7.374  1.5179  1.6687 -1.3596
 2285SOL     OW 9486   9.870   5.794   3.878 -0.0082  0.7914 -0.1070
 2285SOL    HW1 9487   9.890   5.785   3.971  0.7015  0.3295 -0.2998
 2285SOL    HW2 9488   9.803   5.862   3.874 -0.0044  0.8495  0.7344
 2286SOL     OW 9489   4.402   5.785   5.049  0.3283 -0.2468 -0.0183
 2286SOL    HW1 9490   4.378   5.872   5.081 -0.9039 -1.2797  2.1108
 2286SOL    HW2 9491   4.496   5.778   5.065  0.3458  0.5125  0.2444
 2287SOL     OW 9492   1.865   6.416   7.255 -0.0224  0.0482 -0.1827
 2287SOL    HW1 9493   1.785   6.384   7.297  0.0117 -1.0539 -0.9408
 2287SOL    HW2 9494   1.931   6.411   7.324 -0.0865 -1.2535 -0.1961
 2288SOL     OW 9495   1.719   8.215   5.867 -0.0985  0.0474  0.7087
 2288SOL    HW1 9496   1.782   8.145   5.879  0.2900  0.3728  0.5960
 2288SOL    HW2 9497   1.633   8.173   5.876  0.1359 -0.1253  2.3900
 2289SOL     OW 9498   8.795   3.329   3.833 -0.2842 -0.2792  0.5840
 2289SOL    HW1 9499   8.813   3.370   3.748  0.9746 -2.3133 -0.2278
 2289SOL    HW2 9500   8.727   3.383   3.872 -0.8818  0.7613 -1.7041
 2290SOL     OW 9501   2.429   2.380   7.106  0.1314 -0.4877  0.3740
 2290SOL    HW1 9502   2.502   2.342   7.057  0.3090 -0.4006  0.5728
 2290SOL    HW2 9503   2.443   2.474   7.102 -0.5494 -0.4001 -0.4976
 2291SOL     OW 9504   9.524   7.209   1.517 -0.0784  0.1586  0.4516
 2291SOL    HW1 9505   9.470   7.129   1.522  1.7469 -1.7250 -4.1072
 2291SOL    HW2 9506   9.614   7.177   1.517  0.7560  2.3082 -0.6578
 2292SOL     OW 9507   0.893   7.613   3.816 -0.1738 -0.6837 -0.0452
 2292SOL    HW1 9508   0.858   7.551   3.752  1.7601 -1.6641 -0.2476
 2292SOL    HW2 9509   0.954   7.561   3.868  2.2619  1.1866 -0.8478
 2293SOL     OW 9510   6.309   8.076   7.350 -0.0776  0.3500  0.2719
 2293SOL    HW1 9511   6.282   8.147   7.409 -0.3529 -1.6946  2.7880
 2293SOL    HW2 9512   6.404   8.069   7.364  0.0232  0.4958 -0.3157
 2294SOL     OW 9513   7.721   2.947   8.413  0.2689 -0.1005  0.3696
 2294SOL    HW1 9514   7.728   2.989   8.498 -0.1625  0.1130  0.3026
 2294SOL    HW2 9515   7.628   2.928   8.403  0.5310 -1.6816  0.6973
 2295SOL     OW 9516   9.999   3.650   6.785  0.0173  0.0324 -0.1361
 2295SOL    HW1 9517   9.932   3.690   6.840 -1.2026 -0.2200 -1.3801
 2295SOL    HW2 9518  10.013   3.713   6.715  0.4441 -0.3101 -0.3643
 2296SOL     OW 9519   3.622   3.917   7.198  0.1392  0.0330  0.0084
 2296SOL    HW1 9520   3.634   4.011   7.186 -0.1750 -0.2054 -3.2451
 2296SOL    HW2 9521   3.708   3.879   7.178 -0.4217 -0.4602 -1.6789
 2297SOL     OW 9522   4.557   1.672   6.642  0.0300  0.0389  0.3548
 2297SOL    HW1 9523   4.611   1.617   6.584  2.0551  2.0874  0.1431
 2297SOL    HW2 9524   4.468   1.661   6.609  0.8237 -0.5134 -1.8209
 2298SOL     OW 9525   3.902   2.963   4.521  0.3561 -0.8818  0.7851
 2298SOL    HW1 9526   3.865   2.880   4.491 -3.4257  0.8813  0.0538
 2298SOL    HW2 9527   3.847   2.990   4.594  0.5666  1.6387  0.1174
 2299SOL     OW 9528   9.611   0.843   9.799 -0.0595 -0.5474  0.2304
 2299SOL    HW1 9529   9.625   0.933   9.829 -1.0409 -0.0704 -0.6871
 2299SOL    HW2 9530   9.642   0.842   9.709 -3.6887  0.0252 -1.1943
 2300SOL     OW 9531   9.153   4.851   8.190 -0.3945 -0.7210 -0.1555
 2300SOL    HW1 9532   9.092   4.796   8.141 -0.8697  0.0985 -0.5268
 2300SOL    HW2 9533   9.151   4.935   8.143  0.1774 -0.3422  0.4817
 2301SOL     OW 9534   0.656   7.047   6.663 -0.1214  0.3881 -0.1154
 2301SOL    HW1 9535   0.722   6.977   6.661 -0.2553  0.2599 -0.0931
 2301SOL    HW2 9536   0.576   7.005   6.631 -0.0682  0.6792 -0.6480
 2302SOL     OW 9537   3.684   5.665   4.266 -0.5553  0.4450  0.3876
 2302SOL    HW1 9538   3.764   5.616   4.281 -0.6250  0.3461  0.4320
 2302SOL    HW2 9539   3.629   5.647   4.342 -0.2245  1.3013  0.8387
 2303SOL     OW 9540   9.169   2.687   0.487 -0.0211 -0.1475  0.1131
 2303SOL    HW1 9541   9.256   2.720   0.468 -0.2649 -0.2047 -1.1353
 2303SOL    HW2 9542   9.168   2.678   0.583  1.3758 -0.2697  0.1420
 2304SOL     OW 9543   7.562   7.541   9.086 -0.0772 -0.1417  0.0125
 2304SOL    HW1 9544   7.590   7.450   9.102 -0.1389  0.1456  1.9560
 2304SOL    HW2 9545   7.643   7.592   9.089 -0.1617 -0.0078  0.0284
 2305SOL     OW 9546   5.492   6.090   2.401 -0.1461  0.1132 -0.0339
 2305SOL    HW1 9547   5.457   6.164   2.451 -0.4137 -1.2563  1.9506
 2305SOL    HW2 9548   5.414   6.049   2.362 -0.8818 -2.2678  3.4527
 2306SOL     OW 9549   3.832   5.363   3.242 -0.4398 -0.0657 -0.3277
 2306SOL    HW1 9550   3.913   5.390   3.199  0.4360 -1.3858  0.4103
 2306SOL    HW2 9551   3.786   5.310   3.177 -0.7932  0.8102 -0.7996
 2307SOL     OW 9552   7.108   9.744   0.877 -0.3267 -0.1502  0.0618
 2307SOL    HW1 9553   7.120   9.649   0.886  0.0073 -0.0802  0.3511
 2307SOL    HW2 9554   7.190   9.782   0.908 -0.7901  0.2716  0.8137
 2308SOL     OW 9555   0.001   7.076   3.309 -0.2572 -0.2557  0.0275
 2308SOL    HW1 9556  -0.040   7.017   3.374  0.1996 -2.3007 -1.4352
 2308SOL    HW2 9557  -0.074   7.116   3.264 -0.6768 -1.5566 -0.5090
 2309SOL     OW 9558   2.961   7.383   3.946  0.1099 -0.0627 -0.1761
 2309SOL    HW1 9559   2.970   7.477   3.960  2.5510 -0.1130 -0.9254
 2309SOL    HW2 9560   2.923   7.374   3.859 -0.9068  0.2111  0.2311
 2310SOL     OW 9561   9.484   2.676   0.056 -0.2038  0.1572 -0.2681
 2310SOL    HW1 9562   9.471   2.740   0.126  0.0122 -1.9487  1.8120
 2310SOL    HW2 9563   9.577   2.683   0.034  0.3303 -0.8260  1.4690
 2311SOL     OW 9564   7.200   9.862   1.861 -0.2258 -0.5412  0.2196
 2311SOL    HW1 9565   7.258   9.891   1.932 -1.2002  0.0305  0.8075
 2311SOL    HW2 9566   7.252   9.873   1.782  0.1703  0.8556  0.6358
 2312SOL     OW 9567   0.478   2.161   2.551 -0.5214 -0.3776 -0.6249
 2312SOL    HW1 9568   0.518   2.166   2.638 -0.0829 -1.1264 -0.7782
 2312SOL    HW2 9569   0.513   2.081   2.513 -0.0047  0.3876 -1.8434
 2313SOL     OW 9570   1.781   1.800  10.194 -0.2737  0.2590 -0.0500
 2313SOL    HW1 9571   1.870   1.836  10.204 -0.0154 -0.2791 -0.4041
 2313SOL    HW2 9572   1.793   1.722  10.141 -0.6311 -1.1791  1.8678
 2314SOL     OW 9573   9.895   3.868   5.003  0.6821  0.3926  0.3178
 2314SOL    HW1 9574   9.954   3.867   4.928 -1.3842  0.8551 -1.3842
 2314SOL    HW2 9575   9.861   3.779   5.008 -0.5163  0.7900 -0.4328
 2315SOL     OW 9576   2.097   4.565   5.743 -0.5658  0.3640  0.0032
 2315SOL    HW1 9577   2.013   4.582   5.701 -1.6345  0.1489  1.9594
 2315SOL    HW2 9578   2.126   4.650   5.775 -1.2313  0.0864  1.4078
 2316SOL     OW 9579   1.012   3.874   6.600 -0.1060 -0.2550  0.2657
 2316SOL    HW1 9580   1.100   3.911   6.604 -1.6045  3.6728  2.9584
 2316SOL    HW2 9581   0.968   3.923   6.530 -0.8230 -0.4137  0.5983
 2317SOL     OW 9582   3.543   2.258   4.480  0.1058  0.3054  0.7320
 2317SOL    HW1 9583   3.485   2.214   4.417 -0.0762 -0.1969  1.2367
 2317SOL    HW2 9584   3.614   2.294   4.427 -0.2308  0.1967  0.2003
 2318SOL     OW 9585   6.889   2.510   2.794  0.1710  0.6006 -0.3272
 2318SOL    HW1 9586   6.821   2.476   2.737  0.2116 -0.2366  0.1123
 2318SOL    HW2 9587   6.918   2.591   2.752 -1.7898  1.5277 -0.0117
 2319SOL     OW 9588   2.872   5.223   5.175  0.3903  0.4000 -0.3361
 2319SOL    HW1 9589   2.797   5.209   5.117 -1.8365  1.5955  2.0611
 2319SOL    HW2 9590   2.856   5.165   5.249  1.2965  1.4324  0.7036
 2320SOL     OW 9591   5.121   5.442   3.560 -0.5224  0.7048 -0.2676
 2320SOL    HW1 9592   5.191   5.396   3.514  1.9999  0.8415  3.0713
 2320SOL    HW2 9593   5.095   5.382   3.630 -1.1437  2.1461  0.7814
 2321SOL     OW 9594   6.285   7.919   9.613  0.3141 -0.5574 -0.3364
 2321SOL    HW1 9595   6.332   8.000   9.597 -0.9268  0.0087 -1.2305
 2321SOL    HW2 9596   6.316   7.890   9.699 -0.3859  1.7169  0.7605
 2322SOL     OW 9597   5.571   0.320   1.033  0.0378  0.2870  0.3937
 2322SOL    HW1 9598   5.514   0.265   0.979 -0.2518 -0.6332  1.5901
 2322SOL    HW2 9599   5.532   0.317   1.120  1.9131 -0.4210  1.2623
 2323SOL     OW 9600   1.748   4.974   6.134 -0.1121 -0.2908 -0.0576
 2323SOL    HW1 9601   1.772   4.924   6.212 -0.2848  1.2942  1.0751
 2323SOL    HW2 9602   1.830   4.982   6.085  0.1892 -0.6005  0.3806
 2324SOL     OW 9603   9.272   7.226   3.043  0.3845  0.3355 -0.1678
 2324SOL    HW1 9604   9.306   7.142   3.074  1.1572  0.5211 -0.4897
 2324SOL    HW2 9605   9.315   7.239   2.958 -1.2993  0.0629 -1.1037
 2325SOL     OW 9606   8.247   1.558   9.029  0.3172  0.5652  0.5922
 2325SOL    HW1 9607   8.330   1.515   9.051 -0.9426 -1.1055  2.4559
 2325SOL    HW2 9608   8.196   1.491   8.984 -0.8363  0.7938  1.4994
 2326SOL     OW 9609   8.842   7.753   2.696 -0.2465 -0.0479 -0.6770
 2326SOL    HW1 9610   8.923   7.706   2.675 -0.1229 -0.7275  1.1090
 2326SOL    HW2 9611   8.862   7.798   2.779 -1.2113  1.0516 -1.0178
 2327SOL     OW 9612   9.583   6.768   9.934 -0.1110  0.1207 -1.0914
 2327SOL    HW1 9613   9.537   6.832   9.988 -1.4053 -0.9500 -0.8559
 2327SOL    HW2 9614   9.636   6.820   9.874  1.1956  1.3661  0.9919
 2328SOL     OW 9615   2.576  10.053   9.022  0.1833 -0.4730 -0.1294
 2328SOL    HW1 9616   2.643  10.082   9.084 -0.5074  1.1692 -0.1041
 2328SOL    HW2 9617   2.542  10.134   8.984 -0.2945 -1.3873 -1.7327
 2329SOL     OW 9618   3.438   2.653   3.884  0.5966  0.2883 -0.2237
 2329SOL    HW1 9619   3.505   2.616   3.826 -0.7084 -0.0360 -1.5701
 2329SOL    HW2 9620   3.393   2.718   3.830  0.2129  0.9354  0.8525
 2330SOL     OW 9621   7.552   5.699   3.146 -0.2199 -0.0392 -0.0136
 2330SOL    HW1 9622   7.604   5.637   3.198 -0.6803 -2.7131 -2.5216
 2330SOL    HW2 9623   7.475   5.715   3.200 -1.1814 -3.5367 -0.0871
 2331SOL     OW 9624   5.463   9.772   3.369  0.9473 -0.2376 -0.3657
 2331SOL    HW1 9625   5.397   9.763   3.438  0.9052 -1.0999 -0.5202
 2331SOL    HW2 9626   5.448   9.860   3.334  0.7371  0.0740  0.4826
 2332SOL     OW 9627   4.583   1.223   2.496 -0.4505 -0.0186 -0.1831
 2332SOL    HW1 9628   4.532   1.154   2.453  1.2066 -1.0695 -0.5432
 2332SOL    HW2 9629   4.517   1.278   2.538 -1.9120 -0.9981 -1.0819
 2333SOL     OW 9630   9.195   2.276   5.041  0.3565  0.2434  0.4248
 2333SOL    HW1 9631   9.214   2.247   5.131  0.3453  2.4111  1.1681
 2333SOL    HW2 9632   9.271   2.327   5.015  0.3664 -0.3714 -0.8328
 2334SOL     OW 9633   1.693   8.693   7.629  0.1514 -0.2250 -0.2556
 2334SOL    HW1 9634   1.784   8.708   7.655 -0.9703  3.1105  2.4822
 2334SOL    HW2 9635   1.669   8.770   7.579 -1.7107 -0.0631  0.8129
 2335SOL     OW 9636   1.235   7.690   6.468 -0.1483  0.7300  0.1347
 2335SOL    HW1 9637   1.211   7.650   6.384 -2.8672 -0.5388  1.4127
 2335SOL    HW2 9638   1.203   7.780   6.461 -0.5393  0.5719 -0.1061
 2336SOL     OW 9639   7.959   5.814   0.922  0.0398 -0.1142  0.1643
 2336SOL    HW1 9640   7.879   5.811   0.869  0.0043 -0.3757  0.2328
 2336SOL    HW2 9641   8.029   5.825   0.858 -0.0813  0.5352  0.1305
 2337SOL     OW 9642   9.085   8.056   0.667 -0.6140  0.2562  0.5434
 2337SOL    HW1 9643   9.028   8.004   0.724  0.0036 -1.8918 -0.7020
 2337SOL    HW2 9644   9.036   8.066   0.586  0.1381 -0.2600  0.0139
 2338SOL     OW 9645   9.696   8.523   3.767  0.0786  0.5495  0.3211
 2338SOL    HW1 9646   9.669   8.554   3.853  0.5823 -1.8500  1.4166
 2338SOL    HW2 9647   9.629   8.461   3.741  0.1303  0.9685 -0.8897
 2339SOL     OW 9648   5.554   3.214   6.200  0.4133  0.1392  0.2876
 2339SOL    HW1 9649   5.554   3.127   6.241  0.2835  0.1404  0.2903
 2339SOL    HW2 9650   5.642   3.224   6.166 -0.0055 -0.6461 -1.1135
 2340SOL     OW 9651   4.091   0.741   2.451 -0.0653 -0.0215  0.1682
 2340SOL    HW1 9652   4.092   0.645   2.443  1.7963  0.0369 -0.8727
 2340SOL    HW2 9653   4.153   0.759   2.522  0.1077  0.4350 -0.0991
 2341SOL     OW 9654   9.435   3.541   7.213  0.1344  0.6245 -0.2192
 2341SOL    HW1 9655   9.388   3.625   7.202 -0.4189  0.3092 -0.3133
 2341SOL    HW2 9656   9.516   3.565   7.258 -0.1087  1.1874 -0.0660
 2342SOL     OW 9657   8.328   4.176   0.643 -0.5909  0.0008 -0.0546
 2342SOL    HW1 9658   8.322   4.120   0.566 -2.1508  1.1572 -0.8473
 2342SOL    HW2 9659   8.416   4.162   0.676 -0.6966 -2.4005 -0.5776
 2343SOL     OW 9660   6.693   8.857   4.985 -0.1082 -0.3949  0.5067
 2343SOL    HW1 9661   6.656   8.895   4.905  0.1927  0.3114  0.7014
 2343SOL    HW2 9662   6.627   8.872   5.052  0.3267  0.4480  0.7492
 2344SOL     OW 9663   7.559   8.139   5.408 -0.2499  0.3276  0.5160
 2344SOL    HW1 9664   7.654   8.130   5.393 -0.6268 -1.5982 -1.1309
 2344SOL    HW2 9665   7.548   8.122   5.501  0.9610 -0.1597  0.5943
 2345SOL     OW 9666   4.253   6.009   9.356 -0.1600  0.5439 -0.1478
 2345SOL    HW1 9667   4.195   6.037   9.428 -0.9502  2.7950 -1.5325
 2345SOL    HW2 9668   4.327   6.070   9.360  0.1880  0.1708 -0.7396
 2346SOL     OW 9669   0.596   5.960  10.335  0.0700 -0.3552 -0.3208
 2346SOL    HW1 9670   0.599   6.016  10.257  2.0303  0.1203  0.0392
 2346SOL    HW2 9671   0.686   5.931  10.347 -0.0276  0.1868  2.1953
 2347SOL     OW 9672   1.062   2.311   7.532  0.2331 -0.9493  0.1860
 2347SOL    HW1 9673   1.158   2.319   7.537  0.2630 -1.5739  0.7374
 2347SOL    HW2 9674   1.034   2.389   7.485  0.9874 -0.5845  0.3268
 2348SOL     OW 9675   8.382   4.455   6.602  0.3387 -0.2687 -0.1132
 2348SOL    HW1 9676   8.435   4.534   6.600 -2.2160  1.5689 -0.2316
 2348SOL    HW2 9677   8.296   4.483   6.569 -0.8069 -2.9870  0.3091
 2349SOL     OW 9678   9.339   7.887   0.376  0.2706 -1.0533 -0.1053
 2349SOL    HW1 9679   9.350   7.958   0.312 -0.2980 -0.7720  0.1005
 2349SOL    HW2 9680   9.426   7.877   0.415  0.2496 -0.1205  0.2155
 2350SOL     OW 9681   5.379   9.306  10.241 -0.5609 -0.0580  0.1548
 2350SOL    HW1 9682   5.427   9.224  10.230 -2.3225 -1.4895  2.2754
 2350SOL    HW2 9683   5.297   9.281  10.282 -1.1229  2.7921  1.0297
 2351SOL     OW 9684   8.553   4.884   9.853 -0.4171 -0.5379  0.3019
 2351SOL    HW1 9685   8.610   4.881   9.930  1.3757 -0.5705 -0.9663
 2351SOL    HW2 9686   8.570   4.969   9.813  2.1761 -2.1525 -2.4790
 2352SOL     OW 9687   3.739   2.663   0.920 -0.3358  0.7281  0.0351
 2352SOL    HW1 9688   3.796   2.733   0.953  0.8615  0.5878 -1.6150
 2352SOL    HW2 9689   3.705   2.621   0.999  0.1415  2.1825  1.0653
 2353SOL     OW 9690   7.771   0.287   4.855 -0.3702 -0.5383 -0.6593
 2353SOL    HW1 9691   7.731   0.200   4.858 -1.4309 -0.0242  0.7439
 2353SOL    HW2 9692   7.753   0.318   4.766 -1.2995 -1.1539 -0.7009
 2354SOL     OW 9693   2.514   4.523   5.906 -0.2030 -0.5161 -0.6329
 2354SOL    HW1 9694   2.453   4.452   5.885  0.6779 -1.1911 -0.9949
 2354SOL    HW2 9695   2.595   4.498   5.862  0.4596  0.1446  0.1844
 2355SOL     OW 9696   8.878   1.221   4.828 -0.2444 -0.0939  0.2860
 2355SOL    HW1 9697   8.969   1.245   4.811 -0.1311 -1.1632 -0.8005
 2355SOL    HW2 9698   8.837   1.217   4.741 -0.0955 -4.1503  0.1757
 2356SOL     OW 9699   4.601   7.537   1.767 -0.6612 -0.2209 -0.1412
 2356SOL    HW1 9700   4.576   7.503   1.682 -0.9074 -3.2896  1.0292
 2356SOL    HW2 9701   4.521   7.533   1.820  0.2259 -1.8479  1.1861
 2357SOL     OW 9702   4.399   1.973   4.145 -0.4887 -0.1868  0.1336
 2357SOL    HW1 9703   4.344   1.929   4.080 -0.7903  0.3097  0.0405
 2357SOL    HW2 9704   4.338   2.004   4.211 -0.5219  1.5834 -0.6654
 2358SOL     OW 9705   6.108   8.741   9.238  0.2825 -0.7025  0.6317
 2358SOL    HW1 9706   6.109   8.801   9.163 -1.0635 -1.1884  0.1972
 2358SOL    HW2 9707   6.030   8.766   9.288 -0.9070 -2.7074 -0.1027
 2359SOL     OW 9708   0.681   4.027   6.214  0.5178  0.4112 -0.2853
 2359SOL    HW1 9709   0.740   3.966   6.168  0.4660 -0.4088  0.7113
 2359SOL    HW2 9710   0.676   4.103   6.156  2.9086  0.6936 -0.2299
 2360SOL     OW 9711   4.294   7.538   9.218 -0.3271 -0.1103 -0.2227
 2360SOL    HW1 9712   4.276   7.632   9.216 -1.7174 -0.3494 -0.4682
 2360SOL    HW2 9713   4.350   7.522   9.142 -0.2631  0.4820 -0.3051
 2361SOL     OW 9714   0.188   6.384   8.844 -0.2968  0.5055 -0.0347
 2361SOL    HW1 9715   0.119   6.436   8.803 -0.4328  1.7232  1.6442
 2361SOL    HW2 9716   0.268   6.412   8.801 -0.8397 -1.7896 -2.8788
 2362SOL     OW 9717   3.492   2.132  10.195  0.5212 -0.1242  0.5214
 2362SOL    HW1 9718   3.477   2.213  10.242  0.7272  0.4946 -0.4482
 2362SOL    HW2 9719   3.477   2.063  10.260  1.2489  0.7012  1.5850
 2363SOL     OW 9720   1.963   7.509   6.245  0.1182  0.1154 -0.5186
 2363SOL    HW1 9721   1.969   7.445   6.175  4.3973  0.0939 -0.3498
 2363SOL    HW2 9722   2.003   7.466   6.321  1.3598  2.2471  0.1250
 2364SOL     OW 9723   8.492  10.000   5.688 -0.1711  0.0637  0.2015
 2364SOL    HW1 9724   8.538   9.944   5.750  0.6224  0.3393 -0.1267
 2364SOL    HW2 9725   8.484  10.084   5.732 -0.3145  0.0341  0.2348
 2365SOL     OW 9726   3.064   4.345   6.312  0.2374  0.6900  0.1059
 2365SOL    HW1 9727   3.047   4.391   6.230 -0.3522 -0.0176 -0.1803
 2365SOL    HW2 9728   3.096   4.259   6.285  1.3308  0.9065  0.6338
 2366SOL     OW 9729   1.527   3.258   8.436 -0.3116  0.1734 -0.3289
 2366SOL    HW1 9730   1.513   3.270   8.343 -1.3972  0.4148 -0.1494
 2366SOL    HW2 9731   1.498   3.340   8.476 -0.4030 -0.1352  0.2557
 2367SOL     OW 9732   6.880   1.052   5.152 -0.6200  0.4811  0.3622
 2367SOL    HW1 9733   6.972   1.079   5.156 -0.1150 -1.2103  2.4521
 2367SOL    HW2 9734   6.834   1.114   5.208 -0.2700 -0.1513  1.3832
 2368SOL     OW 9735   1.059   7.568  10.213 -0.4476 -0.4529 -0.4498
 2368SOL    HW1 9736   1.034   7.610  10.131  1.2096 -0.7184 -1.1359
 2368SOL    HW2 9737   1.104   7.637  10.262  0.2174 -0.7802 -0.5837
 2369SOL     OW 9738   4.182   9.210   5.836 -0.5589 -0.2951 -0.5237
 2369SOL    HW1 9739   4.259   9.174   5.792 -0.6150 -2.0391  0.7073
 2369SOL    HW2 9740   4.108   9.184   5.781 -0.4726 -0.7612 -0.4189
 2370SOL     OW 9741   7.248   7.158   2.728 -0.1842 -0.1439 -0.1956
 2370SOL    HW1 9742   7.186   7.114   2.670 -0.4855 -0.3337  0.2727
 2370SOL    HW2 9743   7.231   7.252   2.714 -0.4700 -0.1929 -0.1776
 2371SOL     OW 9744   0.037   8.356   2.627  0.3772 -0.3859  0.4303
 2371SOL    HW1 9745  -0.042   8.336   2.677 -0.5499 -3.5759 -1.9596
 2371SOL    HW2 9746   0.109   8.328   2.684 -0.2827  0.4399  1.7327
 2372SOL     OW 9747   5.460  10.255   6.081 -0.1903 -0.3282  0.2064
 2372SOL    HW1 9748   5.385  10.296   6.038 -0.4128 -1.5064 -0.5507
 2372SOL    HW2 9749   5.531  10.261   6.017  0.6582  1.5635  1.2403
 2373SOL     OW 9750   8.534   8.692   3.155  0.6740 -0.3680  0.3263
 2373SOL    HW1 9751   8.585   8.690   3.236  1.3769 -3.7087 -0.0611
 2373SOL    HW2 9752   8.469   8.623   3.165 -0.5965  0.5443 -1.1677
 2374SOL     OW 9753   8.317   7.186   7.686 -0.6567 -0.3180  0.1518
 2374SOL    HW1 9754   8.280   7.108   7.728 -0.1382 -1.0666 -0.7487
 2374SOL    HW2 9755   8.395   7.206   7.738 -2.0116  1.0224  1.8039
 2375SOL     OW 9756   7.885   8.623   0.275  0.0499  0.3956 -0.3425
 2375SOL    HW1 9757   7.899   8.622   0.181 -1.2446  0.1951 -0.5527
 2375SOL    HW2 9758   7.795   8.592   0.286  0.2096  0.3402  0.9618
 2376SOL     OW 9759   2.640   5.055   1.295  0.5153  0.1034 -0.4012
 2376SOL    HW1 9760   2.693   5.075   1.218 -0.9331 -0.5503 -1.6302
 2376SOL    HW2 9761   2.588   5.134   1.309 -1.1002 -0.6377 -1.7650
 2377SOL     OW 9762   9.007   3.485   8.341 -0.0111 -0.0498 -0.6395
 2377SOL    HW1 9763   8.933   3.457   8.286  1.1587 -1.6119 -1.5081
 2377SOL    HW2 9764   9.038   3.404   8.382  0.5745  0.7554  0.5393
 2378SOL     OW 9765   0.302   3.302   1.790 -0.0035 -0.1523  0.1710
 2378SOL    HW1 9766   0.218   3.337   1.818  0.3358  1.9145 -1.1184
 2378SOL    HW2 9767   0.367   3.360   1.831  0.6753 -0.3218 -0.6319
 2379SOL     OW 9768   3.126   6.530   9.248  0.1515 -0.5782  0.1223
 2379SOL    HW1 9769   3.126   6.489   9.162 -0.3545 -1.2667  0.4468
 2379SOL    HW2 9770   3.217   6.554   9.263  0.4025 -1.3207 -0.1936
 2380SOL     OW 9771   6.101   9.174   9.887 -0.0340 -0.4287 -0.7684
 2380SOL    HW1 9772   6.042   9.099   9.883  1.2615 -1.4788 -0.7272
 2380SOL    HW2 9773   6.158   9.157   9.962 -0.0855  0.8894 -0.3932
 2381SOL     OW 9774   8.854   7.892   9.761  0.2090 -0.5651  0.0343
 2381SOL    HW1 9775   8.815   7.953   9.824  0.0061 -1.5515  0.8833
 2381SOL    HW2 9776   8.902   7.948   9.700  0.5894  0.3988  1.1924
 2382SOL     OW 9777   5.715   6.707   5.696 -0.0294 -0.1825  0.4143
 2382SOL    HW1 9778   5.680   6.757   5.769  0.1793 -1.1526  1.2115
 2382SOL    HW2 9779   5.642   6.654   5.665  0.1650 -0.6007  0.6592
 2383SOL     OW 9780  10.082   4.742   5.804 -0.0533  0.1704  0.2165
 2383SOL    HW1 9781  10.131   4.660   5.816 -1.4971 -0.8493 -0.5320
 2383SOL    HW2 9782  10.022   4.746   5.879  1.3404  1.5901  1.3172
 2384SOL     OW 9783   0.961   6.896   4.770  0.1577  0.0080  0.2869
 2384SOL    HW1 9784   1.055   6.901   4.787  0.3057 -1.0865 -0.1254
 2384SOL    HW2 9785   0.949   6.811   4.728 -0.4331  1.7208 -3.3520
 2385SOL     OW 9786   9.707   4.217   0.279  0.7515  0.2444  0.2225
 2385SOL    HW1 9787   9.797   4.226   0.313  0.6887  0.9607  0.2078
 2385SOL    HW2 9788   9.669   4.304   0.288 -0.3743 -0.3344  1.4236
 2386SOL     OW 9789   6.958   8.863   4.077  0.4501 -0.3807  0.3673
 2386SOL    HW1 9790   6.886   8.887   4.019  0.9023  0.2576  0.0583
 2386SOL    HW2 9791   6.931   8.892   4.164  0.7811  0.8396  0.0778
 2387SOL     OW 9792   3.759   6.256   3.022 -0.2227 -0.5335 -0.2427
 2387SOL    HW1 9793   3.694   6.187   3.014 -0.0432 -0.9071  1.1690
 2387SOL    HW2 9794   3.842   6.214   2.998 -0.0585 -0.9422  0.9617
 2388SOL     OW 9795  10.267   5.008  10.091  0.0373  0.2686  0.1521
 2388SOL    HW1 9796  10.343   4.952  10.077  0.7954  1.3055 -0.0336
 2388SOL    HW2 9797  10.283   5.085  10.036  0.4034  1.9236  2.3994
 2389SOL     OW 9798   5.553   3.372   1.302  0.2130 -0.1232 -0.4374
 2389SOL    HW1 9799   5.559   3.323   1.383  0.6576  0.7900  0.1051
 2389SOL    HW2 9800   5.471   3.344   1.262  0.0489 -0.6706  0.2704
 2390SOL     OW 9801   3.124   1.881   7.448 -0.1943  0.6057  0.3706
 2390SOL    HW1 9802   3.096   1.847   7.533  0.3548 -0.4919  0.1307
 2390SOL    HW2 9803   3.182   1.954   7.469 -1.7037  1.7134  0.8952
 2391SOL     OW 9804   8.294   2.627   4.329 -0.0166 -0.3603 -0.1434
 2391SOL    HW1 9805   8.229   2.592   4.267 -3.1324  0.6602  2.2391
 2391SOL    HW2 9806   8.328   2.705   4.287 -0.6561 -0.7098 -1.3499
 2392SOL     OW 9807   6.745   4.010   2.831  0.4628 -0.0568  0.2353
 2392SOL    HW1 9808   6.654   4.006   2.802 -0.4236 -1.3581  2.8584
 2392SOL    HW2 9809   6.758   4.102   2.855 -0.0534  0.1946 -0.4033
 2393SOL     OW 9810  10.015   9.631   8.500 -0.5715 -0.1319 -0.4254
 2393SOL    HW1 9811  10.079   9.594   8.561 -0.2841  1.7344  0.4910
 2393SOL    HW2 9812  10.015   9.724   8.520 -2.9234  0.0532 -1.0598
 2394SOL     OW 9813   8.016   1.919   0.269  0.8053  0.7029  0.1253
 2394SOL    HW1 9814   8.088   1.981   0.257  0.5522  0.8563 -0.6349
 2394SOL    HW2 9815   7.941   1.960   0.226  0.7178 -0.2612 -0.6939
 2395SOL     OW 9816   7.186   5.925   7.268 -0.1929  0.2981 -0.1161
 2395SOL    HW1 9817   7.214   5.903   7.179 -0.8791 -0.0550 -0.2470
 2395SOL    HW2 9818   7.092   5.940   7.261 -0.5948 -1.4994  0.8738
 2396SOL     OW 9819   9.842   8.974   2.077 -0.4688 -0.0302  0.0843
 2396SOL    HW1 9820   9.758   9.006   2.045  0.8525  0.6908 -2.9703
 2396SOL    HW2 9821   9.896   9.053   2.088  0.1502 -0.5583  1.0474
 2397SOL     OW 9822   8.660   1.179   7.752 -0.1075  0.0016  0.0082
 2397SOL    HW1 9823   8.743   1.221   7.731  0.2174 -0.2652  0.7453
 2397SOL    HW2 9824   8.608   1.188   7.671 -0.2759  2.3269  0.2854
 2398SOL     OW 9825   3.287   9.298   7.832 -0.2924 -0.5739 -0.5032
 2398SOL    HW1 9826   3.257   9.380   7.872 -0.7717 -0.3860 -1.2176
 2398SOL    HW2 9827   3.356   9.266   7.890 -0.7474 -0.1439  0.2808
 2399SOL     OW 9828   0.660   3.686   6.183 -0.2439 -0.2784  0.6539
 2399SOL    HW1 9829   0.645   3.754   6.249 -0.3422 -1.6539  2.1063
 2399SOL    HW2 9830   0.742   3.711   6.141 -0.0845  0.5417  1.4138
 2400SOL     OW 9831  10.308  10.162   2.102  0.0783  0.0058 -0.1561
 2400SOL    HW1 9832  10.215  10.171   2.120  0.4738  0.8565  1.6578
 2400SOL    HW2 9833  10.312  10.124   2.014 -1.9333  1.4970 -0.9504
 2401SOL     OW 9834   8.622   9.426   8.230  0.2944 -0.2138  0.2665
 2401SOL    HW1 9835   8.599   9.503   8.177  1.2480 -0.5778 -0.7172
 2401SOL    HW2 9836   8.542   9.374   8.232  0.1829 -0.0868 -0.6358
 2402SOL     OW 9837   2.597   9.485   2.726 -0.1938  0.1585  0.0187
 2402SOL    HW1 9838   2.521   9.486   2.785 -1.4455  2.9796 -1.4332
 2402SOL    HW2 9839   2.643   9.404   2.748 -1.8689 -0.1191  3.1585
 2403SOL     OW 9840   8.225   7.105   5.303  0.1379  0.1433  0.5648
 2403SOL    HW1 9841   8.249   7.198   5.298  1.5300 -0.2742 -2.5050
 2403SOL    HW2 9842   8.306   7.061   5.327  0.2129 -0.4914 -0.7871
 2404SOL     OW 9843   1.772   1.426   6.008 -0.4189  0.1283  0.3600
 2404SOL    HW1 9844   1.724   1.352   5.971  1.3668 -0.8188 -0.1957
 2404SOL    HW2 9845   1.857   1.424   5.964  0.3922  1.3227  1.7605
 2405SOL     OW 9846   3.873   8.304   8.080 -0.2441  0.2524  0.0688
 2405SOL    HW1 9847   3.812   8.259   8.137 -0.7875  0.2826 -0.4770
 2405SOL    HW2 9848   3.840   8.393   8.074 -0.0495  0.3175 -0.0908
 2406SOL     OW 9849   4.786   4.406  10.022  0.3095 -0.4374 -0.1656
 2406SOL    HW1 9850   4.784   4.500  10.039  1.1969 -0.3079 -0.7012
 2406SOL    HW2 9851   4.830   4.368  10.098 -1.5161 -0.6473  0.8583
 2407SOL     OW 9852   7.683  10.020   5.209 -0.5409  0.0358 -0.0773
 2407SOL    HW1 9853   7.590  10.014   5.184 -0.8280 -0.6141  1.0366
 2407SOL    HW2 9854   7.686   9.978   5.295  0.7583  0.2617 -0.0031
 2408SOL     OW 9855   6.671   4.418   6.676  0.3799  0.4700  0.2614
 2408SOL    HW1 9856   6.730   4.485   6.642 -1.2365  1.4022 -0.8096
 2408SOL    HW2 9857   6.620   4.389   6.600 -0.7240 -0.0982  1.1808
 2409SOL     OW 9858   3.721   3.386   3.040  0.0765 -0.2019  0.2751
 2409SOL    HW1 9859   3.809   3.352   3.027  0.3704  0.9889 -1.2802
 2409SOL    HW2 9860   3.682   3.383   2.953 -1.0513  0.2460  0.7540
 2410SOL     OW 9861   4.901   4.011   0.809  0.6348 -0.0685  0.4788
 2410SOL    HW1 9862   4.956   3.941   0.843  1.1228 -0.6673 -1.4504
 2410SOL    HW2 9863   4.811   3.977   0.816  0.9227 -1.3385 -1.2958
 2411SOL     OW 9864  10.266   0.611   1.209 -0.3840 -0.2478  0.4659
 2411SOL    HW1 9865  10.308   0.601   1.295  1.8604 -0.5438 -0.5903
 2411SOL    HW2 9866  10.256   0.705   1.198 -1.4109 -0.2352  1.3497
 2412SOL     OW 9867   4.315   6.657   7.182  0.2728 -0.2173  0.1856
 2412SOL    HW1 9868   4.401   6.647   7.140 -0.2501  0.1508 -1.0232
 2412SOL    HW2 9869   4.254   6.614   7.122 -0.5661  0.7519  0.3122
 2413SOL     OW 9870   0.335   1.644  10.149  0.3476 -0.1478  0.0834
 2413SOL    HW1 9871   0.321   1.582  10.077  0.4960  0.6038 -0.6139
 2413SOL    HW2 9872   0.398   1.707  10.114 -1.3641  1.6132 -0.0121
 2414SOL     OW 9873   1.073   4.121   3.111  0.3217  0.1443 -0.4334
 2414SOL    HW1 9874   1.126   4.201   3.110 -1.0643  1.0834 -1.5827
 2414SOL    HW2 9875   1.088   4.084   3.199  2.4629  0.6112 -0.5481
 2415SOL     OW 9876   3.393   2.046   6.626  0.0979  0.3862 -0.1217
 2415SOL    HW1 9877   3.471   2.101   6.634  0.6197 -0.3265 -0.2107
 2415SOL    HW2 9878   3.367   2.027   6.717 -0.9151  1.8976 -0.0555
 2416SOL     OW 9879   0.592   2.063   1.612  0.0458  0.2537  0.5498
 2416SOL    HW1 9880   0.665   2.002   1.618  0.5381  0.7990  0.1995
 2416SOL    HW2 9881   0.521   2.021   1.661  1.1709  0.5795  2.5810
 2417SOL     OW 9882   9.112   3.112   9.780 -0.3949  0.4035 -0.2585
 2417SOL    HW1 9883   9.045   3.048   9.759 -1.0745  0.6712  0.9950
 2417SOL    HW2 9884   9.113   3.116   9.876  0.8455  1.0024 -0.2675
 2418SOL     OW 9885   2.303   5.336   7.898  0.5138  0.3361 -0.0033
 2418SOL    HW1 9886   2.389   5.376   7.888  0.1588  0.8995 -0.9389
 2418SOL    HW2 9887   2.320   5.242   7.894  0.9981  0.4515 -1.1066
 2419SOL     OW 9888   8.864   6.752   5.726 -0.1909 -0.4444  0.2143
 2419SOL    HW1 9889   8.820   6.836   5.734  1.5850  0.6451 -0.7789
 2419SOL    HW2 9890   8.909   6.756   5.642  1.2022 -1.7590  0.8449
 2420SOL     OW 9891   4.865   8.238   8.231 -0.1890 -0.5183  1.0043
 2420SOL    HW1 9892   4.956   8.263   8.218  0.1487 -1.1563  2.0084
 2420SOL    HW2 9893   4.836   8.291   8.306 -0.2845 -1.1579  1.4269
 2421SOL     OW 9894   1.760   6.957   3.437 -0.2064  0.3461  0.3495
 2421SOL    HW1 9895   1.782   6.970   3.345  1.8609 -1.4099  0.5401
 2421SOL    HW2 9896   1.705   6.879   3.438 -0.5002  0.5499  0.6036
 2422SOL     OW 9897   7.227   1.103   1.188 -0.1907  0.1476  0.1518
 2422SOL    HW1 9898   7.151   1.124   1.134 -1.8228 -2.8091  1.0448
 2422SOL    HW2 9899   7.201   1.132   1.276  0.3535  0.4301  0.2223
 2423SOL     OW 9900   7.402   8.695   9.528 -0.3620  0.1076 -0.4577
 2423SOL    HW1 9901   7.376   8.777   9.487  1.9315  0.0508 -2.2380
 2423SOL    HW2 9902   7.377   8.627   9.466  0.6124 -0.2321 -0.5053
 2424SOL     OW 9903   0.897   5.669   4.960  0.0947  0.5888 -0.5940
 2424SOL    HW1 9904   0.901   5.755   4.919  2.7305 -0.1390 -2.1225
 2424SOL    HW2 9905   0.978   5.663   5.012 -0.8202 -0.3811  0.7803
 2425SOL     OW 9906   9.980   2.513   2.233  0.5497 -0.1644  0.0604
 2425SOL    HW1 9907  10.029   2.495   2.314 -1.8510  1.4037  1.9980
 2425SOL    HW2 9908  10.007   2.601   2.209  1.4201 -0.7059 -1.0670
 2426SOL     OW 9909   6.801   3.012   2.603  0.4678  0.3838 -0.4618
 2426SOL    HW1 9910   6.721   3.050   2.639  1.2172  0.5357  1.0946
 2426SOL    HW2 9911   6.814   3.058   2.520 -0.3710  1.2394 -0.1391
 2427SOL     OW 9912   3.496   3.108   0.123 -0.7568  0.1748 -0.3991
 2427SOL    HW1 9913   3.564   3.173   0.143 -3.1117  3.6717 -2.5131
 2427SOL    HW2 9914   3.425   3.127   0.184 -1.3704 -0.7285 -0.8053
 2428SOL     OW 9915   4.745   1.490   8.196 -0.0293 -0.3129 -0.1955
 2428SOL    HW1 9916   4.778   1.554   8.133  0.7826 -0.4591  0.0738
 2428SOL    HW2 9917   4.669   1.450   8.152  1.5039 -1.6117 -1.7915
 2429SOL     OW 9918   3.933   5.101   8.426 -0.0436  0.5842  0.1872
 2429SOL    HW1 9919   4.010   5.111   8.370 -0.8812  1.7161 -0.8065
 2429SOL    HW2 9920   3.927   5.184   8.474 -0.7054  0.5633  0.1542
 2430SOL     OW 9921   8.484   2.869   8.755  0.2224 -0.3252 -0.5833
 2430SOL    HW1 9922   8.500   2.902   8.843 -2.6343 -0.7438  0.1884
 2430SOL    HW2 9923   8.450   2.781   8.769 -1.2366 -0.0279 -2.0143
 2431SOL     OW 9924   1.393   8.803   1.898  0.5844 -0.0882 -0.1453
 2431SOL    HW1 9925   1.353   8.877   1.945 -0.9246 -0.8699 -0.1370
 2431SOL    HW2 9926   1.418   8.840   1.813 -0.9561  0.2671 -0.4816
 2432SOL     OW 9927   0.042   0.359   7.331 -0.4963  0.1329  0.8602
 2432SOL    HW1 9928  -0.016   0.433   7.346 -0.3799  0.0083  2.0414
 2432SOL    HW2 9929   0.108   0.365   7.400  0.2855 -0.3268  0.1817
 2433SOL     OW 9930   0.318   1.540   0.517  0.9521  0.0652 -0.0235
 2433SOL    HW1 9931   0.350   1.595   0.446 -0.7851 -0.1343 -1.0108
 2433SOL    HW2 9932   0.354   1.580   0.597 -1.6865  3.8013 -0.4737
 2434SOL     OW 9933   7.872   9.815   9.802 -0.2244 -0.7297 -0.4017
 2434SOL    HW1 9934   7.858   9.897   9.754 -1.2002  1.2670  2.9505
 2434SOL    HW2 9935   7.967   9.807   9.808  0.0051  2.1994  2.1126
 2435SOL     OW 9936  10.310   5.382   3.739 -0.4253  0.6518 -0.5538
 2435SOL    HW1 9937  10.296   5.291   3.763 -1.2798  0.8280 -0.3704
 2435SOL    HW2 9938  10.234   5.406   3.686  0.2289  1.0009 -1.3648
 2436SOL     OW 9939   3.111   1.828   6.786  0.0455 -0.4251 -0.4017
 2436SOL    HW1 9940   3.025   1.869   6.794  0.4706  0.9129 -1.9465
 2436SOL    HW2 9941   3.170   1.902   6.769  1.6717 -1.2091  1.5471
 2437SOL     OW 9942   7.589   4.589   3.736 -0.6238 -0.2505 -0.4028
 2437SOL    HW1 9943   7.659   4.530   3.766  0.1134 -0.4291 -2.3237
 2437SOL    HW2 9944   7.509   4.536   3.744 -0.2788 -0.7251 -0.0012
 2438SOL     OW 9945   2.823   2.549   9.313 -0.2561 -0.4599 -0.6846
 2438SOL    HW1 9946   2.813   2.456   9.331  1.2101 -0.3623  1.0031
 2438SOL    HW2 9947   2.752   2.591   9.361  0.4055 -0.5948  0.4599
 2439SOL     OW 9948   2.177   0.008   9.093  0.4121 -0.3693  0.1430
 2439SOL    HW1 9949   2.258   0.059   9.090 -0.7898  1.5902 -1.5253
 2439SOL    HW2 9950   2.144   0.010   9.003 -2.4916  0.6662  1.1331
 2440SOL     OW 9951   8.842   2.484   6.244 -0.2342 -0.2976 -0.4362
 2440SOL    HW1 9952   8.815   2.396   6.268  1.7175 -0.6651  0.5914
 2440SOL    HW2 9953   8.802   2.499   6.158 -4.3513 -0.3665  1.2341
 2441SOL     OW 9954   4.929   5.838   0.947 -0.1367 -0.5525  0.8122
 2441SOL    HW1 9955   4.995   5.858   1.014 -1.0676  1.0720  1.2993
 2441SOL    HW2 9956   4.896   5.752   0.971 -0.8925  0.2501  2.8797
 2442SOL     OW 9957   9.653   2.500   3.107  0.5081  0.5143  0.1858
 2442SOL    HW1 9958   9.633   2.503   3.014  0.8896 -2.5589 -0.1091
 2442SOL    HW2 9959   9.567   2.489   3.149  0.5252 -0.6870 -0.0605
 2443SOL     OW 9960   9.415   6.895   2.324  0.4027  0.0340  0.2375
 2443SOL    HW1 9961   9.339   6.950   2.347 -0.2805 -1.4431  1.6612
 2443SOL    HW2 9962   9.434   6.845   2.403  1.5885 -1.1230 -0.7321
 2444SOL     OW 9963   3.380   3.238   1.280 -0.1896 -0.0425  0.3835
 2444SOL    HW1 9964   3.456   3.226   1.337  1.2614 -0.2865 -1.5017
 2444SOL    HW2 9965   3.318   3.287   1.333  1.5918  0.8790  1.7361
 2445SOL     OW 9966   2.343   7.783   6.365 -1.0668 -0.2090 -0.4727
 2445SOL    HW1 9967   2.378   7.845   6.429 -2.2348 -0.2063  0.1924
 2445SOL    HW2 9968   2.419   7.756   6.314 -0.2893  0.6203  0.2070
 2446SOL     OW 9969   2.875   6.198   6.615  0.0570 -0.0731 -0.1452
 2446SOL    HW1 9970   2.894   6.183   6.708 -0.5606  0.0764  0.0155
 2446SOL    HW2 9971   2.779   6.189   6.609 -0.0436  1.0842 -0.5427
 2447SOL     OW 9972   1.414   2.623   6.100 -0.4556 -0.2121 -0.2514
 2447SOL    HW1 9973   1.382   2.684   6.034  0.4556  1.4497  0.7675
 2447SOL    HW2 9974   1.505   2.606   6.076 -0.5485 -0.7592 -0.2315
 2448SOL     OW 9975   7.319   9.587   1.101  0.3001  0.2489  0.7293
 2448SOL    HW1 9976   7.231   9.552   1.087  1.2113 -1.3205 -1.6834
 2448SOL    HW2 9977   7.362   9.578   1.016  3.0284  0.2815  2.0044
 2449SOL     OW 9978   6.095   3.398   3.167 -0.4586 -0.1686  0.4071
 2449SOL    HW1 9979   6.008   3.410   3.129  0.8810  2.7424 -2.1584
 2449SOL    HW2 9980   6.129   3.319   3.125 -0.8720  0.1955 -0.6389
 2450SOL     OW 9981   5.482   7.183   0.011  0.3665 -0.4797  0.2358
 2450SOL    HW1 9982   5.474   7.118  -0.060  0.5955 -1.0795  0.7468
 2450SOL    HW2 9983   5.396   7.224   0.016  0.6004  0.2001 -0.9832
 2451SOL     OW 9984   6.567  10.135   1.789 -0.0806  0.3405 -0.2298
 2451SOL    HW1 9985   6.479  10.105   1.763 -0.5149  0.6619  0.8288
 2451SOL    HW2 9986   6.576  10.107   1.879  0.4933  1.2143 -0.0028
 2452SOL     OW 9987   0.404   1.387   3.278  0.1198  0.4021  0.4233
 2452SOL    HW1 9988   0.411   1.458   3.214  0.3515 -1.0916 -1.2949
 2452SOL    HW2 9989   0.493   1.375   3.310 -0.2438  2.2432  2.3761
 2453SOL     OW 9990   9.307   5.549   7.443 -0.4874  0.3879  0.1593
 2453SOL    HW1 9991   9.221   5.508   7.452  0.0531 -0.7380  0.4426
 2453SOL    HW2 9992   9.289   5.642   7.432 -1.7637  0.0989 -0.3501
 2454SOL     OW 9993   6.167   6.485   1.206  0.6791  0.1963  0.2381
 2454SOL    HW1 9994   6.144   6.525   1.122 -0.6601 -0.1926  0.3986
 2454SOL    HW2 9995   6.257   6.512   1.221  0.8449  0.5106 -1.1872
 2455SOL     OW 9996   8.073   1.957   2.055  0.2727  0.4087 -0.6553
 2455SOL    HW1 9997   8.090   1.865   2.076  0.6133  1.1234  2.7956
 2455SOL    HW2 9998   8.143   1.981   1.995  1.4010 -1.0949 -0.0156
 2456SOL     OW 9999   2.214   3.842   3.682  0.2932 -0.3433  0.0835
 2456SOL    HW110000   2.285   3.858   3.744  0.2632 -0.5790  0.1796
 2456SOL    HW210001   2.198   3.748   3.687  2.3144 -0.9516 -2.4740
 2457SOL     OW10002   1.005   9.478   9.452  0.4517  0.2916  0.1122
 2457SOL    HW110003   0.942   9.488   9.523 -0.3663  0.1380 -0.5722
 2457SOL    HW210004   0.994   9.557   9.399 -0.3149 -0.4491 -0.8846
 2458SOL     OW10005   9.321   3.266   3.126  0.2548 -0.1714  0.1505
 2458SOL    HW110006   9.287   3.210   3.196 -1.1058 -0.1820 -0.4751
 2458SOL    HW210007   9.256   3.257   3.056  1.9208 -0.7040 -1.3840
 2459SOL     OW10008   4.879   2.003   8.619  0.0101  0.0140  0.2195
 2459SOL    HW110009   4.965   1.962   8.610 -0.9852 -2.0439 -0.5058
 2459SOL    HW210010   4.819   1.945   8.573 -1.6087  2.0869 -0.4848
 2460SOL     OW10011   5.490   3.702   5.291 -0.3529  0.0532 -0.4931
 2460SOL    HW110012   5.585   3.711   5.280 -0.5451  0.8441 -1.7979
 2460SOL    HW210013   5.454   3.783   5.253 -1.5991 -0.6641 -0.8996
 2461SOL     OW10014   8.443   6.803   0.070  0.3343  0.6603 -0.7112
 2461SOL    HW110015   8.528   6.831   0.105  0.0591  0.9261 -0.2461
 2461SOL    HW210016   8.431   6.715   0.104  0.2341  0.7805 -0.4342
 2462SOL     OW10017   5.777   2.214   8.623 -0.2031  0.7123 -0.4956
 2462SOL    HW110018   5.705   2.199   8.684 -1.5272 -2.5422 -2.5619
 2462SOL    HW210019   5.739   2.269   8.555  0.0545  1.0356 -0.3803
 2463SOL     OW10020   2.095   5.436   6.429  0.8395  0.3608  0.1066
 2463SOL    HW110021   2.033   5.465   6.362  2.9232  0.1548 -2.0332
 2463SOL    HW210022   2.088   5.340   6.429  0.7127  0.3700  0.3185
 2464SOL     OW10023   1.374   7.339   6.805  0.1793 -0.4178 -0.1863
 2464SOL    HW110024   1.440   7.333   6.875 -1.4505 -0.0471  1.4751
 2464SOL    HW210025   1.335   7.251   6.803 -1.0988  0.0898  0.7982
 2465SOL     OW10026   2.924   6.024   9.715 -0.5080 -0.2143 -0.3898
 2465SOL    HW110027   2.927   5.946   9.771 -1.4687 -2.4340 -3.2043
 2465SOL    HW210028   2.839   6.064   9.734 -0.0949  0.1021  0.9244
 2466SOL     OW10029   2.934   7.013   0.838  0.2066  0.1893 -0.6842
 2466SOL    HW110030   2.865   6.947   0.843  2.0803 -1.8011  0.8708
 2466SOL    HW210031   2.998   6.977   0.776  0.2592  1.6248 -1.5192
 2467SOL     OW10032   7.535   3.252   6.854 -0.4699  0.1582  0.1865
 2467SOL    HW110033   7.556   3.159   6.848 -0.5368 -0.0272  2.1582
 2467SOL    HW210034   7.581   3.283   6.932  1.6575  2.4309 -1.7740
 2468SOL     OW10035   0.621   6.937   7.369  0.4182 -0.2312  0.2613
 2468SOL    HW110036   0.535   6.896   7.357  0.8165 -0.6270 -1.5151
 2468SOL    HW210037   0.608   6.998   7.442 -1.6674  0.5201 -0.6556
 2469SOL     OW10038   0.643   6.675   5.506 -0.4063  0.6910 -0.5157
 2469SOL    HW110039   0.571   6.734   5.483 -1.1051  0.4080  0.8289
 2469SOL    HW210040   0.602   6.606   5.559  0.8439  0.5213  0.2809
 2470SOL     OW10041   4.243   1.462   3.752 -0.4721 -0.2437 -0.0330
 2470SOL    HW110042   4.338   1.473   3.743 -0.7833  1.7694 -1.7927
 2470SOL    HW210043   4.228   1.460   3.847  1.1921  1.3274  0.3373
 2471SOL     OW10044   2.536   7.067   1.103 -0.3867  0.4596 -0.5947
 2471SOL    HW110045   2.450   7.103   1.125  0.1954  1.2006  0.5871
 2471SOL    HW210046   2.536   7.059   1.008 -3.0860 -2.9217 -0.4959
 2472SOL     OW10047   0.045   9.120   2.314 -0.3150  0.5785 -0.2985
 2472SOL    HW110048   0.027   9.026   2.314 -1.1078  0.7042 -1.5734
 2472SOL    HW210049   0.047   9.145   2.407  0.1146 -0.7259  0.0547
 2473SOL     OW10050   3.657   4.164   7.110 -0.4136  0.2218 -0.1338
 2473SOL    HW110051   3.722   4.219   7.153  0.6200 -1.0836  0.0206
 2473SOL    HW210052   3.675   4.175   7.016 -0.4293  0.3924 -0.1174
 2474SOL     OW10053   4.652   6.793   7.457  0.3346 -0.0297  0.4170
 2474SOL    HW110054   4.723   6.756   7.405 -0.2265  0.5595 -0.8106
 2474SOL    HW210055   4.683   6.881   7.480 -0.2812  0.5158 -0.7678
 2475SOL     OW10056   0.069   0.477   2.861 -0.8357  0.2192  0.0857
 2475SOL    HW110057   0.156   0.498   2.895  0.0543 -0.1441 -1.8096
 2475SOL    HW210058   0.046   0.394   2.903  0.1746 -0.1817 -0.1271
 2476SOL     OW10059   4.370   0.378   9.920 -0.5371 -0.0190 -0.1592
 2476SOL    HW110060   4.291   0.330   9.897  0.0452 -1.0053 -0.1671
 2476SOL    HW210061   4.344   0.433   9.994 -0.9611 -1.1612  0.5663
 2477SOL     OW10062   4.223   1.397   0.451  0.2707 -0.6407 -0.2993
 2477SOL    HW110063   4.193   1.425   0.538  0.0445 -0.2258 -0.5059
 2477SOL    HW210064   4.143   1.378   0.402  0.3676 -0.2465 -0.6193
 2478SOL     OW10065  10.014   4.932   5.323 -0.5308 -0.0775 -0.6500
 2478SOL    HW110066   9.928   4.936   5.365 -0.4794  0.8111 -0.6264
 2478SOL    HW210067   9.995   4.941   5.230 -0.3563  1.6562 -0.5410
 2479SOL     OW10068   8.877   4.563   1.368 -0.5213 -0.4335  0.3420
 2479SOL    HW110069   8.830   4.645   1.358  2.1446  1.1000 -0.8112
 2479SOL    HW210070   8.895   4.558   1.462 -0.3114  0.6059  0.3780
 2480SOL     OW10071   9.004   9.300   2.136 -0.3741  0.0134 -0.1695
 2480SOL    HW110072   8.970   9.269   2.052  1.3245 -1.1067 -0.4962
 2480SOL    HW210073   9.073   9.362   2.112  0.8806 -1.1370  0.3282
 2481SOL     OW10074   8.794   0.713   6.220  1.1679 -0.0670  0.0691
 2481SOL    HW110075   8.758   0.751   6.140 -1.0589 -1.7048  0.1827
 2481SOL    HW210076   8.881   0.682   6.195  0.9051  0.3331 -1.4294
 2482SOL     OW10077   8.667   4.260   8.141  0.4108  0.0520  0.4988
 2482SOL    HW110078   8.762   4.258   8.135  0.3673 -0.1652 -0.3363
 2482SOL    HW210079   8.641   4.339   8.094  0.1894  0.2715  0.9803
 2483SOL     OW10080   6.225   9.373   2.813  0.3982 -0.1127  0.3281
 2483SOL    HW110081   6.271   9.303   2.860  2.0991  1.6684  1.4551
 2483SOL    HW210082   6.255   9.365   2.722  0.4080 -0.9613  0.4012
 2484SOL     OW10083   2.988   3.058  10.098 -0.0386  0.6177 -0.5348
 2484SOL    HW110084   3.060   3.003  10.130  0.9628  2.2933  0.1873
 2484SOL    HW210085   2.928   3.064  10.172 -0.2564  0.3645 -0.6848
 2485SOL     OW10086   4.530   3.646   1.451 -0.2018  0.2589 -0.0796
 2485SOL    HW110087   4.492   3.680   1.532  0.2364  2.7246 -0.8032
 2485SOL    HW210088   4.462   3.592   1.412 -0.9961  0.3251  1.1790
 2486SOL     OW10089   2.130   8.412   2.380 -0.5645  0.4015 -0.6230
 2486SOL    HW110090   2.133   8.377   2.291 -0.7375  1.0238 -0.8782
 2486SOL    HW210091   2.118   8.506   2.369  1.0735  0.7330  0.0232
 2487SOL     OW10092   9.542   5.313   2.156  0.0133  0.5255  0.0496
 2487SOL    HW110093   9.606   5.384   2.159  0.8107 -0.1570 -0.5951
 2487SOL    HW210094   9.594   5.234   2.145 -0.9112 -0.1006  0.0943
 2488SOL     OW10095   4.806   9.056   4.224 -0.6856 -0.4254  0.6689
 2488SOL    HW110096   4.810   9.072   4.130  0.3709 -0.2812  0.7234
 2488SOL    HW210097   4.806   8.960   4.232 -0.0161 -0.4413  0.5374
 2489SOL     OW10098   3.679   2.766   8.713 -0.0792 -0.0429  0.2179
 2489SOL    HW110099   3.643   2.680   8.688  0.5391 -0.3561  0.3954
 2489SOL    HW210100   3.616   2.800   8.778 -1.1975  0.3680 -1.0280
 2490SOL     OW10101   0.092   4.129   4.845  0.2859 -0.2411 -0.2647
 2490SOL    HW110102   0.172   4.127   4.793  0.3257  0.0674 -0.2153
 2490SOL    HW210103   0.120   4.159   4.931  0.1790 -0.5062 -0.1378
 2491SOL     OW10104   6.053   1.269   2.429 -0.0386  0.3141 -0.6814
 2491SOL    HW110105   6.034   1.359   2.454  1.1206  0.4181 -0.0797
 2491SOL    HW210106   6.011   1.257   2.344 -0.4475  1.3270 -0.6265
 2492SOL     OW10107   9.713  10.266   3.091 -0.2922 -0.2212  0.1662
 2492SOL    HW110108   9.734  10.282   2.998 -0.7725 -1.8563 -0.2447
 2492SOL    HW210109   9.737  10.175   3.106 -2.8997 -0.8753  0.8565
 2493SOL     OW10110   8.467   0.037   1.691 -0.8624 -0.1115  0.1362
 2493SOL    HW110111   8.489   0.002   1.777  0.9548  1.7970  0.5301
 2493SOL    HW210112   8.508  -0.024   1.629  1.1455  0.5353  0.7611
 2494SOL     OW10113   5.205   6.961   4.220  0.0485 -0.3163  0.2595
 2494SOL    HW110114   5.254   6.970   4.302  1.7806  1.6183 -0.9196
 2494SOL    HW210115   5.123   6.918   4.247  0.0789  1.2041  3.1986
 2495SOL     OW10116   4.263   9.763   9.490 -0.4893 -0.3748  0.2235
 2495SOL    HW110117   4.231   9.708   9.561 -0.8319 -0.3700  0.0763
 2495SOL    HW210118   4.195   9.830   9.479 -0.3047 -0.2077  0.0797
 2496SOL     OW10119   2.371   5.307   7.366 -0.1486  0.0429 -0.1607
 2496SOL    HW110120   2.452   5.266   7.398 -1.1401 -0.7253  1.5120
 2496SOL    HW210121   2.389   5.327   7.275  1.7698 -0.5367  0.0364
 2497SOL     OW10122   4.396   0.095   7.082 -0.1590  0.1342 -0.3531
 2497SOL    HW110123   4.450   0.018   7.100 -0.2722 -0.1111 -1.0148
 2497SOL    HW210124   4.362   0.122   7.167  0.5618 -0.0401 -0.0080
 2498SOL     OW10125   9.389   4.120   3.048  0.1802  0.0354  0.5335
 2498SOL    HW110126   9.452   4.192   3.039 -0.9512  0.8615 -1.3781
 2498SOL    HW210127   9.400   4.068   2.968  0.0795 -1.2142  1.2961
 2499SOL     OW10128   1.795   3.410   6.122 -0.0225  0.0680  0.5844
 2499SOL    HW110129   1.804   3.373   6.210  1.1363  1.4173  1.0512
 2499SOL    HW210130   1.775   3.502   6.136  0.0960  0.2845 -0.5758
 2500SOL     OW10131   5.103   6.960   4.890  0.1888  0.0292 -0.5346
 2500SOL    HW110132   5.050   6.969   4.969 -1.0168 -0.2346 -1.2755
 2500SOL    HW210133   5.046   6.914   4.828  1.1539  0.0878 -1.5045
 2501SOL     OW10134   8.081   0.569   1.561  0.2559 -0.0158  0.1749
 2501SOL    HW110135   8.154   0.519   1.525  0.7479  0.5499  0.3744
 2501SOL    HW210136   8.072   0.644   1.503  1.4026  1.1960  1.4802
 2502SOL     OW10137   4.281   2.711   5.092 -0.7442 -0.6150 -0.4537
 2502SOL    HW110138   4.235   2.703   5.008 -0.1265 -1.1517 -0.7501
 2502SOL    HW210139   4.213   2.696   5.158 -1.0828 -0.9649 -0.8759
 2503SOL     OW10140   4.247   2.805   8.528  0.0826  0.0975  0.1992
 2503SOL    HW110141   4.287   2.883   8.566  0.9936  0.3074 -1.1285
 2503SOL    HW210142   4.235   2.745   8.602  0.3324  1.0905  1.0605
 2504SOL     OW10143   7.569   3.589   0.615 -0.2194  0.1555 -0.2191
 2504SOL    HW110144   7.655   3.631   0.606  1.1400 -2.2897  0.2769
 2504SOL    HW210145   7.547   3.601   0.708  1.6433 -2.5635  0.7352
 2505SOL     OW10146   1.162   3.970   2.420 -0.4609  0.2893  0.1440
 2505SOL    HW110147   1.103   3.982   2.346  0.0368  3.2133  0.1330
 2505SOL    HW210148   1.207   3.887   2.401 -1.8985 -0.1256 -1.6931
 2506SOL     OW10149   5.174   5.240   6.486 -0.4061 -0.1006  0.2539
 2506SOL    HW110150   5.151   5.328   6.516 -1.7849 -0.7412  1.2047
 2506SOL    HW210151   5.264   5.247   6.457 -0.9728  2.0038 -1.2245
 2507SOL     OW10152   8.515   6.400   7.360  0.1551 -0.3609 -0.0970
 2507SOL    HW110153   8.473   6.465   7.304  0.4578 -1.1292 -1.2260
 2507SOL    HW210154   8.575   6.451   7.414  0.3507  0.3123 -0.9280
 2508SOL     OW10155   1.249   6.639   6.964  0.2434  0.1219 -0.4121
 2508SOL    HW110156   1.266   6.731   6.986  2.0245  0.2072 -1.9022
 2508SOL    HW210157   1.318   6.590   7.008 -0.7050 -0.5533  0.3825
 2509SOL     OW10158   8.936   8.986   4.914 -0.5042  0.0006 -0.1499
 2509SOL    HW110159   8.924   9.050   4.843 -1.4595  0.4195  0.3627
 2509SOL    HW210160   8.999   8.923   4.879  0.5206  1.2458 -0.6559
 2510SOL     OW10161   3.979   3.581   5.682  0.4570 -0.0238 -0.2893
 2510SOL    HW110162   3.931   3.526   5.620  0.5247 -1.4297  0.8464
 2510SOL    HW210163   3.996   3.662   5.634  1.1902 -1.3319 -2.3751
 2511SOL     OW10164   4.180   4.006   4.945 -0.0231  0.8673 -0.1333
 2511SOL    HW110165   4.249   4.070   4.962  0.0507  0.9126 -0.5979
 2511SOL    HW210166   4.222   3.921   4.958 -0.0991  0.9052  0.4004
 2512SOL     OW10167   7.303   8.486   4.891 -0.1035 -0.0125  0.1542
 2512SOL    HW110168   7.307   8.542   4.969  0.3300 -0.9536  0.8223
 2512SOL    HW210169   7.341   8.403   4.919  2.3791  0.3697 -1.7243
 2513SOL     OW10170   0.101   4.451   1.022  0.2300 -0.2508  0.1268
 2513SOL    HW110171   0.152   4.526   0.994 -1.2642  0.3625 -1.1153
 2513SOL    HW210172   0.141   4.424   1.105  2.1668  0.5134 -0.5039
 2514SOL     OW10173   2.171   0.225   0.541 -0.3078 -0.0867 -0.7684
 2514SOL    HW110174   2.137   0.207   0.454 -0.3693 -0.7632 -0.6065
 2514SOL    HW210175   2.250   0.278   0.525 -0.1389 -0.4766 -1.2510
 2515SOL     OW10176   3.509   0.474   7.577  0.3779 -0.3585  0.3421
 2515SOL    HW110177   3.477   0.420   7.649  0.6002 -0.9281  0.0157
 2515SOL    HW210178   3.586   0.429   7.546  0.4083  0.0064 -0.1180
 2516SOL     OW10179   9.115   7.383   2.740  0.0399 -0.1167 -0.4381
 2516SOL    HW110180   9.180   7.393   2.810 -0.6786 -2.1108  0.5986
 2516SOL    HW210181   9.164   7.346   2.666  0.6065  1.0400 -0.6544
 2517SOL     OW10182   2.523   6.691   4.226  0.5891 -0.0553  0.0676
 2517SOL    HW110183   2.574   6.742   4.162 -1.5200  0.4818 -1.2994
 2517SOL    HW210184   2.459   6.644   4.172 -1.6736  0.8813  1.8075
 2518SOL     OW10185   1.414   2.274   3.738 -0.6017 -0.4711  0.6997
 2518SOL    HW110186   1.345   2.324   3.781 -1.0371  1.0800 -1.6368
 2518SOL    HW210187   1.477   2.257   3.808 -2.2342  0.0681  2.3917
 2519SOL     OW10188   4.202   5.363   8.971  0.2558  0.3880 -0.0025
 2519SOL    HW110189   4.176   5.331   9.058  2.2130 -1.3107  0.0369
 2519SOL    HW210190   4.258   5.438   8.989  1.1231 -0.3051  0.2686
 2520SOL     OW10191   1.673   8.387   2.261 -0.3916  0.3516  0.1149
 2520SOL    HW110192   1.642   8.358   2.175  2.9792 -2.6982 -0.3199
 2520SOL    HW210193   1.639   8.322   2.322  0.7681 -0.0281  0.3800
 2521SOL     OW10194   6.823   8.459   0.840 -0.3522 -0.0801 -0.0327
 2521SOL    HW110195   6.817   8.506   0.923  0.8417 -0.3281  0.2126
 2521SOL    HW210196   6.855   8.372   0.864  1.9303  0.4501 -0.9120
 2522SOL     OW10197   7.030   5.720   4.386 -0.0268 -0.2869  0.4041
 2522SOL    HW110198   7.104   5.769   4.349  0.0438 -2.0749 -2.0238
 2522SOL    HW210199   6.968   5.713   4.314  0.3726 -4.5044  0.2412
 2523SOL     OW10200   1.973   1.332   9.167  0.5811 -0.4319  0.4341
 2523SOL    HW110201   2.064   1.356   9.149  1.0618 -0.4022  2.5901
 2523SOL    HW210202   1.925   1.414   9.159  0.7714 -0.3942 -0.4532
 2524SOL     OW10203   0.523   7.611   8.270 -0.5579 -0.0213  0.1333
 2524SOL    HW110204   0.539   7.694   8.316 -2.1127  0.6818 -0.5017
 2524SOL    HW210205   0.455   7.567   8.322  0.2697 -0.9182  0.4764
 2525SOL     OW10206   8.154   8.301   9.024 -0.8379  0.2506 -0.1041
 2525SOL    HW110207   8.062   8.276   9.031 -0.1123 -2.2988  1.8147
 2525SOL    HW210208   8.151   8.396   9.008 -3.7641  0.1583 -0.7846
 2526SOL     OW10209   5.701   3.159  10.130 -0.3939 -0.5824 -0.0310
 2526SOL    HW110210   5.681   3.195  10.043 -1.6085 -1.0398  0.0411
 2526SOL    HW210211   5.647   3.081  10.137  1.7733 -2.1676  0.0455
 2527SOL     OW10212   6.775   5.164   6.069  0.0955  1.1064 -0.1634
 2527SOL    HW110213   6.867   5.189   6.058  0.6132 -1.3365 -2.0824
 2527SOL    HW210214   6.748   5.130   5.984 -2.3469  0.8747  0.6062
 2528SOL     OW10215   3.813   1.799   1.794  0.7107  0.1752  0.5860
 2528SOL    HW110216   3.850   1.741   1.728  0.4355  1.9639 -1.2354
 2528SOL    HW210217   3.749   1.745   1.840  2.0659 -1.5711  0.5335
 2529SOL     OW10218   2.267   0.694   0.061 -0.4353 -0.8138 -0.4786
 2529SOL    HW110219   2.186   0.723   0.018 -1.2765 -0.5288  1.2052
 2529SOL    HW210220   2.264   0.598   0.056 -1.5607 -0.8693  0.6768
 2530SOL     OW10221   8.140   4.434   7.506  0.5789  0.2864 -0.2956
 2530SOL    HW110222   8.076   4.378   7.461 -1.0351  1.2106  0.7349
 2530SOL    HW210223   8.143   4.399   7.595 -0.3828  1.7581  0.3334
 2531SOL     OW10224   2.144   3.233   3.876 -0.3357 -0.2755  0.8101
 2531SOL    HW110225   2.202   3.211   3.803 -0.1690  0.5847  0.6697
 2531SOL    HW210226   2.197   3.289   3.933 -0.4418 -0.9916  1.6394
 2532SOL     OW10227   5.408   1.752   4.096 -0.4640 -0.1272 -0.0057
 2532SOL    HW110228   5.421   1.846   4.109 -2.2813 -0.1076  2.5665
 2532SOL    HW210229   5.490   1.720   4.059  1.4164  1.9676  2.0926
 2533SOL     OW10230   8.010   3.331   9.638  0.4047 -0.2503  0.4109
 2533SOL    HW110231   7.963   3.380   9.705  1.7296  2.1116 -0.2804
 2533SOL    HW210232   7.944   3.272   9.601 -1.0687  0.4313  1.8333
 2534SOL     OW10233   1.887   4.738   7.564  0.7997 -0.6462 -0.6759
 2534SOL    HW110234   1.807   4.761   7.611  0.4769 -2.1753 -0.4411
 2534SOL    HW210235   1.951   4.723   7.633  0.9436 -0.6850 -0.8188
 2535SOL     OW10236   5.154   8.863   4.991 -0.7393 -0.3275  0.1212
 2535SOL    HW110237   5.073   8.913   5.003 -0.9607 -0.8907  1.0429
 2535SOL    HW210238   5.149   8.793   5.056  0.4265 -0.4634  0.0834
 2536SOL     OW10239   3.855   6.993   1.649 -0.9728  0.1909  0.4435
 2536SOL    HW110240   3.828   6.906   1.680  1.1730 -0.3850  0.8692
 2536SOL    HW210241   3.781   7.050   1.669 -1.0295 -0.8061  3.6564
 2537SOL     OW10242   2.269  10.103   3.988  0.3559  0.1187  0.0845
 2537SOL    HW110243   2.231  10.164   4.051  1.1101  1.3758 -0.6309
 2537SOL    HW210244   2.194  10.063   3.945 -0.1621  1.0411  0.1085
 2538SOL     OW10245   5.428   5.157   7.142  0.4468  0.3701  0.1887
 2538SOL    HW110246   5.523   5.163   7.152  0.4297  2.0624 -0.2968
 2538SOL    HW210247   5.411   5.198   7.057 -0.6075 -1.1892 -0.3922
 2539SOL     OW10248   5.647   7.822   8.551 -0.0724  0.3713 -0.0063
 2539SOL    HW110249   5.708   7.888   8.518  0.0181  0.1372 -0.3168
 2539SOL    HW210250   5.587   7.870   8.609  0.4104  0.6015  0.3076
 2540SOL     OW10251   7.504  10.269   6.714 -0.3256  0.4828 -0.0288
 2540SOL    HW110252   7.443  10.289   6.785  1.3188  2.3042  0.9756
 2540SOL    HW210253   7.535  10.355   6.685  0.4531 -0.3241 -1.6817
 2541SOL     OW10254   7.074   7.274   8.709 -0.4310  0.0162 -0.2142
 2541SOL    HW110255   7.071   7.297   8.802 -0.5721 -2.3036  0.4204
 2541SOL    HW210256   6.989   7.234   8.691  0.3792 -1.5876 -0.7178
 2542SOL     OW10257   7.923   9.908   4.092 -0.2592 -0.0237 -0.6769
 2542SOL    HW110258   7.938   9.823   4.132  1.2958  0.8965  0.8417
 2542SOL    HW210259   7.830   9.908   4.068 -0.7554 -1.4016  1.0900
 2543SOL     OW10260   6.043   9.713  10.121 -0.2362 -0.1240  0.0803
 2543SOL    HW110261   6.057   9.751  10.208  1.6308  1.0840 -0.6941
 2543SOL    HW210262   6.131   9.697  10.087 -0.7340  2.2737 -2.7507
 2544SOL     OW10263   8.516   3.386   0.687 -0.1834 -0.0925 -0.1373
 2544SOL    HW110264   8.534   3.455   0.751  1.2993 -0.5459 -0.0329
 2544SOL    HW210265   8.588   3.324   0.698  1.1585  0.6721 -3.4489
 2545SOL     OW10266   5.729   8.056   7.660 -0.2449  0.2934  0.4905
 2545SOL    HW110267   5.643   8.045   7.700 -0.0108 -1.7896  0.5320
 2545SOL    HW210268   5.712   8.047   7.566 -0.0317 -0.5746  0.5279
 2546SOL     OW10269   0.363   3.611   5.663 -0.4506 -0.1585  0.2686
 2546SOL    HW110270   0.403   3.677   5.719 -1.0936  0.3436  0.1489
 2546SOL    HW210271   0.320   3.551   5.725 -0.5819  0.0135  0.3464
 2547SOL     OW10272   0.946   8.384   2.964 -0.2998 -0.5344  0.3811
 2547SOL    HW110273   0.940   8.439   2.886 -2.8035 -0.7525  0.3430
 2547SOL    HW210274   1.018   8.422   3.015 -1.4317  2.3307  0.0242
 2548SOL     OW10275   2.629   2.875   1.505  0.1685  0.2353 -0.1545
 2548SOL    HW110276   2.659   2.963   1.528 -1.8429  0.9429 -0.0192
 2548SOL    HW210277   2.539   2.888   1.475 -0.2503 -1.8203  0.0940
 2549SOL     OW10278   1.618   0.698   3.115  0.1358  0.4273  0.4136
 2549SOL    HW110279   1.671   0.624   3.145  0.1021 -0.0228 -0.5766
 2549SOL    HW210280   1.536   0.691   3.163  0.4216  0.2627  0.8784
 2550SOL     OW10281   6.732   3.809   6.447 -0.1636 -0.5810  0.6350
 2550SOL    HW110282   6.728   3.824   6.542  1.7045  1.0090  0.5204
 2550SOL    HW210283   6.822   3.781   6.432 -0.4233 -0.7444 -0.6978
 2551SOL     OW10284   2.999   8.587   0.339 -0.0364 -0.5033  0.1659
 2551SOL    HW110285   3.016   8.675   0.373 -2.3114  0.1102 -0.0981
 2551SOL    HW210286   2.975   8.602   0.247  2.5857 -1.7744 -0.8206
 2552SOL     OW10287   0.300   0.542   1.098 -0.7040 -0.5817 -0.7852
 2552SOL    HW110288   0.253   0.621   1.071  0.3329 -0.3948 -2.1148
 2552SOL    HW210289   0.346   0.513   1.019 -1.8608 -3.1067 -0.6308
 2553SOL     OW10290   7.630  10.163   0.183 -0.0702 -0.1631  0.0625
 2553SOL    HW110291   7.699  10.209   0.230 -1.4231 -0.2900  2.3333
 2553SOL    HW210292   7.570  10.231   0.154  0.4153 -0.1448 -0.9478
 2554SOL     OW10293   1.291   2.761   5.902 -0.3799 -0.4313  0.9212
 2554SOL    HW110294   1.320   2.761   5.811 -2.0663  1.0753  0.3286
 2554SOL    HW210295   1.270   2.853   5.920  2.5248 -0.1431  3.7639
 2555SOL     OW10296   8.350   1.585   6.884  0.2292 -0.5201 -0.5853
 2555SOL    HW110297   8.294   1.540   6.947  0.3473 -1.8274 -1.3903
 2555SOL    HW210298   8.317   1.559   6.799  2.1704 -1.5262 -1.0902
 2556SOL     OW10299   2.620   1.181   1.603  0.4822  0.0125 -0.2905
 2556SOL    HW110300   2.563   1.250   1.638 -1.6635 -0.2806 -2.9365
 2556SOL    HW210301   2.662   1.221   1.527 -0.1737 -1.2950 -1.3845
 2557SOL     OW10302   3.475   9.553   2.159  0.7104 -0.0136 -0.2246
 2557SOL    HW110303   3.429   9.612   2.220  0.7547 -0.8857  0.6828
 2557SOL    HW210304   3.461   9.592   2.073  0.2551  1.0122  0.2928
 2558SOL     OW10305   0.924   6.742   3.733 -0.2891  0.0707 -0.0726
 2558SOL    HW110306   0.839   6.709   3.764 -0.8287  0.9261 -0.5907
 2558SOL    HW210307   0.988   6.704   3.793 -1.1711  0.5648  1.2375
 2559SOL     OW10308   0.226   1.914   7.171 -0.4173  0.3210  0.2005
 2559SOL    HW110309   0.136   1.900   7.201  0.5028 -0.8486  2.6763
 2559SOL    HW210310   0.255   1.829   7.139 -0.1438  0.6818 -0.5498
 2560SOL     OW10311   1.115  10.284   9.055  0.5878 -0.1966 -0.1536
 2560SOL    HW110312   1.038  10.267   9.109 -0.5784  1.2484 -1.3082
 2560SOL    HW210313   1.081  10.311   8.970  2.3590  0.3103 -0.7617
 2561SOL     OW10314   5.164   4.597   3.598  0.4215 -1.0701  0.4170
 2561SOL    HW110315   5.171   4.515   3.550  1.4320 -1.4759  1.2235
 2561SOL    HW210316   5.114   4.655   3.541 -0.6137 -2.3545 -0.0257
 2562SOL     OW10317   4.632   6.932   0.358  0.6860  0.8940 -0.1443
 2562SOL    HW110318   4.708   6.908   0.306  1.4851 -0.4683  1.5676
 2562SOL    HW210319   4.661   6.926   0.449 -1.5852 -0.1742  0.5904
 2563SOL     OW10320   6.423   3.844   1.076  0.3409  0.3604  0.5141
 2563SOL    HW110321   6.435   3.921   1.020  0.6076 -1.0024 -1.4133
 2563SOL    HW210322   6.421   3.771   1.015  1.9852 -1.3787  2.3996
 2564SOL     OW10323   2.678   6.172   8.820  0.0069  0.1215 -0.1314
 2564SOL    HW110324   2.583   6.160   8.823  0.0600 -0.1404  1.5497
 2564SOL    HW210325   2.707   6.112   8.751 -0.9399 -0.6913  0.1484
 2565SOL     OW10326   4.773   4.745   6.394 -0.1205 -0.2157 -0.4554
 2565SOL    HW110327   4.847   4.801   6.371 -1.6877  2.1467 -0.2285
 2565SOL    HW210328   4.702   4.776   6.338 -1.8608  0.1123  1.7882
 2566SOL     OW10329   9.574   3.454   4.280  0.1110 -0.0603  0.2948
 2566SOL    HW110330   9.525   3.407   4.347  0.2657  0.4425  0.7646
 2566SOL    HW210331   9.608   3.385   4.222  1.5140 -0.6477  1.7512
 2567SOL     OW10332   9.232   8.143   0.043  0.0003  0.1528  0.1042
 2567SOL    HW110333   9.314   8.143   0.093  0.3877 -0.0379 -0.5314
 2567SOL    HW210334   9.185   8.220   0.076  0.7818  0.7329 -0.0905
 2568SOL     OW10335   6.022   2.235  10.249 -0.4295 -0.0648  0.9693
 2568SOL    HW110336   6.011   2.329  10.229 -0.0671 -0.5446 -1.9090
 2568SOL    HW210337   5.943   2.194  10.214  0.6332 -1.1093 -0.3194
 2569SOL     OW10338   8.068   9.301   9.357 -0.0137  0.0197 -0.5489
 2569SOL    HW110339   8.078   9.264   9.269  1.6971  0.7127 -0.6849
 2569SOL    HW210340   8.135   9.257   9.410 -0.3500  0.3432  0.1580
 2570SOL     OW10341   3.299   7.942   0.622 -0.1929  0.6875  0.0421
 2570SOL    HW110342   3.257   7.920   0.705 -1.0385 -0.9936 -0.7841
 2570SOL    HW210343   3.227   7.940   0.559  0.9641 -1.6890 -1.3218
 2571SOL     OW10344   0.740   4.650   5.093  0.2484  0.7924 -0.4390
 2571SOL    HW110345   0.652   4.658   5.131  0.8343  0.1006  1.1448
 2571SOL    HW210346   0.726   4.609   5.008 -0.8503 -0.8345  0.4825
 2572SOL     OW10347   3.829   3.187   9.580  0.5659 -0.7733  0.3833
 2572SOL    HW110348   3.768   3.135   9.527 -0.2431  0.5269  0.0064
 2572SOL    HW210349   3.848   3.264   9.527  0.9689 -0.1902  1.3515
 2573SOL     OW10350   0.867   2.940   9.093  0.2396  0.4531  0.0655
 2573SOL    HW110351   0.950   2.913   9.131  1.1592  0.8740 -1.5630
 2573SOL    HW210352   0.883   3.029   9.060 -0.5064  0.1358 -1.2269
 2574SOL     OW10353   3.813   1.473   5.599  0.2424 -0.1213  0.1318
 2574SOL    HW110354   3.815   1.526   5.520 -1.1138 -0.6746 -0.2964
 2574SOL    HW210355   3.720   1.450   5.610  0.4888 -0.5188  1.5617
 2575SOL     OW10356   3.646   3.593   9.621 -0.0586  0.2704  0.1423
 2575SOL    HW110357   3.718   3.565   9.678 -0.0207  1.8900  0.9538
 2575SOL    HW210358   3.571   3.540   9.648  0.9193 -1.9196 -1.1575
 2576SOL     OW10359   1.829   4.843   6.861 -0.5472  0.1343  0.0905
 2576SOL    HW110360   1.884   4.921   6.869 -0.4674 -0.0100  1.0124
 2576SOL    HW210361   1.746   4.868   6.901 -0.7484 -0.0505 -0.2036
 2577SOL     OW10362   7.911   8.905   4.300 -0.1022 -0.1003 -0.3275
 2577SOL    HW110363   7.983   8.966   4.284 -0.5093  0.6801  0.7421
 2577SOL    HW210364   7.922   8.877   4.391 -1.2848  0.2127 -0.0820
 2578SOL     OW10365   4.432   1.435   1.056 -0.5412  0.1006  0.2466
 2578SOL    HW110366   4.440   1.396   1.143 -0.2434  0.4834  0.3924
 2578SOL    HW210367   4.501   1.501   1.053 -0.3294 -0.1461 -0.4119
 2579SOL     OW10368   1.509   7.939   1.026  0.0064 -0.1692  0.2164
 2579SOL    HW110369   1.417   7.910   1.028  0.2553 -1.0912 -0.7271
 2579SOL    HW210370   1.537   7.935   1.117 -0.3984 -1.5582  0.3074
 2580SOL     OW10371   3.957   7.928   1.412  0.1181 -0.2399  0.6478
 2580SOL    HW110372   3.963   8.001   1.350  0.1589  0.8082  1.8536
 2580SOL    HW210373   3.864   7.921   1.433 -0.0780 -1.4457 -0.4827
 2581SOL     OW10374   8.803   1.222   9.326  0.1249  0.2643  0.3611
 2581SOL    HW110375   8.891   1.191   9.308 -0.4371 -1.2630  0.1590
 2581SOL    HW210376   8.813   1.317   9.335  1.3493  0.4683 -2.2950
 2582SOL     OW10377  10.193   3.328   0.181  0.1704  0.3882 -0.7544
 2582SOL    HW110378  10.286   3.345   0.168  0.6700 -0.7947  1.0505
 2582SOL    HW210379  10.153   3.355   0.098  1.9828  1.7256 -1.2666
 2583SOL     OW10380   9.189   6.835   1.050 -0.2467  0.1183  0.4939
 2583SOL    HW110381   9.191   6.922   1.011  0.8185  0.2472  0.7805
 2583SOL    HW210382   9.213   6.775   0.979 -1.7781 -0.0438  0.0937
 2584SOL     OW10383   3.175   3.557   0.151  0.2585  0.2186  0.6742
 2584SOL    HW110384   3.113   3.629   0.137  0.1278 -0.0187 -0.0537
 2584SOL    HW210385   3.260   3.593   0.124  0.0081 -0.2350 -0.8375
 2585SOL     OW10386   1.476   6.770   3.973 -0.0616 -0.7430 -0.1541
 2585SOL    HW110387   1.547   6.744   4.031  1.0512 -0.4603 -1.3402
 2585SOL    HW210388   1.397   6.765   4.027  0.3761 -4.2584  0.3607
 2586SOL     OW10389   5.985   0.311   0.398  0.1698  0.5947 -0.1113
 2586SOL    HW110390   5.955   0.242   0.338 -2.4406  0.6304  1.0237
 2586SOL    HW210391   5.916   0.378   0.393  1.1568  1.7459  1.0582
 2587SOL     OW10392   0.174   9.589   5.042 -0.0958  0.3780 -0.6981
 2587SOL    HW110393   0.214   9.675   5.050  0.6467  0.0540 -0.9067
 2587SOL    HW210394   0.130   9.576   5.126 -0.5160  1.1043 -0.7934
 2588SOL     OW10395   3.961   6.844   8.377 -0.6755  0.1006  0.2999
 2588SOL    HW110396   3.944   6.938   8.379  1.0959  0.4433  2.0429
 2588SOL    HW210397   3.891   6.806   8.430 -2.4711  0.1697 -1.8993
 2589SOL     OW10398   0.807   3.991   5.182  0.0316  0.0675  0.1008
 2589SOL    HW110399   0.780   4.048   5.254 -2.2229 -0.5814 -0.1614
 2589SOL    HW210400   0.869   3.930   5.221 -0.6923  0.1180  1.3710
 2590SOL     OW10401   7.230  10.343   4.406  0.0073 -0.1604 -0.1718
 2590SOL    HW110402   7.199  10.359   4.317 -0.2888 -2.2602 -0.4837
 2590SOL    HW210403   7.153  10.316   4.454  0.6660 -2.0066 -0.0790
 2591SOL     OW10404   9.041   2.029   1.437 -0.0840 -0.6574 -0.6785
 2591SOL    HW110405   8.973   1.962   1.446 -0.8469  0.0781 -0.8819
 2591SOL    HW210406   8.996   2.104   1.399  0.6652  0.1274 -0.0447
 2592SOL     OW10407   9.059   4.062   2.571  0.0481  0.6046 -0.2541
 2592SOL    HW110408   9.023   4.150   2.565 -0.9918  0.1492 -0.9204
 2592SOL    HW210409   9.008   4.019   2.640  1.8362  1.0828  1.4678
 2593SOL     OW10410   0.271   6.935   6.721  0.2947  0.1226  0.2284
 2593SOL    HW110411   0.335   6.969   6.784  1.0605  1.5740 -1.2442
 2593SOL    HW210412   0.267   7.003   6.653 -0.1116 -1.5914 -1.5354
 2594SOL     OW10413   6.320   7.872   0.340 -0.0448 -0.1048 -0.2934
 2594SOL    HW110414   6.292   7.789   0.380  0.8224  0.7253  2.2399
 2594SOL    HW210415   6.409   7.855   0.312 -0.2596 -0.3540 -0.8381
 2595SOL     OW10416   4.690   2.187   5.977 -0.0099  0.5453 -0.4867
 2595SOL    HW110417   4.683   2.144   5.892 -0.4048  0.4496 -0.4055
 2595SOL    HW210418   4.623   2.146   6.031 -0.1384  1.0017 -0.2953
 2596SOL     OW10419   3.277   6.258   3.488  0.2469  0.3395  0.6202
 2596SOL    HW110420   3.311   6.297   3.407  0.3196 -1.6220 -0.3699
 2596SOL    HW210421   3.350   6.205   3.521  0.1956  1.0709  1.9671
 2597SOL     OW10422   1.586   1.233   1.671  0.2061  0.0473  0.3754
 2597SOL    HW110423   1.642   1.223   1.748  0.7183  0.7379  0.1007
 2597SOL    HW210424   1.619   1.170   1.608 -1.4221 -1.9140  1.3725
 2598SOL     OW10425   4.668   6.507   5.126  0.3822  0.6260 -0.0633
 2598SOL    HW110426   4.598   6.464   5.076  1.5987 -0.5312 -0.8107
 2598SOL    HW210427   4.672   6.457   5.208  0.5315  0.5087 -0.1426
 2599SOL     OW10428   1.352   2.065   9.865  0.2066  0.4861 -0.0241
 2599SOL    HW110429   1.340   1.977   9.898  1.2187 -0.2049 -1.3878
 2599SOL    HW210430   1.280   2.077   9.802 -0.2725  0.8735  0.5812
 2600SOL     OW10431   6.941   3.262   4.510 -0.1371 -0.2350 -0.4887
 2600SOL    HW110432   6.915   3.319   4.583  1.3472 -1.1758  0.8446
 2600SOL    HW210433   6.861   3.250   4.459 -0.8743  1.6364  0.1456
 2601SOL     OW10434   9.346   9.969   4.279  0.4830  0.5974 -0.4415
 2601SOL    HW110435   9.289   9.981   4.203  2.5131  3.5191 -1.6928
 2601SOL    HW210436   9.300  10.012   4.351 -0.4566 -0.1997 -0.5567
 2602SOL     OW10437   2.901   4.315   3.104 -0.2299 -0.2557 -0.2922
 2602SOL    HW110438   2.966   4.324   3.175 -0.4208 -1.6169  0.0937
 2602SOL    HW210439   2.948   4.339   3.025  1.0940 -2.1676 -0.1509
 2603SOL     OW10440   6.596   7.042   8.405  0.3535  0.6654 -0.6313
 2603SOL    HW110441   6.586   6.978   8.335 -0.7199  0.2473 -0.1213
 2603SOL    HW210442   6.687   7.035   8.432  0.2137 -0.7642 -0.4855
 2604SOL     OW10443   6.197   9.813   3.854 -0.5954  0.2796  0.5727
 2604SOL    HW110444   6.283   9.838   3.887 -0.5480  0.6335  0.1954
 2604SOL    HW210445   6.188   9.862   3.771 -0.9669 -0.1045  0.3820
 2605SOL     OW10446   5.772   1.522   5.406 -0.5382  0.1300  0.5664
 2605SOL    HW110447   5.862   1.518   5.436 -0.0217  1.5820 -0.6860
 2605SOL    HW210448   5.764   1.451   5.343 -0.4167 -0.3169  1.0553
 2606SOL     OW10449   6.310   3.439   5.407  0.1061 -0.0359  0.4939
 2606SOL    HW110450   6.283   3.356   5.368  0.9627 -0.0875 -0.0233
 2606SOL    HW210451   6.298   3.427   5.501 -0.1718 -0.5890  0.3888
 2607SOL     OW10452   5.744   7.901   7.955 -0.7631  0.2518 -0.4843
 2607SOL    HW110453   5.840   7.896   7.950 -0.8289 -1.7192 -0.5255
 2607SOL    HW210454   5.722   7.858   8.038 -1.6228  1.0558 -0.2700
 2608SOL     OW10455   1.199   4.473   4.133  0.0957  0.2892  0.1711
 2608SOL    HW110456   1.183   4.491   4.040 -0.2074  1.9975  0.5152
 2608SOL    HW210457   1.272   4.411   4.133  2.0229  2.3931 -1.1871
 2609SOL     OW10458   3.989   3.982   5.290  0.1742 -0.0198 -0.2276
 2609SOL    HW110459   4.006   4.035   5.368  1.2266 -0.4689 -0.1400
 2609SOL    HW210460   3.969   4.046   5.222  0.0494  0.4154  0.2111
 2610SOL     OW10461   8.855   8.472   3.412 -0.2467  0.4187 -0.1284
 2610SOL    HW110462   8.870   8.442   3.322  0.4610  0.5890 -0.0689
 2610SOL    HW210463   8.909   8.414   3.466  0.2183  1.0599  0.0899
 2611SOL     OW10464   4.082   0.347   1.487 -0.2649  0.3712 -0.5585
 2611SOL    HW110465   3.998   0.340   1.440  1.3356 -0.1078 -3.5936
 2611SOL    HW210466   4.140   0.286   1.440  1.4519 -0.3955  2.3455
 2612SOL     OW10467   1.544   2.568   3.260 -0.1310  0.1026  0.2296
 2612SOL    HW110468   1.537   2.543   3.167  1.0439 -0.4543  0.2758
 2612SOL    HW210469   1.537   2.485   3.307 -0.1832  0.3251  0.6151
 2613SOL     OW10470   9.971   1.547   2.046  0.2274 -0.5841  0.2625
 2613SOL    HW110471  10.035   1.476   2.038  0.0378 -0.5827 -1.7826
 2613SOL    HW210472  10.019   1.625   2.019 -0.2792 -0.3526  0.0242
 2614SOL     OW10473   7.781   4.927   6.699  0.2017 -0.7163  0.1382
 2614SOL    HW110474   7.793   4.860   6.767 -1.4736 -0.1845  0.9909
 2614SOL    HW210475   7.725   4.886   6.633  1.5403 -1.1102 -0.8167
 2615SOL     OW10476   4.575  10.026   6.352  0.3245 -0.0541  0.5353
 2615SOL    HW110477   4.648  10.057   6.406  2.2635 -0.0665 -1.9296
 2615SOL    HW210478   4.607   9.946   6.312 -2.0042 -1.4197  1.2247
 2616SOL     OW10479   1.017   8.593   1.909  0.2983 -0.7198 -0.3509
 2616SOL    HW110480   0.933   8.577   1.953 -0.3252 -1.3701 -1.7047
 2616SOL    HW210481   1.000   8.668   1.852  1.8024  1.7867  2.2303
 2617SOL     OW10482   0.451   5.785   0.605 -0.3769  0.4114 -0.1580
 2617SOL    HW110483   0.378   5.750   0.656 -1.6366 -0.1318 -2.1701
 2617SOL    HW210484   0.527   5.735   0.634 -1.4392 -1.3527 -0.2776
 2618SOL     OW10485   6.911   7.033   1.886  0.3102  0.1307 -0.7834
 2618SOL    HW110486   6.990   7.004   1.933 -0.7083 -1.4419  0.0423
 2618SOL    HW210487   6.881   6.955   1.840 -0.0372  1.0647 -2.2017
 2619SOL     OW10488   1.770   3.698   1.258 -0.2081 -0.2044 -0.1999
 2619SOL    HW110489   1.824   3.682   1.335 -0.5710  0.8242  0.2957
 2619SOL    HW210490   1.684   3.722   1.294 -1.0624 -1.9781 -0.9711
 2620SOL     OW10491   4.875   1.370   6.315  0.3220  0.0446 -0.3964
 2620SOL    HW110492   4.963   1.406   6.324  0.5140 -0.3524 -0.6837
 2620SOL    HW210493   4.865   1.354   6.222 -0.1021  0.1959 -0.3796
 2621SOL     OW10494   0.924   8.103   6.294  0.1961 -0.5315  0.2551
 2621SOL    HW110495   0.963   8.045   6.229  1.1427 -0.8107  1.0616
 2621SOL    HW210496   0.975   8.184   6.288 -1.0370  0.2164 -0.7809
 2622SOL     OW10497   9.147  10.189   7.377 -0.4364 -0.0196 -0.4041
 2622SOL    HW110498   9.167  10.097   7.362  1.4913  0.2424  0.2568
 2622SOL    HW210499   9.103  10.190   7.462  1.1434 -0.2069  0.4565
 2623SOL     OW10500   4.261   7.135   8.408 -0.1377  0.5971 -0.6733
 2623SOL    HW110501   4.287   7.186   8.332 -3.0980 -0.5787 -2.6708
 2623SOL    HW210502   4.176   7.097   8.384 -0.2598 -1.5319  2.4390
 2624SOL     OW10503   5.319   9.655   4.943 -0.0656  0.2529  0.5331
 2624SOL    HW110504   5.230   9.621   4.954  0.7082 -1.5304  1.7881
 2624SOL    HW210505   5.349   9.671   5.032  0.5038  1.9826  0.0716
 2625SOL     OW10506   4.007   6.930   7.141 -0.2278  0.4036 -0.3164
 2625SOL    HW110507   3.962   6.998   7.191  1.7859  0.4943  1.5716
 2625SOL    HW210508   4.073   6.978   7.090 -0.7255  0.0869 -1.2841
 2626SOL     OW10509   3.016   8.465   4.726 -0.3773 -0.5410 -0.1358
 2626SOL    HW110510   3.102   8.471   4.766  0.0315  0.2337 -1.0883
 2626SOL    HW210511   2.975   8.389   4.767 -0.4813  0.9122  2.6417
 2627SOL     OW10512   8.445   8.904   5.134  0.3979 -0.0846  0.1426
 2627SOL    HW110513   8.408   8.992   5.127 -0.8065 -0.5214  0.7560
 2627SOL    HW210514   8.517   8.904   5.071  0.6544  1.4476  0.3911
 2628SOL     OW10515   1.791   5.021   7.212  0.2690  0.2093 -0.8009
 2628SOL    HW110516   1.806   5.095   7.272  0.3409  0.9090 -1.6614
 2628SOL    HW210517   1.784   4.945   7.269 -1.5463  1.1103  0.2740
 2629SOL     OW10518   3.349   5.492   2.565  0.7238 -0.4297 -0.4612
 2629SOL    HW110519   3.280   5.557   2.579  1.3010  0.0988 -0.0084
 2629SOL    HW210520   3.307   5.421   2.516 -0.2097 -0.2481  0.0658
 2630SOL     OW10521   3.703   7.427   9.327 -0.4450 -0.6340  0.3810
 2630SOL    HW110522   3.715   7.339   9.364  0.3314 -0.2808  0.9819
 2630SOL    HW210523   3.737   7.486   9.394  1.3413  0.0160 -1.0170
 2631SOL     OW10524   1.108   0.865   9.711  0.2453  0.2653 -0.5704
 2631SOL    HW110525   1.200   0.867   9.684  0.0585  1.3485 -1.1689
 2631SOL    HW210526   1.060   0.899   9.635 -0.7750 -1.3097 -0.6973
 2632SOL     OW10527   2.789   5.635   4.477  0.1066 -0.2937 -0.0660
 2632SOL    HW110528   2.751   5.717   4.447  0.1630 -0.1678  0.2015
 2632SOL    HW210529   2.788   5.642   4.573 -0.8791 -1.0515 -0.0099
 2633SOL     OW10530   3.003   6.038   9.120  0.0868 -0.2549 -0.1875
 2633SOL    HW110531   2.960   6.123   9.134  0.3048 -0.2676  0.6018
 2633SOL    HW210532   3.030   6.040   9.028  0.2547  0.6140 -0.1304
 2634SOL     OW10533   4.725   2.229   0.569 -0.1318  0.2239 -0.6496
 2634SOL    HW110534   4.728   2.307   0.625 -1.3381 -1.2851  1.6435
 2634SOL    HW210535   4.815   2.216   0.541  0.3996  1.3793  0.4259
 2635SOL     OW10536   9.371   7.646   6.730  0.0094 -0.9666  0.0857
 2635SOL    HW110537   9.386   7.674   6.820 -2.3840 -1.1304  0.6125
 2635SOL    HW210538   9.329   7.721   6.688 -0.2929 -1.4197 -0.4324
 2636SOL     OW10539   5.855   1.953   0.480 -0.0833 -0.4433  0.2186
 2636SOL    HW110540   5.772   1.978   0.439 -0.3461 -1.0249  0.3836
 2636SOL    HW210541   5.841   1.863   0.511  0.4820 -0.4112  0.5918
 2637SOL     OW10542   6.362   4.021   4.485  1.0969 -0.2944  0.1032
 2637SOL    HW110543   6.442   4.040   4.535  0.7595  1.5703  0.0094
 2637SOL    HW210544   6.335   4.106   4.450 -0.6958 -0.9615 -0.2441
 2638SOL     OW10545   2.962   7.593   3.429 -0.0618  0.1346 -0.6142
 2638SOL    HW110546   3.025   7.522   3.440  2.4565  2.3157  0.2596
 2638SOL    HW210547   2.912   7.594   3.511  0.2333 -0.2703 -0.4275
 2639SOL     OW10548   8.547   1.173   9.253  0.4947  0.2301 -0.8839
 2639SOL    HW110549   8.538   1.078   9.245 -0.2096 -0.2053  2.8621
 2639SOL    HW210550   8.638   1.187   9.279  0.5298  0.5445 -1.1713
 2640SOL     OW10551   1.875   9.840   0.455  0.5401  0.2829  0.2840
 2640SOL    HW110552   1.952   9.892   0.434  0.6353  0.2589  0.5648
 2640SOL    HW210553   1.876   9.833   0.551  0.7384 -0.5558  0.2270
 2641SOL     OW10554   5.458   4.932   9.407 -0.1778  0.4014 -0.8219
 2641SOL    HW110555   5.473   5.014   9.359 -2.2651  0.8741 -0.7744
 2641SOL    HW210556   5.471   4.863   9.341  0.6100  0.8114 -1.1123
 2642SOL     OW10557   9.444   6.546   2.375 -0.5630  0.1499 -0.1946
 2642SOL    HW110558   9.532   6.565   2.343 -0.9381 -0.1078 -1.4264
 2642SOL    HW210559   9.391   6.621   2.349 -1.4014 -1.1099 -2.4589
 2643SOL     OW10560   6.703   2.731   9.956  0.0450 -0.0767  0.2113
 2643SOL    HW110561   6.646   2.656   9.969  1.5226 -1.0703  1.3132
 2643SOL    HW210562   6.782   2.694   9.916  0.7433  0.9027  0.6578
 2644SOL     OW10563   9.785   5.273   9.836  0.3161  0.0221 -0.6568
 2644SOL    HW110564   9.869   5.233   9.812  0.0448 -0.0848 -1.4538
 2644SOL    HW210565   9.721   5.203   9.823  0.1535 -0.0546  0.4363
 2645SOL     OW10566   8.006   8.853   6.209 -0.3792  0.0204  0.1363
 2645SOL    HW110567   7.974   8.797   6.279  0.6243 -0.9069 -0.1250
 2645SOL    HW210568   8.010   8.797   6.132  2.0584 -0.0086  0.2158
 2646SOL     OW10569   4.934   2.857   8.650  0.2494 -0.2370  0.5124
 2646SOL    HW110570   4.942   2.770   8.612  2.6279  0.5127 -0.9362
 2646SOL    HW210571   4.915   2.915   8.576 -0.9885  0.5457  1.4005
 2647SOL     OW10572   5.562   5.942   8.968 -0.4300 -0.0610 -0.3638
 2647SOL    HW110573   5.633   5.879   8.977  0.8768  0.6658 -3.7574
 2647SOL    HW210574   5.524   5.923   8.882 -0.2085  3.4157 -1.3923
 2648SOL     OW10575   9.702   4.361   3.299  0.1705  0.2255 -0.1955
 2648SOL    HW110576   9.752   4.431   3.341  1.4780 -0.6655 -0.2086
 2648SOL    HW210577   9.758   4.333   3.226 -1.2107  0.4743 -1.4053
 2649SOL     OW10578   3.603   8.654   9.199  0.2933 -0.3959  0.5312
 2649SOL    HW110579   3.654   8.623   9.124  2.3377  0.9841  1.2548
 2649SOL    HW210580   3.563   8.575   9.236  0.4900 -1.2945 -1.0938
 2650SOL     OW10581   6.487   9.233   5.150  0.3129  0.1270  0.1626
 2650SOL    HW110582   6.504   9.200   5.062  2.9756  0.9658  0.2882
 2650SOL    HW210583   6.548   9.185   5.206 -0.4494  0.5147  1.3621
 2651SOL     OW10584   3.208   8.578   6.980  0.1544  0.5093 -0.0645
 2651SOL    HW110585   3.299   8.607   6.987  0.3164 -0.2551  1.1831
 2651SOL    HW210586   3.168   8.606   7.062 -0.6334  0.4689 -0.4292
 2652SOL     OW10587   3.030   2.864   4.796  0.5075 -0.1732 -0.5888
 2652SOL    HW110588   3.004   2.827   4.881  0.7574  0.3911 -0.2639
 2652SOL    HW210589   3.081   2.794   4.754  0.4192 -0.4400 -0.2589
 2653SOL     OW10590   1.267   9.072   2.727  1.1096  0.4479 -0.3860
 2653SOL    HW110591   1.217   9.139   2.775 -0.5483 -0.8341 -0.2350
 2653SOL    HW210592   1.279   9.110   2.640  0.2140  0.9746 -0.3011
 2654SOL     OW10593   9.071   2.936   8.191  0.0846 -0.3354 -0.0625
 2654SOL    HW110594   9.052   3.016   8.240  0.4187 -1.0899  1.3480
 2654SOL    HW210595   8.986   2.908   8.157 -0.0191  0.6607 -0.6416
 2655SOL     OW10596  10.245   1.221   8.758  0.2683  0.1139  0.1216
 2655SOL    HW110597  10.241   1.162   8.682 -0.0111  1.0254 -0.5937
 2655SOL    HW210598  10.330   1.265   8.750 -0.0997  0.8045 -0.1419
 2656SOL     OW10599   2.104   6.884   0.046 -0.0144  0.1001 -0.3907
 2656SOL    HW110600   2.156   6.852  -0.028  0.6638  0.5824 -0.1334
 2656SOL    HW210601   2.104   6.979   0.037  0.5459  0.2028  0.5219
 2657SOL     OW10602   0.840   2.456   3.190  0.3621  0.1257  0.5605
 2657SOL    HW110603   0.887   2.526   3.236 -0.3864  1.0479 -0.0293
 2657SOL    HW210604   0.852   2.476   3.097 -1.3360  0.5107  0.3912
 2658SOL     OW10605   6.859   0.841   4.730  0.0604  0.1425 -0.3114
 2658SOL    HW110606   6.796   0.902   4.693  1.4536  1.6796 -0.2555
 2658SOL    HW210607   6.836   0.756   4.693 -0.3658  1.1302 -2.4067
 2659SOL     OW10608   7.012   2.021   9.311  0.0828 -0.2437 -0.0019
 2659SOL    HW110609   7.094   2.070   9.323 -0.5919  0.6133  1.3928
 2659SOL    HW210610   6.973   2.059   9.232  1.1603 -0.8936 -0.8773
 2660SOL     OW10611   1.298   0.757   3.948  0.2773  0.4390  0.0498
 2660SOL    HW110612   1.204   0.774   3.938  0.3837  2.0833  1.4282
 2660SOL    HW210613   1.333   0.763   3.859 -0.4341  3.1542 -0.1269
 2661SOL     OW10614   2.599   2.367   2.480 -0.3350 -0.0371 -0.0109
 2661SOL    HW110615   2.641   2.296   2.528 -0.3162  0.8344  1.3264
 2661SOL    HW210616   2.647   2.373   2.397 -1.8640 -3.1317 -1.2815
 2662SOL     OW10617   5.852   4.961   0.780 -0.4034 -0.1896  0.1374
 2662SOL    HW110618   5.913   4.984   0.850 -0.4983  1.1038 -0.1755
 2662SOL    HW210619   5.775   4.928   0.825 -0.1904 -0.0407  0.6177
 2663SOL     OW10620   2.529   1.708   3.154  0.4359  0.2660  0.1395
 2663SOL    HW110621   2.588   1.665   3.216  2.2187 -1.1260 -2.3446
 2663SOL    HW210622   2.576   1.705   3.071 -2.0481  1.5784 -1.4128
 2664SOL     OW10623   5.011   4.210   4.661 -0.0226  0.0134  0.2687
 2664SOL    HW110624   4.960   4.277   4.616 -0.3882  0.5608  1.4298
 2664SOL    HW210625   5.077   4.182   4.598 -0.8612  0.3320 -0.7739
 2665SOL     OW10626   2.948   4.724   8.778 -0.1661  0.0776 -0.0006
 2665SOL    HW110627   2.908   4.808   8.799  1.4942  0.7123  0.7570
 2665SOL    HW210628   3.016   4.713   8.843  0.8221 -1.0152 -1.1773
 2666SOL     OW10629   2.051   8.618   2.980  0.5570  0.7406  0.5143
 2666SOL    HW110630   2.108   8.577   3.045  0.8948 -1.4067 -1.0232
 2666SOL    HW210631   1.973   8.643   3.029  0.3751 -1.6959  1.6437
 2667SOL     OW10632   0.491   3.832   5.284  0.4321  0.0198  0.2293
 2667SOL    HW110633   0.499   3.909   5.340  0.3295  0.3671 -0.2287
 2667SOL    HW210634   0.475   3.867   5.197 -1.3248 -0.5392  0.2780
 2668SOL     OW10635   3.346   6.279   9.959 -0.3473  0.2620  0.3675
 2668SOL    HW110636   3.335   6.345  10.028 -3.3879  1.2723 -0.9179
 2668SOL    HW210637   3.275   6.217   9.975  1.1722 -1.5794  0.2621
 2669SOL     OW10638   0.202   4.587   8.077 -0.3169 -0.3939 -0.6723
 2669SOL    HW110639   0.203   4.667   8.129 -0.7597  0.5239 -2.0008
 2669SOL    HW210640   0.110   4.563   8.073 -0.3040 -0.3784 -1.1168
 2670SOL     OW10641   7.652   0.209   6.100  0.3611  0.0887  0.1844
 2670SOL    HW110642   7.590   0.175   6.165  0.2616  0.7613  0.4517
 2670SOL    HW210643   7.735   0.215   6.147  0.4442 -0.0389  0.0567
 2671SOL     OW10644   1.430   7.226   9.247  0.1267  0.5752  0.1267
 2671SOL    HW110645   1.399   7.238   9.337 -0.9832  0.3087 -0.2084
 2671SOL    HW210646   1.381   7.291   9.197 -0.9065 -0.7414 -0.6304
 2672SOL     OW10647   6.609   1.668   1.351  0.2539  0.3747 -0.0963
 2672SOL    HW110648   6.680   1.608   1.331  1.7648  1.5854  1.3277
 2672SOL    HW210649   6.576   1.697   1.266  0.1611 -1.6474 -0.7786
 2673SOL     OW10650   3.941   5.570   8.906  0.3419  0.1201  0.5065
 2673SOL    HW110651   3.875   5.555   8.973 -1.2213  0.6473 -0.8440
 2673SOL    HW210652   4.009   5.621   8.950  1.0202 -2.3418  2.5331
 2674SOL     OW10653   2.446   3.074   1.047  0.0068  0.3942  0.3405
 2674SOL    HW110654   2.489   3.157   1.067 -1.7918  1.0807  1.6714
 2674SOL    HW210655   2.373   3.098   0.990 -0.2825 -0.3229  0.4025
 2675SOL     OW10656   9.406   3.438   1.392 -0.1190 -0.4371  0.4295
 2675SOL    HW110657   9.393   3.399   1.306 -0.5841 -1.3167  0.8750
 2675SOL    HW210658   9.320   3.473   1.416 -0.3759 -1.4737  1.1185
 2676SOL     OW10659   3.646   6.895   6.466 -0.0954  0.3241 -0.3749
 2676SOL    HW110660   3.612   6.918   6.552 -0.4181 -1.6810  0.0796
 2676SOL    HW210661   3.723   6.841   6.484  1.3703  1.9554 -1.3892
 2677SOL     OW10662   8.445   4.698   0.725 -0.1801  0.4236  0.1988
 2677SOL    HW110663   8.485   4.618   0.689  0.0193  0.5908  0.0491
 2677SOL    HW210664   8.504   4.768   0.699 -0.6985  0.7038 -0.2301
 2678SOL     OW10665   1.028   4.170   4.889  0.2074  0.7382  0.4524
 2678SOL    HW110666   1.002   4.080   4.911  1.1704  0.1786 -0.5526
 2678SOL    HW210667   1.088   4.196   4.959  0.4821  0.3197  0.3795
 2679SOL     OW10668   2.123   1.270   4.247 -0.0396  0.0770  0.0677
 2679SOL    HW110669   2.080   1.345   4.287 -2.3904 -0.3065 -1.5445
 2679SOL    HW210670   2.182   1.308   4.182 -2.0829  0.5956 -1.5747
 2680SOL     OW10671   6.850   1.121   0.801  0.2019 -0.3379  0.3731
 2680SOL    HW110672   6.928   1.152   0.754 -0.5192 -0.7229 -1.1494
 2680SOL    HW210673   6.810   1.057   0.742 -1.2065 -0.2446  1.1787
 2681SOL     OW10674   5.607   8.759   2.134 -0.1510  0.0389  0.1828
 2681SOL    HW110675   5.512   8.754   2.139 -0.2337 -0.4341 -1.4030
 2681SOL    HW210676   5.628   8.740   2.042  1.4789  0.0388  0.5186
 2682SOL     OW10677   0.531   4.709   3.602 -0.2691  0.3389 -0.0223
 2682SOL    HW110678   0.599   4.730   3.666 -1.3700  1.1633  0.9250
 2682SOL    HW210679   0.474   4.646   3.647 -2.0874  2.2793  0.5776
 2683SOL     OW10680   6.027   5.817   7.324 -0.1159  0.4465 -0.3629
 2683SOL    HW110681   5.932   5.827   7.329 -0.3355 -1.0772 -0.9473
 2683SOL    HW210682   6.040   5.733   7.279  1.4995 -0.1199  1.0415
 2684SOL     OW10683   9.362   1.817   0.700  0.5238  0.2753  1.0281
 2684SOL    HW110684   9.303   1.820   0.775 -0.8822  0.7808 -0.0601
 2684SOL    HW210685   9.367   1.724   0.677  1.3750  0.0558  2.0319
 2685SOL     OW10686   2.855   0.043   9.050 -0.0052  0.1654  0.1596
 2685SOL    HW110687   2.892   0.085   9.128  2.4046 -0.9849 -0.2680
 2685SOL    HW210688   2.812   0.114   9.003  1.9186  1.7275  0.6251
 2686SOL     OW10689   0.741   7.036   3.210 -0.3029  0.1660 -0.2917
 2686SOL    HW110690   0.798   7.008   3.138  0.7799  2.3059 -0.3550
 2686SOL    HW210691   0.785   7.006   3.289 -0.5505 -0.5912 -0.4311
 2687SOL     OW10692   0.591   0.122   9.832  0.0219  0.1670  0.1258
 2687SOL    HW110693   0.526   0.081   9.775  0.6112  2.2692 -2.2465
 2687SOL    HW210694   0.551   0.204   9.859  0.5699  0.1369  1.0657
 2688SOL     OW10695   8.355   9.414   0.228  0.1220  0.5439  0.5096
 2688SOL    HW110696   8.322   9.458   0.306  1.6150 -0.0056  1.5087
 2688SOL    HW210697   8.316   9.327   0.231  1.1707  0.0764  1.3973
 2689SOL     OW10698   5.480  10.130   6.950 -0.3496  0.3121  0.6780
 2689SOL    HW110699   5.547  10.063   6.935 -1.2764 -0.5372  0.1548
 2689SOL    HW210700   5.415  10.086   7.006 -0.3283  1.2132  1.4249
 2690SOL     OW10701   1.513   0.290   1.334 -0.0836  0.0346  0.0895
 2690SOL    HW110702   1.573   0.270   1.406 -0.0183 -1.4114 -0.3402
 2690SOL    HW210703   1.554   0.364   1.289  1.1784 -0.6539  0.0498
 2691SOL     OW10704   1.091   7.783   3.277  0.6033  0.2203 -0.2104
 2691SOL    HW110705   1.055   7.762   3.191  1.9397 -0.0648 -0.7406
 2691SOL    HW210706   1.142   7.863   3.263  2.0645 -0.6424 -0.0687
 2692SOL     OW10707   9.241   8.680   7.144  0.1408  0.6478  0.0734
 2692SOL    HW110708   9.254   8.611   7.209 -0.6505 -0.4777 -0.9208
 2692SOL    HW210709   9.184   8.743   7.187  0.3083  0.3450  0.7524
 2693SOL     OW10710  10.137   4.880   4.748 -0.2633 -0.7491 -0.5815
 2693SOL    HW110711  10.140   4.845   4.660 -0.3036  1.3308 -1.4834
 2693SOL    HW210712  10.179   4.966   4.741 -3.7733  1.2627  0.4860
 2694SOL     OW10713   3.328   2.176   1.869  0.4782 -0.3319 -0.2538
 2694SOL    HW110714   3.367   2.109   1.924 -0.1956  0.0880  0.7726
 2694SOL    HW210715   3.257   2.132   1.824  1.2082 -0.7473 -1.0241
 2695SOL     OW10716   4.893   9.061   2.411  0.3796 -0.1014  0.3533
 2695SOL    HW110717   4.941   9.131   2.367  0.1163 -0.2576 -0.1849
 2695SOL    HW210718   4.955   9.028   2.476  0.7249  0.2185  0.1948
 2696SOL     OW10719   7.835   0.649   6.675 -0.4144  0.1377 -0.0236
 2696SOL    HW110720   7.748   0.611   6.687 -1.4406  2.1327 -0.7675
 2696SOL    HW210721   7.835   0.684   6.586  1.7402 -1.1673 -0.6294
 2697SOL     OW10722   5.841   5.104   6.312 -0.2054  0.1033  0.1305
 2697SOL    HW110723   5.934   5.081   6.314 -0.0854  0.6014  0.8888
 2697SOL    HW210724   5.802   5.048   6.380 -0.5602 -0.4944 -0.5564
 2698SOL     OW10725   9.912   7.803   0.280 -0.6754  0.6150 -0.0654
 2698SOL    HW110726   9.838   7.751   0.247 -1.1532  1.0655  0.2959
 2698SOL    HW210727   9.968   7.739   0.323 -1.6235  0.4806  1.0263
 2699SOL     OW10728   2.504   7.940   6.522 -0.1694 -0.0068 -0.8608
 2699SOL    HW110729   2.533   8.003   6.456 -0.6832  1.8127  0.5852
 2699SOL    HW210730   2.582   7.917   6.571  0.1390 -1.0567 -1.7915
 2700SOL     OW10731   9.405   8.872   1.580  0.0195 -0.8411  0.3754
 2700SOL    HW110732   9.382   8.806   1.646  4.5566 -2.7359  0.4011
 2700SOL    HW210733   9.475   8.832   1.529  1.8017  3.3010 -0.8459
 2701SOL     OW10734  10.185   0.943   4.774  1.1087  0.7661  0.4300
 2701SOL    HW110735  10.099   0.938   4.816  0.7337 -0.3599 -0.4217
 2701SOL    HW210736  10.215   1.033   4.790  0.6322  0.6033  2.3804
 2702SOL     OW10737   2.280   8.896   0.376 -0.1078  0.6001  0.4946
 2702SOL    HW110738   2.322   8.876   0.292  0.2601  0.9129  0.6047
 2702SOL    HW210739   2.327   8.843   0.440 -0.7143 -0.0286  0.4426
 2703SOL     OW10740   7.543   2.704   8.600  0.1163  0.0704 -0.3544
 2703SOL    HW110741   7.517   2.613   8.586 -0.5377  0.0669  0.7596
 2703SOL    HW210742   7.479   2.755   8.551  1.2291 -0.0860 -2.0238
 2704SOL     OW10743   9.437   0.127   7.597 -0.2921  0.1817  0.7359
 2704SOL    HW110744   9.382   0.200   7.570 -1.9426 -1.1741  0.3068
 2704SOL    HW210745   9.419   0.116   7.691 -0.4057  0.0311  0.6972
 2705SOL     OW10746   5.331   2.050   3.229  0.4048  0.0108  0.7681
 2705SOL    HW110747   5.418   2.010   3.228  0.2449 -0.6142  3.2344
 2705SOL    HW210748   5.342   2.127   3.286  0.0523  1.9306 -1.6127
 2706SOL     OW10749   2.428   0.727   1.358  0.3611 -0.3921  0.5201
 2706SOL    HW110750   2.440   0.656   1.421 -1.3893 -0.1221  1.2412
 2706SOL    HW210751   2.450   0.806   1.407  2.7451 -0.4092 -0.4149
 2707SOL     OW10752   2.022   5.786   0.883  0.0156 -0.1281  0.7017
 2707SOL    HW110753   2.088   5.720   0.903  0.5085  0.5212  1.2307
 2707SOL    HW210754   2.068   5.851   0.830 -0.7390 -0.7404 -0.7631
 2708SOL     OW10755   1.002   9.041   2.603  0.2216  0.5191 -0.5630
 2708SOL    HW110756   0.953   9.003   2.530 -0.9863 -0.4244  0.7086
 2708SOL    HW210757   1.089   9.002   2.595 -0.3574 -0.8204 -0.5825
 2709SOL     OW10758  10.289   5.800   9.817  0.5049 -0.2176  0.0700
 2709SOL    HW110759  10.249   5.766   9.737 -0.0057  1.0209 -0.2131
 2709SOL    HW210760  10.273   5.732   9.882 -0.4319 -0.5571 -0.4991
 2710SOL     OW10761   9.864   7.606   4.745 -0.5838 -0.6644 -0.2018
 2710SOL    HW110762   9.778   7.566   4.756 -1.4323  1.0301 -0.5050
 2710SOL    HW210763   9.862   7.644   4.657  0.5088 -0.6565 -0.2349
 2711SOL     OW10764   7.002   3.618   8.457 -0.6868 -0.2846 -0.1266
 2711SOL    HW110765   7.098   3.619   8.452 -0.5254  3.0354  1.4281
 2711SOL    HW210766   6.983   3.577   8.541 -0.5557  0.0910  0.0896
 2712SOL     OW10767   0.653   0.620   4.542 -0.1037 -0.1168  0.2030
 2712SOL    HW110768   0.626   0.571   4.464  0.3163 -1.2955  0.7671
 2712SOL    HW210769   0.573   0.662   4.573 -0.0178  1.5505 -1.6272
 2713SOL     OW10770   6.400   4.020   7.726  0.3237 -0.2964 -0.1090
 2713SOL    HW110771   6.423   4.097   7.778 -1.9212  1.0371 -0.9691
 2713SOL    HW210772   6.422   4.044   7.637 -1.3280 -0.2101 -0.5221
 2714SOL     OW10773   1.509   7.893   4.926 -0.4257 -0.3449  0.0019
 2714SOL    HW110774   1.594   7.887   4.882 -0.5492 -0.0290 -0.2909
 2714SOL    HW210775   1.501   7.811   4.974 -0.7509 -1.1817 -1.4107
 2715SOL     OW10776   9.403   0.912   1.948  0.3478 -0.8628 -0.3759
 2715SOL    HW110777   9.392   0.898   2.042 -2.4037 -1.0916 -0.6314
 2715SOL    HW210778   9.464   0.986   1.942  1.1054 -1.2722  1.5402
 2716SOL     OW10779  10.328   2.701   8.823  0.6904  0.6603  0.1445
 2716SOL    HW110780  10.269   2.718   8.750 -0.2172  1.0087  0.9360
 2716SOL    HW210781  10.403   2.759   8.807  1.3568 -0.5762 -1.4456
 2717SOL     OW10782   6.116   7.637   0.004 -0.0288  0.1743 -0.0784
 2717SOL    HW110783   6.037   7.597  -0.033  0.7884 -1.2668 -0.3431
 2717SOL    HW210784   6.085   7.718   0.044 -1.9261 -1.0662  1.1435
 2718SOL     OW10785   4.903   3.423   0.590 -0.3209 -0.1480 -0.3183
 2718SOL    HW110786   4.933   3.397   0.677  0.0266  0.7008 -0.1688
 2718SOL    HW210787   4.882   3.341   0.546 -2.0352 -0.5094  1.0945
 2719SOL     OW10788   5.503   7.105   2.136 -0.1986 -0.0218  0.3729
 2719SOL    HW110789   5.567   7.037   2.115 -0.3917 -0.4524  1.1424
 2719SOL    HW210790   5.528   7.136   2.223  0.4267  1.5374 -0.3249
 2720SOL     OW10791   2.079   6.398   9.270  0.1275  0.2504  0.2645
 2720SOL    HW110792   2.144   6.468   9.268 -0.4969  0.8397  0.4085
 2720SOL    HW210793   2.117   6.332   9.329  0.7088  0.4715  0.1424
 2721SOL     OW10794   3.640   2.025   7.929  0.0694 -0.2729  0.3961
 2721SOL    HW110795   3.681   1.943   7.956  0.3131 -0.0713  0.6459
 2721SOL    HW210796   3.712   2.078   7.895 -0.1515 -0.3123 -0.1355
 2722SOL     OW10797   0.741   4.951   8.980  0.4486  0.5314 -0.2163
 2722SOL    HW110798   0.801   4.882   8.955 -0.5147 -0.0120 -1.1247
 2722SOL    HW210799   0.745   5.014   8.907 -0.0592  0.4957 -0.2800
 2723SOL     OW10800   7.382   0.220   1.352  0.2816 -0.1091 -0.3196
 2723SOL    HW110801   7.400   0.126   1.350  0.8991 -0.0992  2.0342
 2723SOL    HW210802   7.463   0.259   1.386 -0.9080  0.9520  1.4436
 2724SOL     OW10803   2.084   6.459   9.834 -0.1912 -1.1360 -0.3527
 2724SOL    HW110804   2.030   6.420   9.903  1.2429  0.1551  1.6015
 2724SOL    HW210805   2.045   6.545   9.819 -0.1954 -1.2168 -0.8443
 2725SOL     OW10806   7.163   6.497   5.730 -0.1487  0.2581  0.1482
 2725SOL    HW110807   7.198   6.572   5.681 -1.4756  0.2129 -0.9218
 2725SOL    HW210808   7.236   6.435   5.734  0.7703  1.3245  0.4931
 2726SOL     OW10809   8.606   7.359   5.025  0.0132 -0.0145 -0.2306
 2726SOL    HW110810   8.693   7.394   5.008  0.2224  0.0484  0.8540
 2726SOL    HW210811   8.598   7.361   5.121 -0.5525 -1.5254 -0.2177
 2727SOL     OW10812   9.698   5.435   1.859 -0.4816 -0.0200  0.1866
 2727SOL    HW110813   9.716   5.504   1.795 -3.6172 -0.4927 -1.3750
 2727SOL    HW210814   9.746   5.359   1.826  0.8484  0.6484  0.4784
 2728SOL     OW10815   9.806   0.018   0.225  0.1569  0.1149 -0.1409
 2728SOL    HW110816   9.848   0.052   0.147  0.4422  1.0379  0.3960
 2728SOL    HW210817   9.840   0.072   0.296 -0.0587 -0.7349  0.6293
 2729SOL     OW10818   1.572   4.713   7.463 -0.7762  0.1042 -0.3589
 2729SOL    HW110819   1.523   4.782   7.418  1.3927  2.3845  0.5178
 2729SOL    HW210820   1.562   4.734   7.556  0.1221 -0.6174 -0.0893
 2730SOL     OW10821   5.228   7.408   0.211  0.1259  0.0494 -0.1649
 2730SOL    HW110822   5.214   7.333   0.153 -0.0684 -0.9345  1.1007
 2730SOL    HW210823   5.305   7.383   0.262  0.0069  0.6826  0.3288
 2731SOL     OW10824   5.716   0.494   3.872 -0.7365 -0.2304 -0.0703
 2731SOL    HW110825   5.656   0.565   3.896 -1.5097 -1.3985  1.5917
 2731SOL    HW210826   5.792   0.506   3.928  0.0377  0.4276 -1.2080
 2732SOL     OW10827   5.738   1.496   8.250  0.1069 -0.6863  0.4884
 2732SOL    HW110828   5.710   1.427   8.311 -0.2314  1.3357  2.7386
 2732SOL    HW210829   5.818   1.531   8.288  0.5261 -0.1036 -0.8755
 2733SOL     OW10830   6.366   4.143   0.990 -0.7886 -0.0204 -0.3447
 2733SOL    HW110831   6.457   4.154   0.963 -0.5212  1.3900  1.0339
 2733SOL    HW210832   6.316   4.181   0.917 -0.4269 -2.4187 -1.9625
 2734SOL     OW10833   3.784   6.656   1.208 -0.3589  0.2685  0.1392
 2734SOL    HW110834   3.852   6.715   1.240  0.8439  0.0214 -1.7911
 2734SOL    HW210835   3.766   6.686   1.119 -0.2279 -1.8285 -0.6394
 2735SOL     OW10836   3.358   8.440   4.331 -0.2022 -0.2094 -0.2178
 2735SOL    HW110837   3.268   8.458   4.303 -0.2274  0.7268  0.3963
 2735SOL    HW210838   3.410   8.507   4.286  0.0652 -0.2037  0.0967
 2736SOL     OW10839   6.661   3.141   5.972  0.5255 -0.1218  0.4446
 2736SOL    HW110840   6.751   3.142   6.004  0.4943  1.2394  0.5543
 2736SOL    HW210841   6.658   3.066   5.912  1.5906 -0.4685  0.7860
 2737SOL     OW10842   7.465   3.195   5.736  0.8416 -0.5171 -0.4533
 2737SOL    HW110843   7.556   3.169   5.749  1.4770  0.9743 -1.6624
 2737SOL    HW210844   7.466   3.247   5.656 -1.1828 -0.9529 -0.8179
 2738SOL     OW10845   3.541  10.278   7.892  0.0323 -0.0558 -0.2079
 2738SOL    HW110846   3.500  10.192   7.904 -0.1280 -0.0585 -0.7426
 2738SOL    HW210847   3.615  10.278   7.953  0.8131 -1.0776 -1.1000
 2739SOL     OW10848  10.142   9.104   0.034 -0.3079 -0.1215 -0.2101
 2739SOL    HW110849  10.121   9.088  -0.058  0.1369 -2.2889  0.0128
 2739SOL    HW210850  10.185   9.189   0.034  0.3767 -0.4100 -2.1297
 2740SOL     OW10851  10.031   4.900   6.833  0.1462 -0.3688 -0.1199
 2740SOL    HW110852  10.002   4.981   6.791  2.0249  0.1023 -0.6069
 2740SOL    HW210853  10.045   4.924   6.925  2.9268  0.5504 -0.7024
 2741SOL     OW10854   0.069   1.867   6.094  0.2847  0.6483  0.5156
 2741SOL    HW110855   0.096   1.816   6.170 -0.3551 -1.4956 -0.6043
 2741SOL    HW210856   0.131   1.843   6.025 -1.1875 -0.2306 -0.5827
 2742SOL     OW10857   0.213   9.339   0.184  0.4643 -0.2314  0.2956
 2742SOL    HW110858   0.200   9.307   0.273  0.3307 -0.2330  0.2757
 2742SOL    HW210859   0.238   9.431   0.195 -0.1459 -0.0662  0.3109
 2743SOL     OW10860   1.639  10.299   2.832 -0.0329 -0.3564 -0.7106
 2743SOL    HW110861   1.647  10.245   2.910 -2.1438  0.3308  0.0499
 2743SOL    HW210862   1.692  10.377   2.850  0.7427 -0.8976 -0.6341
 2744SOL     OW10863   3.676   3.511   7.021  0.4376  0.0525 -0.0446
 2744SOL    HW110864   3.747   3.505   7.085 -0.7522 -0.6689  1.2792
 2744SOL    HW210865   3.607   3.561   7.066  0.4531  1.5953 -1.6586
 2745SOL     OW10866   0.155   7.834   5.580 -0.5812 -0.2161  0.0046
 2745SOL    HW110867   0.190   7.750   5.610 -3.0664 -0.9987  1.0272
 2745SOL    HW210868   0.199   7.899   5.634  0.1234 -1.0214  0.4212
 2746SOL     OW10869   0.625   3.230   4.678  0.4230  0.2002 -0.2763
 2746SOL    HW110870   0.584   3.305   4.721 -1.6291 -1.3021  0.5178
 2746SOL    HW210871   0.625   3.161   4.743  0.9123 -0.9456 -1.4448
 2747SOL     OW10872   3.827   9.037   8.351  0.6701 -0.3224  0.4343
 2747SOL    HW110873   3.883   8.990   8.289  2.8821  1.3957  1.0009
 2747SOL    HW210874   3.821   8.979   8.427  0.3908 -1.1743 -0.2196
 2748SOL     OW10875   9.624   9.491   6.501  0.0052 -0.1631  0.3832
 2748SOL    HW110876   9.601   9.521   6.588 -2.7268 -2.4571  0.5655
 2748SOL    HW210877   9.541   9.484   6.454  1.3063  0.2749 -2.2192
 2749SOL     OW10878   3.592   4.231   3.166  0.0850 -0.1347  0.1518
 2749SOL    HW110879   3.575   4.215   3.259 -2.5345 -0.3327 -0.2909
 2749SOL    HW210880   3.654   4.163   3.141 -0.2657 -0.9620  1.4292
 2750SOL     OW10881   3.192   4.987   6.006 -0.0276  0.5405  0.6054
 2750SOL    HW110882   3.123   4.924   5.984 -0.4470  0.5192  1.8641
 2750SOL    HW210883   3.193   5.048   5.933  0.1268 -0.7066 -0.4616
 2751SOL     OW10884   5.915   3.851   6.201  0.2256  0.2100 -0.3491
 2751SOL    HW110885   5.821   3.858   6.215  0.4501  0.9832  0.9949
 2751SOL    HW210886   5.939   3.767   6.243  0.2424  0.4016  0.0324
 2752SOL     OW10887   1.217   1.861   4.333 -0.1340 -0.0120 -0.1893
 2752SOL    HW110888   1.218   1.843   4.427  1.0769 -0.1476 -0.2198
 2752SOL    HW210889   1.162   1.939   4.325  2.2960  1.9490  1.0204
 2753SOL     OW10890   7.526   6.339   4.267 -0.2444  0.5075 -0.1418
 2753SOL    HW110891   7.451   6.345   4.326 -0.4503 -0.0018 -0.3450
 2753SOL    HW210892   7.502   6.396   4.194  1.2637  3.5358  1.5396
 2754SOL     OW10893   0.443   3.819   2.865 -0.6989 -0.3043  0.5018
 2754SOL    HW110894   0.510   3.808   2.933 -0.6498  0.7701  0.6410
 2754SOL    HW210895   0.487   3.791   2.784  0.2161  1.1769  0.4564
 2755SOL     OW10896   1.581   3.882   8.126 -0.6383 -0.1481  0.1859
 2755SOL    HW110897   1.672   3.873   8.098 -0.3760  2.0781  0.1257
 2755SOL    HW210898   1.572   3.821   8.199  0.8417 -0.5255  0.0894
 2756SOL     OW10899   5.033   9.375   6.728 -0.2952 -0.1560  0.2923
 2756SOL    HW110900   4.991   9.335   6.805 -2.7953  0.9869 -0.3912
 2756SOL    HW210901   5.000   9.465   6.726  2.8102  1.0757  0.0510
 2757SOL     OW10902   9.415  10.033   1.203 -0.0587 -0.1082 -0.0570
 2757SOL    HW110903   9.493   9.999   1.159  0.1157  0.7039 -0.4089
 2757SOL    HW210904   9.388  10.107   1.149 -0.0075  0.7342  1.0270
 2758SOL     OW10905   6.068   1.795   3.013 -0.8360  0.5916 -0.0293
 2758SOL    HW110906   6.029   1.722   2.965  0.3060 -0.4434  0.5628
 2758SOL    HW210907   6.040   1.783   3.103 -0.0210  0.4260  0.2136
 2759SOL     OW10908   8.131   6.812   6.550 -0.2592  0.3264 -0.4168
 2759SOL    HW110909   8.082   6.798   6.631 -1.4445  0.6485 -1.0533
 2759SOL    HW210910   8.203   6.871   6.576 -0.5618  0.3545  0.4063
 2760SOL     OW10911  10.100   6.512   5.561 -0.2877 -0.6218  0.4101
 2760SOL    HW110912  10.142   6.597   5.550  0.2532 -0.5877  2.2939
 2760SOL    HW210913  10.113   6.491   5.654 -1.1475 -2.3721  0.1785
 2761SOL     OW10914   9.372   3.114   4.900  0.3236 -0.4506  0.1595
 2761SOL    HW110915   9.290   3.157   4.877  0.4956 -0.2522 -0.0901
 2761SOL    HW210916   9.346   3.032   4.942 -0.0041 -0.2234  0.4035
 2762SOL     OW10917   8.047   9.071   6.340 -0.2868 -0.3023  0.2174
 2762SOL    HW110918   8.018   9.000   6.283  0.1801 -0.3045 -0.0186
 2762SOL    HW210919   8.127   9.038   6.382 -0.0976  0.0608  0.1467
 2763SOL     OW10920   2.165   2.462   0.067  0.4499 -0.0461  0.4931
 2763SOL    HW110921   2.187   2.550   0.096  0.2889  0.4432 -0.7937
 2763SOL    HW210922   2.077   2.447   0.101  0.3091  0.4544  0.3515
 2764SOL     OW10923   7.723   0.346  10.100  0.1061 -0.0162 -0.0723
 2764SOL    HW110924   7.734   0.403  10.176 -1.7895  0.3596 -0.0385
 2764SOL    HW210925   7.792   0.375  10.039  0.0229  1.4281  0.4819
 2765SOL     OW10926   9.911   1.096   9.929 -0.4061 -0.3834  0.3457
 2765SOL    HW110927   9.955   1.167   9.975  0.2922  1.7028 -3.1837
 2765SOL    HW210928   9.821   1.098   9.963  0.0805  0.8822  1.6870
 2766SOL     OW10929   8.401   1.274   0.017  0.5375  0.2228 -0.0800
 2766SOL    HW110930   8.458   1.257  -0.059 -0.0007 -0.2194 -0.3950
 2766SOL    HW210931   8.456   1.322   0.078  1.5102 -0.9257 -0.0244
 2767SOL     OW10932   6.516   8.365   3.220 -0.4555  0.3157 -0.1492
 2767SOL    HW110933   6.480   8.454   3.211  0.0490  0.4587 -0.8269
 2767SOL    HW210934   6.563   8.367   3.304  1.0402  1.2479 -0.9480
 2768SOL     OW10935   1.510  10.053   3.664 -0.0078  0.2436 -0.3991
 2768SOL    HW110936   1.506  10.147   3.652 -1.0724  0.4451  1.1710
 2768SOL    HW210937   1.433  10.019   3.617  0.2951  0.1543 -0.8418
 2769SOL     OW10938  10.152   8.066   0.595  0.3725 -0.0270 -0.2679
 2769SOL    HW110939  10.133   8.055   0.688 -0.6333  0.5569 -0.4019
 2769SOL    HW210940  10.141   7.978   0.558 -1.3434  0.1465 -0.2069
 2770SOL     OW10941   8.590   5.093   2.142 -0.0313  0.1321  0.1384
 2770SOL    HW110942   8.682   5.069   2.137  0.8371  3.1461 -0.5478
 2770SOL    HW210943   8.555   5.075   2.055  0.1902 -0.0743  0.0935
 2771SOL     OW10944   4.327   6.313   0.076  0.3827  0.0817 -0.1089
 2771SOL    HW110945   4.292   6.383   0.021 -1.1865 -1.3699 -1.0371
 2771SOL    HW210946   4.317   6.346   0.166  1.0414  1.6143 -0.5586
 2772SOL     OW10947   6.057   7.766   9.320  0.1653 -0.2521 -0.1966
 2772SOL    HW110948   5.982   7.715   9.288 -1.4319  1.9511 -0.1791
 2772SOL    HW210949   6.109   7.784   9.241 -0.2665 -0.3464 -0.5098
 2773SOL     OW10950   2.553   8.311   1.023 -0.0799  0.4764  0.2605
 2773SOL    HW110951   2.545   8.278   1.113 -0.8717  0.5191  0.2094
 2773SOL    HW210952   2.472   8.285   0.980  0.7961 -0.5806 -0.8003
 2774SOL     OW10953   6.263   8.687   5.140  0.2309  0.0796  0.2007
 2774SOL    HW110954   6.325   8.638   5.194  0.3135 -0.0751 -0.0374
 2774SOL    HW210955   6.318   8.748   5.090  0.0770  0.8537  0.9549
 2775SOL     OW10956   3.997   2.734   8.303 -0.0869  0.0347  0.5312
 2775SOL    HW110957   3.956   2.653   8.333 -1.0884  0.5547  0.5850
 2775SOL    HW210958   3.964   2.746   8.214  0.7513 -0.0677  0.1954
 2776SOL     OW10959   1.045   9.761   6.904  0.2786  0.0301  0.1821
 2776SOL    HW110960   0.972   9.700   6.916 -0.0362  0.3277 -0.1999
 2776SOL    HW210961   1.100   9.719   6.838  0.7562 -0.4594  0.8660
 2777SOL     OW10962   0.273   9.128   9.835  0.3273 -0.4420 -0.1602
 2777SOL    HW110963   0.308   9.085   9.757 -0.3299 -0.8315 -0.2445
 2777SOL    HW210964   0.188   9.163   9.808 -0.1433 -1.0414  0.5132
 2778SOL     OW10965   6.837   2.915   0.445  0.2011 -0.6220  0.2600
 2778SOL    HW110966   6.905   2.965   0.490 -1.1735  1.2866  0.3500
 2778SOL    HW210967   6.765   2.911   0.507 -1.1717  0.7624 -1.1349
 2779SOL     OW10968   1.602   9.281   7.893 -0.5992 -0.2871  0.3133
 2779SOL    HW110969   1.579   9.355   7.950 -0.4081 -2.2958  3.2657
 2779SOL    HW210970   1.690   9.301   7.861 -0.0134  0.2415  2.1374
 2780SOL     OW10971   2.382   2.764   5.907  0.1713  0.1297  0.1498
 2780SOL    HW110972   2.393   2.843   5.854 -0.4382 -1.4236 -2.5186
 2780SOL    HW210973   2.467   2.721   5.903 -0.2753 -0.6986 -0.8588
 2781SOL     OW10974   9.141   6.279   0.189  0.5021 -0.1848 -0.1594
 2781SOL    HW110975   9.097   6.355   0.153 -0.9080 -1.3894 -1.1076
 2781SOL    HW210976   9.234   6.294   0.171  0.0330  0.1893 -2.6463
 2782SOL     OW10977   2.409   5.076   2.528  0.1140 -1.1566 -0.2395
 2782SOL    HW110978   2.344   5.146   2.521 -0.3688 -1.6403 -0.7862
 2782SOL    HW210979   2.359   5.000   2.558  1.0600 -0.6923  2.8896
 2783SOL     OW10980   4.716   3.483   3.516 -0.1502  0.6511 -0.2294
 2783SOL    HW110981   4.772   3.414   3.480 -0.7081 -0.6507  1.2806
 2783SOL    HW210982   4.750   3.564   3.478  1.7240 -0.2640 -0.6059
 2784SOL     OW10983   0.396   3.762   8.040  0.0899  0.5423 -0.4758
 2784SOL    HW110984   0.423   3.840   8.089  0.4758  0.3601 -0.3916
 2784SOL    HW210985   0.381   3.695   8.107  1.3763  0.0626 -0.6316
 2785SOL     OW10986   0.806   5.920   8.820  0.5214 -0.3613  0.2348
 2785SOL    HW110987   0.882   5.961   8.779  0.1821 -0.7287 -0.7776
 2785SOL    HW210988   0.742   5.910   8.750 -0.9643  1.0473  1.2979
 2786SOL     OW10989   4.886   8.389   1.804 -0.2939 -0.6332  0.3271
 2786SOL    HW110990   4.959   8.448   1.785  0.2835 -1.1694  0.8471
 2786SOL    HW210991   4.812   8.427   1.756  0.1262  0.3684  0.4420
 2787SOL     OW10992   5.822   8.916   0.846  0.2184 -0.3533  0.2476
 2787SOL    HW110993   5.901   8.872   0.814  0.1663  0.6344 -1.3105
 2787SOL    HW210994   5.849   9.006   0.861 -0.9690  0.4141 -1.9174
 2788SOL     OW10995   5.713   1.402   7.956 -0.1671  0.0643 -0.4327
 2788SOL    HW110996   5.630   1.354   7.958  0.1635 -0.5717 -1.2153
 2788SOL    HW210997   5.739   1.408   8.048 -0.6042 -0.5917 -0.2538
 2789SOL     OW10998   0.190   6.051   4.125 -0.7850 -0.1782  0.2335
 2789SOL    HW110999   0.127   6.009   4.183 -0.1350 -2.1984 -0.4361
 2789SOL    HW211000   0.276   6.028   4.161 -0.3932  0.7574 -0.0533
 2790SOL     OW11001   5.993   7.423   5.203 -0.1227 -0.2527 -0.0321
 2790SOL    HW111002   6.079   7.440   5.242  0.9691 -3.2844 -0.8271
 2790SOL    HW211003   6.012   7.396   5.114 -1.8931 -1.1610 -0.1826
 2791SOL     OW11004  10.144   6.489   5.837 -0.4095  0.4321 -0.3190
 2791SOL    HW111005  10.238   6.490   5.855 -0.0137  0.2559 -2.1602
 2791SOL    HW211006  10.117   6.581   5.842 -0.4901  0.3334  1.7147
 2792SOL     OW11007   0.628   1.698   8.325 -0.4442 -0.3229 -0.5977
 2792SOL    HW111008   0.551   1.748   8.299 -0.5480 -0.5997 -0.8379
 2792SOL    HW211009   0.669   1.750   8.394 -1.9877 -1.1459  1.0257
 2793SOL     OW11010   1.133   6.266   0.069  0.0305 -0.3010 -0.3577
 2793SOL    HW111011   1.116   6.201   0.138  0.5268  0.3541  0.3914
 2793SOL    HW211012   1.188   6.219   0.007  1.5290 -0.2173  0.8560
 2794SOL     OW11013   3.035   7.155   4.792 -0.3532 -0.1417  0.2277
 2794SOL    HW111014   3.077   7.085   4.843 -0.2170  0.0399  0.3672
 2794SOL    HW211015   2.973   7.110   4.735 -1.8276 -0.2201  1.8261
 2795SOL     OW11016   6.581   4.605   0.897 -0.2503  0.4843  0.3599
 2795SOL    HW111017   6.579   4.579   0.990  0.1215  0.4697  0.3665
 2795SOL    HW211018   6.606   4.697   0.899 -2.8054  1.2621  0.4078
 2796SOL     OW11019   0.079   8.559   1.046 -0.3892  0.2956 -0.4455
 2796SOL    HW111020   0.108   8.508   0.970  0.8761  0.0608  0.1682
 2796SOL    HW211021   0.156   8.563   1.103 -1.2634  0.6294  0.7466
 2797SOL     OW11022   7.933  10.230   9.130 -0.4699  0.3412 -0.1771
 2797SOL    HW111023   7.930  10.168   9.057 -1.1415  0.4561 -0.2509
 2797SOL    HW211024   7.842  10.244   9.154 -0.2292 -0.2639  1.1772
 2798SOL     OW11025   3.378   1.214   6.484  0.6308 -0.2841  0.2094
 2798SOL    HW111026   3.425   1.132   6.498 -0.2583 -1.1221 -1.4345
 2798SOL    HW211027   3.339   1.205   6.397 -1.3497  0.9630  0.8902
 2799SOL     OW11028   1.885   7.529   8.206  0.1015  0.4933 -0.2150
 2799SOL    HW111029   1.945   7.574   8.146  0.9922  0.8864  0.9194
 2799SOL    HW211030   1.798   7.548   8.171  0.5925  0.4356 -1.5493
 2800SOL     OW11031   2.427  10.012   3.414 -0.3981  0.3442 -0.1263
 2800SOL    HW111032   2.500  10.071   3.428 -1.1144  1.1601  0.2172
 2800SOL    HW211033   2.451   9.932   3.461  0.3101  0.5639 -0.1080
 2801SOL     OW11034   7.094   1.404   7.897  0.4746 -0.1990  0.0472
 2801SOL    HW111035   7.092   1.468   7.967  0.3201 -0.5287  0.3454
 2801SOL    HW211036   7.033   1.336   7.924  1.2062 -0.8532  0.0957
 2802SOL     OW11037   4.806   3.930   6.556 -0.0395  0.3679  0.0454
 2802SOL    HW111038   4.838   3.841   6.574  1.4603  0.7232 -0.7377
 2802SOL    HW211039   4.711   3.919   6.548  0.1513 -1.2494 -0.4775
 2803SOL     OW11040   6.525   9.091   2.698  0.1801  0.7223 -0.5309
 2803SOL    HW111041   6.614   9.065   2.719 -0.6825 -0.6738  1.9026
 2803SOL    HW211042   6.503   9.043   2.619  1.8084  1.7266 -1.6309
 2804SOL     OW11043   5.220   3.200   0.427 -0.9989 -0.0884 -0.2354
 2804SOL    HW111044   5.261   3.282   0.453 -2.4002  0.2848  0.8988
 2804SOL    HW211045   5.146   3.226   0.372  0.3356 -0.7627 -2.5075
 2805SOL     OW11046   3.435  10.215  10.118 -0.2463 -0.2558 -0.5042
 2805SOL    HW111047   3.419  10.121  10.113  1.2037 -0.5215 -0.7638
 2805SOL    HW211048   3.528  10.221  10.143 -0.5298  1.1037  0.3244
 2806SOL     OW11049   3.148   8.024   9.741 -1.3743  0.2023 -0.6018
 2806SOL    HW111050   3.089   7.958   9.705 -0.1270 -0.6774 -1.1234
 2806SOL    HW211051   3.128   8.104   9.692 -0.6851 -0.6230 -2.3285
 2807SOL     OW11052   4.936   5.469   3.142 -0.4003 -0.0050 -0.2220
 2807SOL    HW111053   4.845   5.486   3.166 -0.8925 -0.3574 -1.7081
 2807SOL    HW211054   4.943   5.502   3.052  1.5070  1.8701  0.5249
 2808SOL     OW11055   5.122   6.744   8.833 -0.1477  0.2820  0.2248
 2808SOL    HW111056   5.059   6.816   8.845 -0.8371  0.3723 -2.8944
 2808SOL    HW211057   5.188   6.781   8.774  0.2854 -1.2027 -0.2509
 2809SOL     OW11058   9.537   6.701   4.153 -0.0737 -0.0852  0.1366
 2809SOL    HW111059   9.484   6.707   4.232 -1.5608 -0.3997 -0.7930
 2809SOL    HW211060   9.476   6.673   4.085  0.1327  4.0520 -2.1027
 2810SOL     OW11061   4.080   0.737   1.899  0.7391  0.0007 -0.4867
 2810SOL    HW111062   4.037   0.657   1.929 -0.0168  0.7420  0.4658
 2810SOL    HW211063   4.011   0.803   1.899  1.6050  0.9423 -0.0549
 2811SOL     OW11064   9.292   9.181   7.381  0.1608 -0.1137  0.3147
 2811SOL    HW111065   9.329   9.149   7.299 -0.6202 -2.0268  0.6712
 2811SOL    HW211066   9.197   9.180   7.367  0.0630  0.6158  0.8694
 2812SOL     OW11067   6.996   2.925   9.363 -0.7051  0.2401  0.0050
 2812SOL    HW111068   7.018   2.833   9.375 -0.8150 -0.0748 -1.9930
 2812SOL    HW211069   6.923   2.925   9.301 -1.9926  1.6039  1.3963
 2813SOL     OW11070   0.247   0.277   3.441  0.1064  0.0224  0.1247
 2813SOL    HW111071   0.240   0.337   3.516  1.6059 -0.6141  0.8116
 2813SOL    HW211072   0.285   0.331   3.371  2.3640 -0.2801  1.0241
 2814SOL     OW11073   6.067   2.984   3.905 -0.1153  0.3043 -0.1450
 2814SOL    HW111074   6.023   3.006   3.824 -0.6617 -2.2186 -0.6323
 2814SOL    HW211075   6.159   2.972   3.880 -0.3431 -0.8281 -0.5295
 2815SOL     OW11076   5.653   3.970  10.101  0.2287  0.1353 -0.0754
 2815SOL    HW111077   5.651   4.015  10.017  0.6413  1.5966  0.6635
 2815SOL    HW211078   5.565   3.932  10.110  0.1962 -0.0704 -1.1644
 2816SOL     OW11079   1.325   7.084   3.084 -0.4903  0.2177  0.4247
 2816SOL    HW111080   1.261   7.142   3.042 -0.5091  0.5529  0.9041
 2816SOL    HW211081   1.335   7.120   3.172 -0.4011 -0.4385  0.6870
 2817SOL     OW11082   0.059   8.516   9.633  0.1626  0.0775 -0.1113
 2817SOL    HW111083   0.109   8.511   9.715  1.3620 -2.1016 -0.9052
 2817SOL    HW211084  -0.032   8.523   9.661  0.4401 -1.8173  1.4568
 2818SOL     OW11085   3.473   0.269   7.756  0.1431 -0.2159  0.0782
 2818SOL    HW111086   3.540   0.281   7.823 -0.6255 -1.5185  1.1243
 2818SOL    HW211087   3.495   0.186   7.714 -1.8929 -1.7545  1.8305
 2819SOL     OW11088   0.563   6.083   8.059 -0.6626  0.1686  0.4905
 2819SOL    HW111089   0.486   6.117   8.015 -0.0161  1.0317 -0.0093
 2819SOL    HW211090   0.541   5.993   8.081 -0.9122 -0.4141 -1.8919
 2820SOL     OW11091   9.162   5.746   0.229 -0.4968 -0.0527 -0.6945
 2820SOL    HW111092   9.114   5.667   0.204 -0.8192 -0.2862  0.5644
 2820SOL    HW211093   9.218   5.718   0.302  0.0646  0.6764 -0.8333
 2821SOL     OW11094   7.000   4.384   6.560  0.3962 -0.4793  0.2387
 2821SOL    HW111095   7.026   4.302   6.517 -0.3520 -1.6133  1.8439
 2821SOL    HW211096   7.082   4.419   6.595  0.9720  0.3127 -1.7546
 2822SOL     OW11097   6.756   7.168   7.638  0.8545 -0.2780 -0.8168
 2822SOL    HW111098   6.784   7.113   7.565 -0.1017 -0.4302 -1.0765
 2822SOL    HW211099   6.686   7.119   7.680  0.0996  0.6671 -0.9525
 2823SOL     OW11100   6.806   0.054   0.673  0.3958 -0.0634 -0.3524
 2823SOL    HW111101   6.761   0.102   0.603 -1.8860 -0.4965  0.7226
 2823SOL    HW211102   6.862   0.119   0.715 -0.0881  0.8124 -1.0298
 2824SOL     OW11103   8.148   1.562   4.381 -0.2273  0.1807  0.2260
 2824SOL    HW111104   8.082   1.616   4.424  1.1421  1.0085  1.4071
 2824SOL    HW211105   8.135   1.475   4.419 -0.4906  0.3916  0.6352
 2825SOL     OW11106   6.650   9.088   0.205  0.1581  0.0507 -0.3591
 2825SOL    HW111107   6.677   9.037   0.129  0.3836  1.0600 -0.9692
 2825SOL    HW211108   6.554   9.078   0.207  0.1163  0.2610 -0.9619
 2826SOL     OW11109   0.606   1.282   1.161  0.6311  0.2853  0.2604
 2826SOL    HW111110   0.539   1.349   1.149 -0.4423 -0.0455  3.4318
 2826SOL    HW211111   0.624   1.249   1.073 -1.4686  2.1615 -0.9668
 2827SOL     OW11112   7.312   8.864   5.473 -0.2932 -0.4053  0.2464
 2827SOL    HW111113   7.352   8.787   5.434 -0.6083 -0.7843  0.6601
 2827SOL    HW211114   7.226   8.834   5.503 -1.1609  0.5419 -1.1717
 2828SOL     OW11115   9.783   8.867   9.235  0.0482  0.5976  0.3170
 2828SOL    HW111116   9.866   8.891   9.275  0.0571  0.5134  0.3500
 2828SOL    HW211117   9.728   8.839   9.309 -0.1191  0.9672  0.3373
 2829SOL     OW11118   2.547   7.748   5.206 -0.2450 -0.0050  0.3360
 2829SOL    HW111119   2.628   7.715   5.168 -1.1225 -1.2459 -0.5286
 2829SOL    HW211120   2.569   7.767   5.297  1.6086  1.9398 -0.4291
 2830SOL     OW11121   5.849   7.712   9.559  0.0085 -0.4819 -0.5584
 2830SOL    HW111122   5.838   7.654   9.484  1.2465 -0.4629 -0.7729
 2830SOL    HW211123   5.907   7.782   9.528  0.9494 -0.7411  0.5230
 2831SOL     OW11124   9.622   6.981   5.439 -0.7002 -0.3253  0.0292
 2831SOL    HW111125   9.657   6.894   5.458  1.4337  0.6062  0.7484
 2831SOL    HW211126   9.531   6.966   5.413 -0.9334 -2.5810  1.8374
 2832SOL     OW11127   2.126   3.840   8.040  0.1635 -0.0348 -0.3607
 2832SOL    HW111128   2.106   3.894   7.964 -1.5916  1.0114  0.7644
 2832SOL    HW211129   2.196   3.887   8.086 -0.5890  0.7243  0.0287
 2833SOL     OW11130   1.079   4.615   7.073  0.2133  0.1139 -0.0912
 2833SOL    HW111131   1.065   4.521   7.072  2.9702 -0.3740 -0.9677
 2833SOL    HW211132   1.112   4.634   7.161 -1.2305  0.4602  0.4007
 2834SOL     OW11133   3.693   9.931  10.082 -0.0872 -0.4045  0.3249
 2834SOL    HW111134   3.618   9.880  10.112 -0.3084  0.3077  1.0438
 2834SOL    HW211135   3.675   9.948   9.990  0.1185 -1.8148  0.0038
 2835SOL     OW11136   1.724   9.975   0.075  0.4999 -0.0624  0.7523
 2835SOL    HW111137   1.810   9.980   0.033  0.5889  0.9806  1.0290
 2835SOL    HW211138   1.732  10.030   0.153 -0.2471 -0.4164  1.0853
 2836SOL     OW11139   1.821   9.775   6.313  0.2705  0.3273 -0.0563
 2836SOL    HW111140   1.795   9.856   6.269  1.6434  0.3743 -0.8080
 2836SOL    HW211141   1.798   9.706   6.251  0.8043  0.2791 -0.1985
 2837SOL     OW11142   1.943   5.098   8.420  0.1329 -0.3723  0.1136
 2837SOL    HW111143   1.999   5.164   8.461  1.1709 -0.9153 -0.4188
 2837SOL    HW211144   1.872   5.149   8.381  0.0326  0.2868  1.1170
 2838SOL     OW11145   5.881   2.731   1.298  0.1433  0.3410 -0.0760
 2838SOL    HW111146   5.927   2.789   1.236  0.2045 -0.0989 -0.4455
 2838SOL    HW211147   5.884   2.778   1.381 -0.3232  1.1471 -0.4995
 2839SOL     OW11148   9.836   0.570   9.901  0.7407 -0.0536 -0.3146
 2839SOL    HW111149   9.799   0.513   9.969  2.8662  0.3052  1.2519
 2839SOL    HW211150   9.868   0.647   9.949  1.7289  0.5000 -1.8007
 2840SOL     OW11151   5.107   6.572   4.278  0.2190  0.1396  0.6226
 2840SOL    HW111152   5.186   6.536   4.318  0.1072 -0.3451  0.4194
 2840SOL    HW211153   5.046   6.585   4.351  0.9468  1.8026  0.9743
 2841SOL     OW11154  10.138   8.241   3.615  0.7149  0.2913 -0.2989
 2841SOL    HW111155  10.197   8.301   3.570  0.4215  1.2015  0.5159
 2841SOL    HW211156  10.060   8.293   3.635  1.4504  0.4493  2.7117
 2842SOL     OW11157   7.302   2.462   4.233  0.1516 -0.4000  0.1411
 2842SOL    HW111158   7.306   2.391   4.298  0.7693  0.7156  1.3547
 2842SOL    HW211159   7.211   2.491   4.236 -0.0005 -0.8390 -0.0464
 2843SOL     OW11160   5.854   0.715   6.359 -0.0350  0.1703  0.2148
 2843SOL    HW111161   5.816   0.757   6.282  0.0102 -0.8107 -0.3529
 2843SOL    HW211162   5.944   0.747   6.362  0.1947 -0.3822 -0.5917
 2844SOL     OW11163   7.654   5.186   5.388 -0.0335  0.4237  0.5759
 2844SOL    HW111164   7.696   5.193   5.474 -0.7717  0.0347  0.9683
 2844SOL    HW211165   7.727   5.175   5.327  0.5316  1.1922  1.0862
 2845SOL     OW11166   3.219   8.505   1.474 -0.3571  0.7273  0.1598
 2845SOL    HW111167   3.161   8.572   1.511  0.0106  1.2342 -0.1612
 2845SOL    HW211168   3.167   8.425   1.473 -1.2657  1.3113 -0.7216
 2846SOL     OW11169   9.741   7.053   1.487  0.6419  0.4862 -0.1679
 2846SOL    HW111170   9.808   7.033   1.420  2.3539  0.0965  1.5719
 2846SOL    HW211171   9.735   6.973   1.539 -2.0739  0.1154 -0.9343
 2847SOL     OW11172   3.913   0.358  10.049  0.3512 -0.4627  0.1136
 2847SOL    HW111173   3.910   0.335  10.142  3.2133  0.0030  0.4111
 2847SOL    HW211174   3.882   0.280  10.004  0.5813 -1.3352  1.4143
 2848SOL     OW11175   7.024   4.385   2.946 -0.3339  0.1636  0.4460
 2848SOL    HW111176   7.010   4.444   2.872  0.1220  1.1399  1.1080
 2848SOL    HW211177   7.090   4.323   2.916 -1.1545 -0.3109 -0.4234
 2849SOL     OW11178   1.435   8.434   0.208  0.0739  0.3419 -0.0129
 2849SOL    HW111179   1.426   8.405   0.117 -2.1448  0.3697  0.1490
 2849SOL    HW211180   1.518   8.397   0.237  2.7626  3.2523 -3.0997
 2850SOL     OW11181   9.190   2.527   0.223 -0.1850 -0.0711  0.5815
 2850SOL    HW111182   9.144   2.594   0.274  0.2758  0.5043  0.2475
 2850SOL    HW211183   9.165   2.544   0.132  0.3997  0.0173  0.4354
 2851SOL     OW11184   8.243   8.963   7.414  0.0927  0.2017 -0.1183
 2851SOL    HW111185   8.337   8.973   7.428  0.2476 -1.7340  0.6440
 2851SOL    HW211186   8.210   8.930   7.497 -0.9954 -0.5530 -0.8228
 2852SOL     OW11187   5.782   5.094   2.322  0.3283  0.1315  0.0804
 2852SOL    HW111188   5.852   5.156   2.342  0.8790  0.3780 -2.3934
 2852SOL    HW211189   5.797   5.021   2.383  1.1816  1.2775  1.3025
 2853SOL     OW11190   9.379   1.407   9.467  0.4220  0.3505  0.3965
 2853SOL    HW111191   9.351   1.474   9.405 -2.3782 -1.7236 -0.7627
 2853SOL    HW211192   9.465   1.379   9.434  0.1146  1.0179 -1.0575
 2854SOL     OW11193   6.952   5.765   6.111  0.1599 -0.0317  0.1493
 2854SOL    HW111194   6.888   5.834   6.130 -0.3419 -0.9967  2.3094
 2854SOL    HW211195   7.007   5.802   6.042 -1.0275  1.9132  0.1615
 2855SOL     OW11196  10.350   1.314   5.129 -0.1398 -0.0750  0.3748
 2855SOL    HW111197  10.347   1.381   5.197  0.1146 -1.0636  1.3779
 2855SOL    HW211198  10.356   1.364   5.047  1.0100  1.1249  1.1447
 2856SOL     OW11199   3.608   1.525   7.921 -0.1935  0.3279 -0.4773
 2856SOL    HW111200   3.543   1.546   7.988  1.4837  1.8640  0.7865
 2856SOL    HW211201   3.628   1.433   7.935 -1.0784  0.1990  0.0191
 2857SOL     OW11202   1.401   2.881   1.411 -0.5558  0.2403  0.0593
 2857SOL    HW111203   1.357   2.861   1.329 -0.0662 -1.0667  0.0966
 2857SOL    HW211204   1.425   2.796   1.448  0.6365  0.8511  0.7807
 2858SOL     OW11205   7.323   7.544   1.177  0.1355  0.6172 -0.2303
 2858SOL    HW111206   7.323   7.545   1.273  0.1153 -3.1912 -0.0447
 2858SOL    HW211207   7.415   7.547   1.153  0.1745  0.8655 -0.0540
 2859SOL     OW11208   8.439   7.179   8.890  0.3777 -0.3225 -0.5832
 2859SOL    HW111209   8.392   7.157   8.970  1.3933  0.1848  0.1739
 2859SOL    HW211210   8.416   7.108   8.829 -0.5484 -0.6170  0.0826
 2860SOL     OW11211   6.949   6.650   1.121  0.3901  0.6009 -0.1448
 2860SOL    HW111212   7.007   6.700   1.064 -1.2486  2.1743 -0.5095
 2860SOL    HW211213   6.993   6.649   1.206  2.4169 -0.9873 -1.1298
 2861SOL     OW11214   8.621   0.824   5.398 -0.7491 -0.0855 -0.6848
 2861SOL    HW111215   8.532   0.804   5.424  0.2873 -2.4210  1.4177
 2861SOL    HW211216   8.634   0.774   5.317 -1.2373  0.0743 -0.8663
 2862SOL     OW11217   5.775   2.510   9.511  0.3178  0.4312  0.7043
 2862SOL    HW111218   5.835   2.443   9.477  0.3258  0.5236  0.5343
 2862SOL    HW211219   5.715   2.463   9.568  0.7060  0.3734  1.0705
 2863SOL     OW11220   1.504   2.338   0.227  0.5240  0.0352 -0.1855
 2863SOL    HW111221   1.472   2.324   0.138  0.2101 -3.3411  0.3055
 2863SOL    HW211222   1.504   2.433   0.239 -0.2421  0.5555 -3.4500
 2864SOL     OW11223   8.851   6.873   9.765 -0.0569 -0.3087 -0.9005
 2864SOL    HW111224   8.863   6.885   9.671 -0.1486 -0.6604 -0.9595
 2864SOL    HW211225   8.821   6.958   9.797 -1.4691 -0.5767 -1.4242
 2865SOL     OW11226   0.360   9.858   9.441  0.3504  0.1825 -0.6488
 2865SOL    HW111227   0.274   9.898   9.433 -0.0797 -0.9188 -2.0777
 2865SOL    HW211228   0.407   9.912   9.504 -0.8350  1.7705 -1.0770
 2866SOL     OW11229   4.395   7.631   6.542 -0.0065  0.2922 -0.3165
 2866SOL    HW111230   4.359   7.642   6.630 -1.7279 -0.3333 -0.9005
 2866SOL    HW211231   4.449   7.551   6.547 -0.4339  0.0287  0.0675
 2867SOL     OW11232   4.981   6.558   9.730 -0.2758  0.1347 -0.5301
 2867SOL    HW111233   4.954   6.576   9.640 -0.1430 -0.0754 -0.6126
 2867SOL    HW211234   4.969   6.464   9.740 -0.6802  0.2206 -0.1949
 2868SOL     OW11235   0.527   7.740   3.726 -0.0978  0.2313 -0.3147
 2868SOL    HW111236   0.505   7.788   3.646  0.6048  0.1231 -0.5804
 2868SOL    HW211237   0.563   7.657   3.695  0.5737  0.3597  0.1004
 2869SOL     OW11238   2.173   0.831   3.654  0.3116  0.4120 -0.2527
 2869SOL    HW111239   2.181   0.832   3.559  0.5043  2.1431 -0.2515
 2869SOL    HW211240   2.231   0.761   3.683  0.0080 -0.3385 -1.4178
 2870SOL     OW11241   8.401   1.827   3.515 -0.3549 -0.4311  0.4320
 2870SOL    HW111242   8.421   1.778   3.594  1.3357 -1.6238 -0.6753
 2870SOL    HW211243   8.309   1.809   3.498 -0.1722 -1.9452  0.9331
 2871SOL     OW11244   5.600   1.076   3.052  0.2446 -0.1869  0.5011
 2871SOL    HW111245   5.631   1.164   3.032 -0.3644 -0.0107  0.3070
 2871SOL    HW211246   5.679   1.021   3.048  0.4019  0.0963 -0.8951
 2872SOL     OW11247   7.232   0.189   3.368  0.4949 -0.3879  0.1302
 2872SOL    HW111248   7.313   0.138   3.371  0.5893 -0.1657  2.0580
 2872SOL    HW211249   7.243   0.258   3.433  0.1420  1.8522 -2.0069
 2873SOL     OW11250   8.714  10.119   1.297  0.6237  0.3435 -0.4525
 2873SOL    HW111251   8.713  10.025   1.279 -0.6162  0.4041 -0.7432
 2873SOL    HW211252   8.746  10.159   1.216  0.9304  0.1955 -0.4071
 2874SOL     OW11253   8.112   2.711   0.796  0.8619  0.3185  0.2300
 2874SOL    HW111254   8.066   2.722   0.712  0.4368  1.0957  0.5558
 2874SOL    HW211255   8.204   2.724   0.774  0.9756 -1.4577 -0.4684
 2875SOL     OW11256   6.726   7.567   8.042 -0.2034  0.0691 -0.0835
 2875SOL    HW111257   6.669   7.573   8.119  0.3526 -3.9061  0.8565
 2875SOL    HW211258   6.669   7.534   7.972  0.6923 -4.9174  1.1130
 2876SOL     OW11259   7.125   7.835   1.860 -0.0175 -0.7460  0.8691
 2876SOL    HW111260   7.133   7.744   1.892 -0.9709 -0.4957  1.8754
 2876SOL    HW211261   7.032   7.848   1.847  0.1859 -0.1610 -0.1179
 2877SOL     OW11262   8.619   9.862   1.997  0.2684 -0.1818 -0.0372
 2877SOL    HW111263   8.572   9.946   1.996 -0.0948 -0.3372 -2.4002
 2877SOL    HW211264   8.553   9.798   2.024  0.4590  0.2269  1.4549
 2878SOL     OW11265   8.538   1.986   8.839 -0.3140  0.5341  0.0972
 2878SOL    HW111266   8.500   1.982   8.751 -1.0804 -0.2654  0.4556
 2878SOL    HW211267   8.506   1.908   8.883  2.0113 -0.3380  0.3415
 2879SOL     OW11268   6.094   2.189   6.378  0.3531  0.3024 -0.0398
 2879SOL    HW111269   6.022   2.248   6.358  0.1056  1.1193  2.7868
 2879SOL    HW211270   6.169   2.247   6.394  1.3580 -0.4670 -1.6929
 2880SOL     OW11271   3.295   7.662   7.248 -0.0186  0.0991  0.0608
 2880SOL    HW111272   3.267   7.727   7.183 -1.5175  1.1001  1.6404
 2880SOL    HW211273   3.228   7.664   7.316  1.5045 -0.8946  1.6979
 2881SOL     OW11274   3.466   2.328   9.214  0.3696 -0.3358 -0.6018
 2881SOL    HW111275   3.453   2.238   9.243  1.0562 -2.1348 -4.9757
 2881SOL    HW211276   3.400   2.341   9.146  1.8509  1.5034 -1.7961
 2882SOL     OW11277   2.550   3.480   9.096 -0.1067  0.5476 -0.2702
 2882SOL    HW111278   2.490   3.553   9.113 -0.3769 -0.2298  2.6294
 2882SOL    HW211279   2.626   3.498   9.150 -1.8779 -3.1834  4.0908
 2883SOL     OW11280   6.076   7.270   2.419 -0.4919 -0.2675 -0.3862
 2883SOL    HW111281   5.983   7.286   2.434 -0.0597  1.4708  0.7527
 2883SOL    HW211282   6.113   7.357   2.406  1.3666 -0.6667  1.6759
 2884SOL     OW11283   6.246   9.738   1.629  0.5227  0.3218 -0.0173
 2884SOL    HW111284   6.152   9.743   1.610  0.8058 -0.4403 -1.8015
 2884SOL    HW211285   6.279   9.826   1.610  0.6066 -0.1276 -2.2964
 2885SOL     OW11286   6.179   0.640   3.771 -0.5065 -0.3886 -0.0632
 2885SOL    HW111287   6.137   0.591   3.842  1.6325 -2.5559 -0.1398
 2885SOL    HW211288   6.168   0.584   3.694  2.4471 -1.1421 -0.0607
 2886SOL     OW11289   9.679   7.349   7.645  0.2287 -0.2818 -0.2242
 2886SOL    HW111290   9.663   7.265   7.601  2.6467 -0.5555 -0.7097
 2886SOL    HW211291   9.744   7.328   7.712 -1.0593  0.7552  1.4362
 2887SOL     OW11292   8.958   1.913  10.278  0.0109 -0.1882  0.2937
 2887SOL    HW111293   8.956   1.881  10.188  2.5549  0.1201  0.0479
 2887SOL    HW211294   9.002   1.998  10.273  0.4817 -0.3026  1.8477
 2888SOL     OW11295   2.523   1.876   8.270 -0.2970  0.0605 -0.0171
 2888SOL    HW111296   2.607   1.911   8.301  0.4827 -0.5872 -1.3213
 2888SOL    HW211297   2.469   1.953   8.256  0.4508  0.5650 -0.1845
 2889SOL     OW11298   0.304   8.770   2.219 -0.0855  0.3870 -0.0263
 2889SOL    HW111299   0.264   8.683   2.230 -2.7675  1.7347  2.2004
 2889SOL    HW211300   0.328   8.773   2.127  1.9742 -3.3797  0.1646
 2890SOL     OW11301   8.683   6.835   8.724  0.4301 -0.0390  0.5344
 2890SOL    HW111302   8.692   6.827   8.819 -0.4892 -2.2390  0.5104
 2890SOL    HW211303   8.738   6.765   8.689  3.8878  3.0530 -0.8560
 2891SOL     OW11304   8.065   2.427   0.164 -0.4930  0.5811 -0.0781
 2891SOL    HW111305   8.148   2.427   0.212 -0.3436  0.1447 -0.3291
 2891SOL    HW211306   8.000   2.397   0.228 -0.5382  1.3843  0.2524
 2892SOL     OW11307   6.758   0.068   9.674  0.4028  0.5196 -0.2386
 2892SOL    HW111308   6.816   0.060   9.751  0.9500 -0.3656 -0.7252
 2892SOL    HW211309   6.793   0.005   9.612  1.1676  2.5542 -1.9996
 2893SOL     OW11310   6.341   4.464   1.273  0.1679  0.5651  0.0201
 2893SOL    HW111311   6.319   4.495   1.185  0.8377  0.1615 -0.3014
 2893SOL    HW211312   6.401   4.531   1.307 -0.0133  0.6705  0.1349
 2894SOL     OW11313   9.988   5.108   9.764 -0.4969 -0.1989  0.0614
 2894SOL    HW111314  10.035   5.127   9.682 -1.0622  2.1904  0.2061
 2894SOL    HW211315  10.047   5.050   9.812  0.6027 -0.3059 -1.3268
 2895SOL     OW11316   2.493   6.571   9.129 -0.5721  0.3836  0.4297
 2895SOL    HW111317   2.542   6.646   9.162  0.4265  0.0947 -0.3456
 2895SOL    HW211318   2.497   6.580   9.034 -1.2321 -0.1550  0.3474
 2896SOL     OW11319   3.839   8.574   2.816  0.5121 -0.4247 -0.0524
 2896SOL    HW111320   3.800   8.500   2.771  0.6501 -0.6203  0.1463
 2896SOL    HW211321   3.843   8.644   2.750 -1.1745 -0.0462  0.2155
 2897SOL     OW11322   9.313   1.106   8.891  0.1953  0.0954 -0.0993
 2897SOL    HW111323   9.235   1.053   8.902  0.7020 -0.6969 -0.2182
 2897SOL    HW211324   9.366   1.089   8.969  0.0621  0.9671  0.1955
 2898SOL     OW11325   8.981   8.522   5.494  0.0062 -0.5403  0.0097
 2898SOL    HW111326   9.063   8.484   5.465  0.0221  0.9197 -2.0095
 2898SOL    HW211327   9.006   8.587   5.559  0.3713 -0.6068 -0.0656
 2899SOL     OW11328   5.912   5.078   1.797  0.0805  0.4123  0.1479
 2899SOL    HW111329   5.893   5.073   1.890 -0.2672  3.1239  0.2995
 2899SOL    HW211330   5.827   5.086   1.755  0.2479 -0.5766 -0.4081
 2900SOL     OW11331   5.176   2.083   5.618 -0.0259 -0.7222 -0.2492
 2900SOL    HW111332   5.184   2.054   5.527 -0.9211 -0.7661 -0.3204
 2900SOL    HW211333   5.082   2.096   5.631  0.2232  0.7588  0.2194
 2901SOL     OW11334   4.320  10.167   7.842  0.4842  0.3564 -0.6501
 2901SOL    HW111335   4.296  10.095   7.783  0.6155  0.4132 -0.7742
 2901SOL    HW211336   4.289  10.139   7.928  2.9552 -1.1308 -0.1219
 2902SOL     OW11337   4.371   2.165   7.377  0.0342 -0.2354  0.1164
 2902SOL    HW111338   4.389   2.085   7.329  1.3285 -0.1764  0.4768
 2902SOL    HW211339   4.388   2.235   7.314  0.7754 -0.1880  0.3674
 2903SOL     OW11340   6.291   4.408   7.400 -0.1590 -0.4888  0.2373
 2903SOL    HW111341   6.305   4.502   7.413  0.2452 -0.7286  1.6809
 2903SOL    HW211342   6.205   4.391   7.439 -0.6265 -0.5767 -0.8065
 2904SOL     OW11343   0.779   8.945   0.343 -0.1378 -0.8318 -0.6981
 2904SOL    HW111344   0.790   8.855   0.374 -0.3231 -0.3036  0.9473
 2904SOL    HW211345   0.854   8.992   0.377  0.4254 -0.5241 -2.2977
 2905SOL     OW11346   6.351   6.408   6.084 -0.3092 -0.6082  0.6960
 2905SOL    HW111347   6.334   6.325   6.127 -1.3799  0.1249  1.7332
 2905SOL    HW211348   6.341   6.389   5.990 -0.3597 -1.6687  0.9057
 2906SOL     OW11349   0.386   2.235   3.718  0.2480 -0.2177 -0.3093
 2906SOL    HW111350   0.290   2.233   3.717  0.2007  1.0270  0.3598
 2906SOL    HW211351   0.410   2.290   3.644  0.3527  1.2589  0.7871
 2907SOL     OW11352   2.698   7.747   9.356  0.2644  0.2655  0.2006
 2907SOL    HW111353   2.791   7.745   9.334  0.2328 -0.4882  0.0874
 2907SOL    HW211354   2.663   7.820   9.306  0.5315 -0.3313 -0.9046
 2908SOL     OW11355   2.249   1.639   7.152  0.2253 -0.7287 -0.1388
 2908SOL    HW111356   2.304   1.578   7.201  0.4634  0.2113  0.8011
 2908SOL    HW211357   2.207   1.693   7.219  0.8853  0.8742 -0.9681
 2909SOL     OW11358   8.223   6.980   1.350 -0.1560 -0.1449  0.0084
 2909SOL    HW111359   8.312   6.973   1.383 -0.2524  1.7156  0.7671
 2909SOL    HW211360   8.231   7.029   1.268 -0.6463  1.8691  1.1190
 2910SOL     OW11361   8.837   5.526   4.417 -0.0840  0.0105 -0.4654
 2910SOL    HW111362   8.929   5.550   4.406 -0.8217  3.6013 -0.0438
 2910SOL    HW211363   8.792   5.571   4.345 -1.8332  1.0154  1.1768
 2911SOL     OW11364   7.531   2.182   7.885 -0.1809  0.5714  0.2996
 2911SOL    HW111365   7.546   2.093   7.915 -0.6504 -0.4902 -2.3352
 2911SOL    HW211366   7.612   2.229   7.906  0.5551 -0.8046  0.6265
 2912SOL     OW11367   5.765   0.816   6.100  0.0805 -0.9162 -0.0912
 2912SOL    HW111368   5.699   0.882   6.122 -0.9180 -1.2314 -1.8871
 2912SOL    HW211369   5.823   0.860   6.038 -0.3262 -1.5421 -0.9484
 2913SOL     OW11370   5.539   5.821   5.149 -0.3642 -0.1727 -0.0915
 2913SOL    HW111371   5.552   5.748   5.087 -0.5171  0.3420 -0.7415
 2913SOL    HW211372   5.583   5.792   5.229  1.3194 -0.1543 -0.9621
 2914SOL     OW11373   8.692   1.045   2.077  0.0674 -0.0112 -0.4114
 2914SOL    HW111374   8.671   1.121   2.131 -0.4163 -0.4712  0.0734
 2914SOL    HW211375   8.781   1.021   2.101  1.1519  1.7990 -2.2811
 2915SOL     OW11376   4.697   6.455   3.160  0.3018  0.3646 -0.0526
 2915SOL    HW111377   4.709   6.476   3.067 -0.3902  0.6780 -0.0808
 2915SOL    HW211378   4.676   6.539   3.201  2.2375  0.5299  0.7006
 2916SOL     OW11379   3.734   2.332   1.764  0.2095 -0.1922  0.3589
 2916SOL    HW111380   3.688   2.371   1.839 -0.7754  1.4292 -1.0135
 2916SOL    HW211381   3.668   2.275   1.723 -0.8578  2.3783 -1.7969
 2917SOL     OW11382   6.156   3.395   5.615 -0.1771 -0.1560  0.0426
 2917SOL    HW111383   6.119   3.353   5.692 -1.3661  2.5886  1.0990
 2917SOL    HW211384   6.080   3.430   5.567  0.7099  0.9278 -0.6387
 2918SOL     OW11385   3.593   3.225   4.488  0.4024 -0.2287 -0.1845
 2918SOL    HW111386   3.606   3.156   4.424 -1.7851 -0.4225 -0.4962
 2918SOL    HW211387   3.629   3.189   4.569  1.4059 -0.7682 -0.8490
 2919SOL     OW11388   3.676   2.699   9.494  0.5752 -0.0399  0.3404
 2919SOL    HW111389   3.705   2.770   9.551  0.4500 -0.2463  0.6630
 2919SOL    HW211390   3.586   2.723   9.470 -0.0804 -0.9045  1.7961
 2920SOL     OW11391   7.948   0.523   4.934 -0.1969 -0.1688 -0.1272
 2920SOL    HW111392   7.923   0.431   4.948 -1.0120  0.1476  0.5603
 2920SOL    HW211393   7.917   0.543   4.846  0.5168 -0.7201 -0.5173
 2921SOL     OW11394   8.009   3.059   9.549  0.4935  0.4703 -0.2504
 2921SOL    HW111395   8.087   3.032   9.501 -0.2007 -0.8933 -0.6710
 2921SOL    HW211396   7.936   3.020   9.501 -0.6151  2.8924 -0.6980
 2922SOL     OW11397   9.539   2.244   0.432  0.1214 -0.3439  0.3229
 2922SOL    HW111398   9.482   2.316   0.458 -0.0455 -1.5363  3.6491
 2922SOL    HW211399   9.626   2.268   0.465  0.8818 -0.1677 -1.6206
 2923SOL     OW11400   3.294   0.119   9.698 -0.1477 -0.5103  0.2872
 2923SOL    HW111401   3.324   0.055   9.634  2.2466 -0.0335  0.8134
 2923SOL    HW211402   3.287   0.070   9.780 -0.5989 -0.5821  0.2040
 2924SOL     OW11403   3.130   9.384   9.923 -0.0341  0.5465  0.3617
 2924SOL    HW111404   3.124   9.422  10.011 -0.3219  0.3406  0.4340
 2924SOL    HW211405   3.062   9.429   9.873 -1.1114 -0.6168  0.7325
 2925SOL     OW11406   0.762   9.701   5.406  0.3136  0.1089  0.5869
 2925SOL    HW111407   0.743   9.695   5.312  0.5628  0.6373  0.4992
 2925SOL    HW211408   0.700   9.765   5.440  0.9866  0.7808  0.5630
 2926SOL     OW11409   5.497   7.603   9.303 -0.0829 -0.3312  0.2801
 2926SOL    HW111410   5.548   7.573   9.228 -2.0791  0.1984 -1.4149
 2926SOL    HW211411   5.418   7.549   9.301 -0.6425  0.4011  1.3652
 2927SOL     OW11412   0.589   5.011   8.095 -0.3975  0.0391 -0.1234
 2927SOL    HW111413   0.551   5.033   8.180 -0.7018 -1.2849  0.1049
 2927SOL    HW211414   0.651   4.941   8.114 -2.1017 -1.8649 -1.2499
 2928SOL     OW11415   4.643   4.518   3.748  0.1850  0.4415 -0.0150
 2928SOL    HW111416   4.679   4.581   3.810  1.5262  1.4556 -1.7300
 2928SOL    HW211417   4.563   4.559   3.715  0.9128  1.1653 -0.9283
 2929SOL     OW11418   4.752   2.730   6.879 -0.0804  0.1795 -0.5481
 2929SOL    HW111419   4.668   2.764   6.909 -0.3884 -1.2027  0.2719
 2929SOL    HW211420   4.816   2.761   6.943 -0.1171  0.4479 -0.6422
 2930SOL     OW11421   1.776   5.444   6.884 -0.1139 -0.4588  0.1474
 2930SOL    HW111422   1.785   5.501   6.807 -3.0969  0.4775  0.3660
 2930SOL    HW211423   1.757   5.357   6.847 -3.1504  0.2949 -0.3070
 2931SOL     OW11424   8.011   2.973   4.509 -0.3620 -0.0868 -0.1317
 2931SOL    HW111425   7.938   2.910   4.506  0.0368 -0.5820  0.3015
 2931SOL    HW211426   7.970   3.056   4.532 -0.9035 -0.1694 -0.7506
 2932SOL     OW11427   1.700   9.459   9.947  0.0241 -0.0229 -0.1831
 2932SOL    HW111428   1.608   9.478   9.967 -0.0950 -0.1725 -0.5805
 2932SOL    HW211429   1.707   9.473   9.853  0.5709  0.6479 -0.0522
 2933SOL     OW11430   8.356   5.384   3.262 -1.0591  0.0028  0.0718
 2933SOL    HW111431   8.404   5.371   3.344  3.3298  0.0002 -2.2034
 2933SOL    HW211432   8.364   5.478   3.244  1.4494 -0.5212 -2.0555
 2934SOL     OW11433   9.993   5.931   9.784 -0.5362 -0.1345 -0.0767
 2934SOL    HW111434  10.064   5.955   9.724 -0.7130 -1.8213 -1.0212
 2934SOL    HW211435  10.028   5.950   9.871  0.4672  0.5352 -0.6051
 2935SOL     OW11436   0.968   6.801   9.009  0.3564 -0.2757 -0.3131
 2935SOL    HW111437   0.893   6.742   8.999  0.9785 -0.7661 -3.1596
 2935SOL    HW211438   0.948   6.874   8.950  1.1505  0.6703  0.5713
 2936SOL     OW11439   7.269   6.002   1.499 -0.1960 -0.3906  0.1772
 2936SOL    HW111440   7.254   5.967   1.411 -2.6264  1.2156 -0.1672
 2936SOL    HW211441   7.204   5.958   1.554 -0.1169  0.1371  0.7080
 2937SOL     OW11442   6.367   7.363   0.643  0.0828 -0.4630  0.1441
 2937SOL    HW111443   6.361   7.313   0.562  0.2544 -0.7361  0.2953
 2937SOL    HW211444   6.277   7.377   0.671  0.0452 -1.3578  0.5022
 2938SOL     OW11445   3.659   0.718   1.964 -0.2117 -0.2142  0.7799
 2938SOL    HW111446   3.607   0.772   1.903 -0.1592  0.1409  1.0456
 2938SOL    HW211447   3.679   0.639   1.914  0.6766  0.4908 -0.0265
 2939SOL     OW11448   2.802  10.008   8.870  0.1945  0.0910  0.3301
 2939SOL    HW111449   2.718  10.016   8.916 -0.3678  0.3545 -0.7136
 2939SOL    HW211450   2.844  10.092   8.883 -0.2848  0.4269 -0.2337
 2940SOL     OW11451   8.348   0.670   0.930  0.6287 -0.7168  0.6589
 2940SOL    HW111452   8.385   0.617   0.859 -0.8779 -0.0069 -0.7337
 2940SOL    HW211453   8.295   0.736   0.885  1.8712  1.5639  2.3506
 2941SOL     OW11454   5.139   6.055   6.662 -0.0140  0.4552  0.2926
 2941SOL    HW111455   5.164   5.984   6.603 -2.2122 -0.1616  0.0001
 2941SOL    HW211456   5.068   6.100   6.616 -0.6427  1.0069  1.7465
 2942SOL     OW11457   3.726   0.415   0.094  0.0981  0.3459  0.4176
 2942SOL    HW111458   3.633   0.413   0.114  0.0496 -0.6941  0.1361
 2942SOL    HW211459   3.746   0.508   0.079 -1.1528  0.4392 -0.7933
 2943SOL     OW11460   9.280   8.682   6.588 -0.4303 -0.0448  0.7108
 2943SOL    HW111461   9.247   8.639   6.667  3.3497 -1.3697  1.7760
 2943SOL    HW211462   9.324   8.761   6.620  1.9534 -1.0695  0.1515
 2944SOL     OW11463   3.405   1.814   7.101  0.8023 -0.1453 -0.5831
 2944SOL    HW111464   3.319   1.772   7.092  1.3346 -0.9804 -2.1572
 2944SOL    HW211465   3.466   1.750   7.064  2.3921 -0.4029  2.2005
 2945SOL     OW11466   1.198   9.854   7.889 -0.7170  0.5283 -0.3983
 2945SOL    HW111467   1.148   9.817   7.816 -1.0825  1.3322 -0.5631
 2945SOL    HW211468   1.158   9.940   7.905 -0.7393  0.3136  0.8427
 2946SOL     OW11469   8.884   1.995   2.567  0.3752 -0.0278  0.3727
 2946SOL    HW111470   8.911   2.018   2.656  1.6207  0.7755 -0.1864
 2946SOL    HW211471   8.856   2.078   2.528  0.1093 -0.3257 -0.0748
 2947SOL     OW11472   1.539   6.189   9.907  0.1032  0.2989 -0.3290
 2947SOL    HW111473   1.491   6.207   9.826  1.0875  0.4241 -0.8981
 2947SOL    HW211474   1.522   6.097   9.925 -0.3984  0.3555 -0.4902
 2948SOL     OW11475   7.596   6.962   9.992  0.9628 -0.1182 -0.5088
 2948SOL    HW111476   7.521   6.904  10.007  2.4442 -2.0974 -0.3327
 2948SOL    HW211477   7.566   7.048  10.020 -1.2679 -0.8273 -0.5522
 2949SOL     OW11478   8.101   0.349   0.652 -0.5835 -0.4512  0.7781
 2949SOL    HW111479   8.161   0.370   0.723 -0.8431 -2.6905  1.7515
 2949SOL    HW211480   8.134   0.398   0.577  1.5811 -0.4538  1.6488
 2950SOL     OW11481   3.077   6.124   8.555 -0.8477  0.1579 -0.1806
 2950SOL    HW111482   3.118   6.203   8.589  0.6988 -1.7396  2.8101
 2950SOL    HW211483   3.136   6.095   8.485 -0.7554  0.9800 -0.4504
 2951SOL     OW11484   2.624   3.145   3.258 -0.3515 -0.1601  0.5404
 2951SOL    HW111485   2.628   3.188   3.172  0.2358 -1.1621  0.0557
 2951SOL    HW211486   2.537   3.104   3.260 -0.3248 -0.2248  0.3842
 2952SOL     OW11487   0.114   2.477   8.800 -0.7299 -0.4868  0.6482
 2952SOL    HW111488   0.042   2.541   8.795 -1.4786 -1.3097  0.5168
 2952SOL    HW211489   0.086   2.407   8.741  0.2476 -0.7719  0.5217
 2953SOL     OW11490   4.294   3.398   0.352  0.4350  0.5702  0.0663
 2953SOL    HW111491   4.246   3.481   0.346 -0.5948 -0.1170 -2.5166
 2953SOL    HW211492   4.260   3.356   0.430 -2.9196  0.3565 -1.3680
 2954SOL     OW11493  10.011   9.811   0.390  0.2138 -0.1467 -0.3821
 2954SOL    HW111494   9.957   9.852   0.323  1.2916 -1.1674 -1.9362
 2954SOL    HW211495  10.071   9.880   0.418 -0.0628  0.2101 -0.6605
 2955SOL     OW11496   5.478   8.179   0.583  0.1783 -0.1686  0.4624
 2955SOL    HW111497   5.509   8.250   0.640  1.1334 -0.7367  0.6720
 2955SOL    HW211498   5.383   8.182   0.591  0.1630  1.4573  0.0155
 2956SOL     OW11499   3.838   6.378   2.627  0.3737 -0.1750 -0.3290
 2956SOL    HW111500   3.897   6.394   2.700  0.2682  0.9925 -0.4792
 2956SOL    HW211501   3.789   6.300   2.652 -0.0785  0.5465  1.1247
 2957SOL     OW11502   8.928   2.163   5.903 -0.4395 -0.5039 -0.4128
 2957SOL    HW111503   8.921   2.258   5.916  1.2808 -0.3699 -0.2349
 2957SOL    HW211504   8.838   2.134   5.888 -1.1983  0.9492  0.9819
 2958SOL     OW11505   1.878   6.223   6.830 -0.6584  0.0353 -0.0495
 2958SOL    HW111506   1.904   6.144   6.783  0.0129  1.9642 -3.2362
 2958SOL    HW211507   1.933   6.224   6.908 -0.0523 -2.1728 -0.3806
 2959SOL     OW11508   6.355   1.086   8.524  0.0263 -0.1823 -0.1145
 2959SOL    HW111509   6.421   1.062   8.589  0.9377  0.1827 -0.8962
 2959SOL    HW211510   6.329   1.175   8.548 -1.5060 -0.9362  1.2525
 2960SOL     OW11511  10.274   7.753   8.001  0.0446  0.0069 -0.3041
 2960SOL    HW111512  10.328   7.750   8.080 -0.2492  0.5698 -0.0744
 2960SOL    HW211513  10.275   7.845   7.974 -0.3247 -0.0797 -0.6260
 2961SOL     OW11514   1.485   3.884   4.016 -0.2133 -0.2644  0.2283
 2961SOL    HW111515   1.543   3.945   4.062  0.3598 -1.2478  0.8374
 2961SOL    HW211516   1.538   3.853   3.942 -0.5523  0.0775 -0.1599
 2962SOL     OW11517   5.034   4.155   7.371  0.0049 -0.0167 -0.4115
 2962SOL    HW111518   5.011   4.171   7.280 -0.1880  0.8383 -0.2241
 2962SOL    HW211519   4.966   4.201   7.422  1.0321  0.9424  0.1496
 2963SOL     OW11520   3.888   4.872   9.030 -0.2843 -0.1075  0.1258
 2963SOL    HW111521   3.865   4.851   9.121  0.4115  0.0811  0.3491
 2963SOL    HW211522   3.806   4.903   8.992 -0.2849  1.1270  1.0748
 2964SOL     OW11523   4.365   2.954   0.508  0.5121  0.4487 -0.1164
 2964SOL    HW111524   4.388   2.980   0.597  0.7891 -0.7139  0.1588
 2964SOL    HW211525   4.273   2.928   0.513  0.3353  1.0136 -0.3192
 2965SOL     OW11526   7.764   8.569   7.465  0.1840  0.4045 -0.2846
 2965SOL    HW111527   7.825   8.639   7.447 -0.2574  0.4110 -1.8896
 2965SOL    HW211528   7.679   8.604   7.438 -0.2630 -0.2376  0.2525
 2966SOL     OW11529   3.249   6.724   5.062 -0.2077  0.5025 -0.0621
 2966SOL    HW111530   3.214   6.649   5.014  0.1162  0.2426  0.1091
 2966SOL    HW211531   3.286   6.687   5.142 -0.9588  0.9596  0.5136
 2967SOL     OW11532   1.591   0.354   1.951 -0.1628 -0.2310  0.4122
 2967SOL    HW111533   1.565   0.384   1.863 -0.7720  0.0567  0.6861
 2967SOL    HW211534   1.585   0.432   2.006 -1.3005 -0.7194  1.0302
 2968SOL     OW11535   2.308   3.114   0.818 -0.2135 -0.4403  0.9076
 2968SOL    HW111536   2.251   3.056   0.767 -0.6009 -0.3397  1.2195
 2968SOL    HW211537   2.395   3.101   0.781 -0.3416 -1.0372  0.8141
 2969SOL     OW11538   3.903   6.697   7.028  0.3546  0.1328  0.2409
 2969SOL    HW111539   3.917   6.775   7.082 -0.5072 -0.0916  0.8131
 2969SOL    HW211540   3.838   6.725   6.963 -0.1602 -0.1747  0.6157
 2970SOL     OW11541   9.959   2.763   6.632  0.1008  0.0265 -0.1875
 2970SOL    HW111542   9.956   2.816   6.552 -0.0949 -0.1055 -0.2681
 2970SOL    HW211543  10.006   2.818   6.695  0.8514 -0.1385 -0.5944
 2971SOL     OW11544   8.006   6.542   0.474 -0.3300 -0.9194 -0.2244
 2971SOL    HW111545   8.085   6.573   0.519  0.0962 -0.5943 -1.1789
 2971SOL    HW211546   7.993   6.605   0.403 -1.3527 -1.0722 -0.1868
 2972SOL     OW11547   8.629   0.171   7.976  0.3931 -0.0587 -0.1924
 2972SOL    HW111548   8.638   0.077   7.957 -1.2608  0.0883 -2.0893
 2972SOL    HW211549   8.702   0.212   7.930  0.0007 -0.2659 -1.0163
 2973SOL     OW11550   0.559   3.911   3.556  0.0377 -0.5030  0.5744
 2973SOL    HW111551   0.488   3.968   3.527 -0.0766 -0.8359  0.1897
 2973SOL    HW211552   0.570   3.849   3.484  0.3792 -0.7632  0.8521
 2974SOL     OW11553   6.017   4.029   6.405 -0.6959 -0.1631 -0.3086
 2974SOL    HW111554   6.021   4.124   6.417 -0.4168 -0.1876 -0.2021
 2974SOL    HW211555   5.969   4.017   6.323 -0.3109  0.0843 -0.5703
 2975SOL     OW11556   0.955   0.014   8.800 -0.0698  0.2195  0.1852
 2975SOL    HW111557   0.862  -0.005   8.796 -0.1946  0.8852 -0.2557
 2975SOL    HW211558   0.964   0.100   8.759  0.9529 -0.5409 -1.2621
 2976SOL     OW11559   0.081   6.774   6.202 -0.2538 -0.3629  0.3073
 2976SOL    HW111560   0.165   6.731   6.186 -0.6711 -1.2173  0.3251
 2976SOL    HW211561   0.101   6.867   6.202  0.8854 -0.5848  1.4156
 2977SOL     OW11562   2.534   6.870   5.617  0.4757 -0.2917  0.1526
 2977SOL    HW111563   2.616   6.824   5.599 -0.7252 -1.9530 -1.3105
 2977SOL    HW211564   2.561   6.961   5.630  2.3593 -0.4084 -2.2388
 2978SOL     OW11565   1.056   0.334   2.585 -0.2267  0.0527  0.1663
 2978SOL    HW111566   1.004   0.402   2.628  0.5842  1.4204 -0.9260
 2978SOL    HW211567   1.045   0.351   2.492  0.4004 -1.0184 -0.1182
 2979SOL     OW11568   9.709  10.020   6.960 -0.5989  0.1819  0.4528
 2979SOL    HW111569   9.657   9.997   7.037  0.0107  1.2411  1.2190
 2979SOL    HW211570   9.794  10.045   6.996 -0.0344 -0.0964 -0.6484
 2980SOL     OW11571   8.851   3.978   8.379  0.2829  0.2387 -0.6406
 2980SOL    HW111572   8.874   3.955   8.469  3.4578 -0.1056 -1.4334
 2980SOL    HW211573   8.829   3.894   8.338  0.3270  0.1914 -0.5676
 2981SOL     OW11574   4.218   7.266   9.236 -0.0816 -0.0840  0.2473
 2981SOL    HW111575   4.241   7.359   9.227 -1.2792  0.0712 -1.9058
 2981SOL    HW211576   4.156   7.250   9.165  0.5926 -2.7000  0.1576
 2982SOL     OW11577   9.250   3.487   2.498  0.1464 -0.8981  0.6466
 2982SOL    HW111578   9.230   3.436   2.577 -1.1564 -0.4235  0.6490
 2982SOL    HW211579   9.209   3.572   2.514  0.5350 -0.5355 -0.2289
 2983SOL     OW11580   5.913   9.023   3.067 -0.1409 -0.1731 -0.2230
 2983SOL    HW111581   5.940   9.040   3.157 -1.7305 -0.9085  0.4294
 2983SOL    HW211582   5.989   8.982   3.026  0.7281  0.4969  0.6584
 2984SOL     OW11583   2.451   3.428   8.059 -0.1046  0.7044 -0.5267
 2984SOL    HW111584   2.393   3.502   8.044 -0.6635  0.8051  1.8310
 2984SOL    HW211585   2.521   3.439   7.994 -2.2614  0.9770 -2.9692
 2985SOL     OW11586   4.911   8.544   1.432 -0.2423 -1.0466 -0.3847
 2985SOL    HW111587   4.834   8.600   1.426  0.0585 -0.4159  1.1354
 2985SOL    HW211588   4.877   8.455   1.418 -0.6810 -0.5459 -3.0501
 2986SOL     OW11589   0.190   5.609   3.040 -0.2689  0.5924 -0.0589
 2986SOL    HW111590   0.171   5.628   3.131  0.6150  1.8959 -0.1203
 2986SOL    HW211591   0.183   5.514   3.033 -0.4889  0.4926  1.3247
 2987SOL     OW11592   6.678   0.608   0.914 -0.4455  0.8013 -0.6685
 2987SOL    HW111593   6.773   0.604   0.903 -0.2939  0.6679  0.5052
 2987SOL    HW211594   6.649   0.517   0.905 -0.3995  0.7763 -0.5672
 2988SOL     OW11595   7.183   3.857   2.361  0.1604 -0.0652  0.9745
 2988SOL    HW111596   7.216   3.771   2.336  0.0952 -0.3828  1.9344
 2988SOL    HW211597   7.088   3.845   2.369  0.1238  0.1554  0.8752
 2989SOL     OW11598   0.731   9.770  10.186 -0.2814  0.2465 -0.7438
 2989SOL    HW111599   0.731   9.783  10.091  1.3661 -2.0427 -1.1443
 2989SOL    HW211600   0.822   9.783  10.211 -0.5444 -0.0356  0.3873
 2990SOL     OW11601   2.750   8.067   2.064 -0.2612 -0.2887  0.3783
 2990SOL    HW111602   2.709   8.119   2.133  0.5742  0.9604 -0.0328
 2990SOL    HW211603   2.745   7.977   2.096  0.3085  0.2702  2.2049
 2991SOL     OW11604   1.692   6.323   5.540  0.2279 -0.4122  0.0306
 2991SOL    HW111605   1.772   6.332   5.592  1.2865 -1.4346 -1.3493
 2991SOL    HW211606   1.666   6.414   5.522  0.8873 -0.0577  0.7875
 2992SOL     OW11607   4.918   5.524   8.705 -0.0400  0.0326  0.3588
 2992SOL    HW111608   4.944   5.447   8.757  1.7070 -0.1193 -0.6634
 2992SOL    HW211609   4.992   5.585   8.715 -0.3970  0.6445 -0.6685
 2993SOL     OW11610   2.328   1.686   2.142 -0.0528 -0.5126 -0.7619
 2993SOL    HW111611   2.370   1.603   2.163  2.6810  0.5905 -1.3928
 2993SOL    HW211612   2.395   1.735   2.094 -0.9433  2.7001  1.0256
 2994SOL     OW11613   0.627   6.924   2.915 -0.1872 -0.7707 -0.3095
 2994SOL    HW111614   0.705   6.953   2.962 -0.2965 -1.1151  0.0926
 2994SOL    HW211615   0.638   6.829   2.906 -0.4218 -0.7805 -0.5054
 2995SOL     OW11616   2.471   8.487   6.690 -0.1927 -0.0189 -0.1800
 2995SOL    HW111617   2.530   8.536   6.633 -1.7079  1.1409 -0.8156
 2995SOL    HW211618   2.508   8.399   6.694  1.4372  0.6225 -0.7251
 2996SOL     OW11619   5.528   3.584   3.917  0.0528 -0.4113 -0.2220
 2996SOL    HW111620   5.505   3.629   3.836  2.7000 -1.6773 -1.8129
 2996SOL    HW211621   5.444   3.572   3.962 -1.2631  2.0510 -1.8086
 2997SOL     OW11622   9.361   2.685   2.714  0.1999 -0.0011 -0.0421
 2997SOL    HW111623   9.414   2.763   2.732  0.5560 -0.4011  0.7008
 2997SOL    HW211624   9.396   2.618   2.773 -1.7162 -0.0379  1.1694
 2998SOL     OW11625   3.792  10.214   1.410  0.4867  0.6748  0.2443
 2998SOL    HW111626   3.834  10.129   1.404  0.3401  0.6295 -0.1573
 2998SOL    HW211627   3.698  10.194   1.416  0.4815  0.7926  0.5672
 2999SOL     OW11628   9.678   1.122   9.569  0.2106  0.1617  0.0871
 2999SOL    HW111629   9.662   1.204   9.616 -0.8366 -0.8710  1.6204
 2999SOL    HW211630   9.609   1.118   9.503  0.7135  0.8423 -0.4985
 3000SOL     OW11631   9.103   9.349   2.643 -0.3107  0.0955  0.0834
 3000SOL    HW111632   9.176   9.312   2.593  1.0206 -0.0448  2.0217
 3000SOL    HW211633   9.086   9.285   2.712  0.6280  2.0094  2.2293
 3001SOL     OW11634   3.229   4.574   2.861 -0.4063  0.6920 -0.0366
 3001SOL    HW111635   3.211   4.614   2.776  2.8080 -0.7218 -1.5190
 3001SOL    HW211636   3.290   4.634   2.904  0.2325  0.0171  0.0172
 3002SOL     OW11637   8.625   7.704   3.379 -0.0944  0.0939  0.1384
 3002SOL    HW111638   8.623   7.614   3.412  0.4944  0.6367  1.7175
 3002SOL    HW211639   8.685   7.701   3.305  0.2981 -0.7201  0.4819
 3003SOL     OW11640   3.616   1.971   7.235 -0.6149  0.2545  0.1170
 3003SOL    HW111641   3.557   1.930   7.172 -0.4559 -1.1944  0.8416
 3003SOL    HW211642   3.697   1.920   7.228 -0.1501  0.9178  0.5548
 3004SOL     OW11643   4.768   9.079   3.573 -0.1824 -0.9613  0.2174
 3004SOL    HW111644   4.752   9.041   3.659 -0.7979  1.8476  1.4829
 3004SOL    HW211645   4.686   9.123   3.550  0.7013  0.3394 -0.6343
 3005SOL     OW11646   5.606   7.033   0.880  0.1456  0.3260 -0.5558
 3005SOL    HW111647   5.662   7.109   0.895  0.5260 -0.4601  2.5682
 3005SOL    HW211648   5.622   6.975   0.955 -1.7817 -1.8298 -1.6816
 3006SOL     OW11649   1.569   1.694   5.288 -0.4653 -0.2906  0.3421
 3006SOL    HW111650   1.489   1.737   5.318  0.2404  0.8758  0.6231
 3006SOL    HW211651   1.608   1.757   5.228  0.0811 -0.9857 -0.0346
 3007SOL     OW11652   8.827   9.230  10.076  0.2667 -0.3653 -0.3011
 3007SOL    HW111653   8.821   9.308  10.021 -0.0106 -1.2595 -1.5673
 3007SOL    HW211654   8.921   9.218  10.091  0.2483  1.1031  1.2474
 3008SOL     OW11655   5.954   0.586   8.131 -0.5928 -0.0207  0.4228
 3008SOL    HW111656   5.910   0.556   8.051  0.1580  0.0109 -0.0114
 3008SOL    HW211657   6.007   0.661   8.103  1.7914 -1.6173  0.3499
 3009SOL     OW11658   7.040   1.125   2.639 -0.0168 -0.1380 -0.0532
 3009SOL    HW111659   7.001   1.164   2.718  0.8575  1.7735 -0.4906
 3009SOL    HW211660   7.131   1.105   2.664  0.1778  0.1954 -0.4743
 3010SOL     OW11661   7.725   3.293  10.059  0.9216 -0.4291 -0.1602
 3010SOL    HW111662   7.802   3.243  10.031  0.8366 -1.2917  1.0773
 3010SOL    HW211663   7.661   3.226  10.082  0.9440  0.2088  1.9365
 3011SOL     OW11664   8.229   2.436   9.230  0.6040 -0.7855  0.2539
 3011SOL    HW111665   8.182   2.479   9.158  0.5865  2.1899  1.8804
 3011SOL    HW211666   8.277   2.364   9.188 -1.0973 -0.5412 -2.3267
 3012SOL     OW11667   9.301   1.003   1.393 -0.2104 -0.5363  0.0329
 3012SOL    HW111668   9.264   0.998   1.481 -0.4594  0.4794  0.0020
 3012SOL    HW211669   9.350   1.085   1.393  0.2906 -0.8325 -0.5904
 3013SOL     OW11670   3.810   5.684   5.820 -0.1712  0.4306 -0.2243
 3013SOL    HW111671   3.840   5.635   5.744 -0.6732 -1.6647  0.8509
 3013SOL    HW211672   3.890   5.711   5.864  0.2342 -2.1976  0.8165
 3014SOL     OW11673   1.751   1.548   0.982  0.5276  0.1837 -0.2731
 3014SOL    HW111674   1.662   1.547   1.016  0.7357 -0.4540  0.2701
 3014SOL    HW211675   1.784   1.635   1.006 -0.4223  1.0147 -1.7983
 3015SOL     OW11676   9.503   6.151   9.775  0.3335 -0.1363 -0.3908
 3015SOL    HW111677   9.518   6.062   9.806  1.2971 -0.1797 -0.9444
 3015SOL    HW211678   9.409   6.155   9.758  0.1938 -0.8632  0.1997
 3016SOL     OW11679   5.388   2.400   9.853 -0.4107 -0.3847 -0.3015
 3016SOL    HW111680   5.458   2.460   9.878 -1.7797  1.3132 -0.3542
 3016SOL    HW211681   5.309   2.436   9.894 -1.4295 -1.6669 -1.0453
 3017SOL     OW11682   2.810   7.651   1.916 -0.1727 -0.3522 -0.6315
 3017SOL    HW111683   2.862   7.723   1.880  0.6107 -0.5586  0.0659
 3017SOL    HW211684   2.790   7.596   1.840  0.5737 -0.2359 -0.9168
 3018SOL     OW11685   4.294   2.546   7.515  0.0226  0.4492 -0.5003
 3018SOL    HW111686   4.235   2.586   7.578  0.3071 -0.8055  0.5959
 3018SOL    HW211687   4.264   2.456   7.507 -0.2893  0.6833 -2.5335
 3019SOL     OW11688   1.109   6.114   3.255 -0.0499  0.4308 -0.2830
 3019SOL    HW111689   1.083   6.178   3.188 -1.7113  0.2926  0.1839
 3019SOL    HW211690   1.091   6.157   3.338  2.8272  0.9334  0.1615
 3020SOL     OW11691   5.248   2.248   7.752 -0.0510 -0.2441 -0.4381
 3020SOL    HW111692   5.164   2.204   7.738 -1.2387  1.3175  1.3165
 3020SOL    HW211693   5.225   2.340   7.761  2.2030  0.6333 -2.6089
 3021SOL     OW11694   8.226   6.756   1.007  0.2570  0.2140 -0.0256
 3021SOL    HW111695   8.208   6.847   1.028 -3.0735 -0.5698  0.9710
 3021SOL    HW211696   8.248   6.716   1.091 -0.9803 -0.4177  0.0150
 3022SOL     OW11697  10.340   2.054   4.394 -0.0858 -0.1954 -0.4205
 3022SOL    HW111698  10.329   2.147   4.414  0.0550 -0.0445 -1.0433
 3022SOL    HW211699  10.256   2.028   4.355 -0.7842 -0.7644  1.3326
 3023SOL     OW11700   7.876   3.435   9.340 -0.4918  0.3711 -0.2661
 3023SOL    HW111701   7.849   3.358   9.291 -0.4285  0.0635  0.1719
 3023SOL    HW211702   7.816   3.437   9.415 -0.1709  0.4618 -0.0116
 3024SOL     OW11703   4.287  10.030   3.104  0.7497  0.0342  0.6977
 3024SOL    HW111704   4.271  10.122   3.125 -0.1134  0.2617 -0.7752
 3024SOL    HW211705   4.284  10.027   3.008  0.3672 -1.5934  0.7303
 3025SOL     OW11706   0.666   2.384   7.925  0.0677 -0.3569 -0.0793
 3025SOL    HW111707   0.744   2.384   7.870 -1.9191 -0.2474 -3.1439
 3025SOL    HW211708   0.609   2.451   7.886 -2.0470 -1.3064  1.2139
 3026SOL     OW11709   2.494   9.137   9.232  0.3905  0.1842 -0.0361
 3026SOL    HW111710   2.518   9.172   9.319  0.3917  1.3598 -0.4860
 3026SOL    HW211711   2.470   9.215   9.181 -1.1216 -0.6328 -0.6374
 3027SOL     OW11712   5.721   5.433   3.097  0.0847 -0.7135 -0.0019
 3027SOL    HW111713   5.741   5.491   3.170 -1.0968  0.2656 -0.4329
 3027SOL    HW211714   5.683   5.355   3.138 -0.3838 -0.2579  0.4394
 3028SOL     OW11715   9.932   0.255   6.561 -0.0615 -0.0663 -0.4245
 3028SOL    HW111716   9.942   0.317   6.490  0.4268 -0.0188 -0.3194
 3028SOL    HW211717   9.944   0.307   6.641 -0.1080 -0.2101 -0.3224
 3029SOL     OW11718   3.050   2.996   2.929  0.1795 -0.1087 -0.3206
 3029SOL    HW111719   3.086   3.010   2.842 -0.2111 -0.8884 -0.6179
 3029SOL    HW211720   2.973   2.942   2.915 -0.1165  0.0859  0.4735
 3030SOL     OW11721   9.142   8.810   4.801 -0.3897  0.4060  0.3525
 3030SOL    HW111722   9.117   8.720   4.822  0.7878 -0.1067 -0.3529
 3030SOL    HW211723   9.236   8.806   4.784 -0.7076  1.3255 -1.9686
 3031SOL     OW11724   0.046   5.341   0.391 -0.2616 -0.8691  0.6704
 3031SOL    HW111725   0.117   5.329   0.454 -0.4088  0.5408  1.1360
 3031SOL    HW211726   0.075   5.414   0.336 -1.7206  0.3427  1.4408
 3032SOL     OW11727   2.272   1.195   0.639  0.3159  0.6439 -0.3707
 3032SOL    HW111728   2.229   1.269   0.680  0.3692 -0.1541  1.1960
 3032SOL    HW211729   2.207   1.161   0.577 -0.8730  0.2480  1.0224
 3033SOL     OW11730   0.721   8.533   3.852 -0.2822  0.0144  0.7231
 3033SOL    HW111731   0.761   8.577   3.777 -0.6047 -1.7139 -0.5386
 3033SOL    HW211732   0.777   8.555   3.926  0.9727  0.4692 -0.3302
 3034SOL     OW11733   9.474   3.597   0.060 -0.7055  0.0380 -0.3146
 3034SOL    HW111734   9.475   3.568  -0.031  0.1384 -2.3885  0.3907
 3034SOL    HW211735   9.385   3.581   0.089 -0.8033  0.1941 -0.5232
 3035SOL     OW11736   6.920   6.864   3.624 -0.2299  0.0399 -0.7522
 3035SOL    HW111737   7.007   6.903   3.623 -1.0583  2.0340 -0.7570
 3035SOL    HW211738   6.892   6.869   3.716  0.7008 -3.2748 -0.1542
 3036SOL     OW11739   6.404   0.907   4.230 -0.2811  0.5755 -0.3439
 3036SOL    HW111740   6.472   0.974   4.231  0.5905 -0.2918  0.4623
 3036SOL    HW211741   6.397   0.880   4.139  0.2589  0.8615 -0.4696
 3037SOL     OW11742   9.775   7.445   5.351 -0.2679 -0.1826 -0.3328
 3037SOL    HW111743   9.711   7.374   5.354  0.6809 -1.1355 -1.7566
 3037SOL    HW211744   9.736   7.510   5.292 -0.9505  0.3182  0.6466
 3038SOL     OW11745   9.892   3.814   9.247 -0.3093 -0.1666  0.3909
 3038SOL    HW111746   9.932   3.858   9.322  0.8971  1.5689 -1.1791
 3038SOL    HW211747   9.806   3.854   9.240  0.8347  2.2651 -1.1225
 3039SOL     OW11748   0.456  10.259   5.375  0.2922  0.3525  0.7182
 3039SOL    HW111749   0.454  10.164   5.388  0.8384  0.2999  0.4361
 3039SOL    HW211750   0.492  10.270   5.287 -0.1304  0.8125  0.5948
 3040SOL     OW11751   1.207   2.258   8.303  0.2673  0.0890 -0.4444
 3040SOL    HW111752   1.112   2.250   8.293  0.3965 -0.4761 -1.3169
 3040SOL    HW211753   1.237   2.168   8.318  0.7416  0.1394 -1.0300
 3041SOL     OW11754   9.946   7.792   4.214 -0.6841  0.1677  0.9637
 3041SOL    HW111755   9.989   7.718   4.170  0.3799 -1.0311  3.7688
 3041SOL    HW211756   9.898   7.836   4.145  0.8763 -1.5311 -1.3712
 3042SOL     OW11757   7.297   1.590   7.127 -0.0112 -0.3565 -0.2961
 3042SOL    HW111758   7.268   1.589   7.219 -2.0062  1.5422 -0.8153
 3042SOL    HW211759   7.247   1.519   7.086  0.8938 -1.2175  0.0632
 3043SOL     OW11760   8.680   6.546   1.322 -0.4492  0.1300 -0.2021
 3043SOL    HW111761   8.627   6.611   1.367 -0.9224  0.4543 -1.1894
 3043SOL    HW211762   8.668   6.465   1.372  0.6345  0.9115  1.3933
 3044SOL     OW11763   3.908   1.688   0.954 -0.3844  0.0258 -0.2746
 3044SOL    HW111764   3.851   1.762   0.937 -0.1791 -0.2796 -2.6854
 3044SOL    HW211765   3.872   1.616   0.901  0.1492 -1.2331  0.9894
 3045SOL     OW11766  10.249   0.033   0.423 -0.3882  0.5014 -0.5976
 3045SOL    HW111767  10.169   0.054   0.470  0.0487 -0.5333  0.7038
 3045SOL    HW211768  10.224  -0.035   0.361 -1.1025  2.3293 -2.4176
 3046SOL     OW11769   1.668  10.121   8.476 -0.7743  0.4383  0.0798
 3046SOL    HW111770   1.655  10.100   8.569  0.2667  0.5094  0.2507
 3046SOL    HW211771   1.732  10.193   8.476  0.9439 -1.0070 -0.7548
 3047SOL     OW11772   7.865   1.993   0.778 -0.0370 -0.0322  0.2197
 3047SOL    HW111773   7.821   1.939   0.843 -2.6608  1.8148  0.1268
 3047SOL    HW211774   7.884   1.933   0.706 -1.0837 -1.2192  0.8895
 3048SOL     OW11775   5.049   9.370   7.395 -0.1387 -0.0447  0.2364
 3048SOL    HW111776   5.083   9.347   7.482  0.0946 -1.8834 -0.3057
 3048SOL    HW211777   4.954   9.373   7.406 -0.1828 -1.2936  0.3596
 3049SOL     OW11778   6.906   3.102   6.339  0.4003  0.2196 -0.3120
 3049SOL    HW111779   6.915   3.144   6.425 -2.2337  1.0126 -0.3249
 3049SOL    HW211780   6.913   3.008   6.357  0.0789  0.3821  0.7309
 3050SOL     OW11781   2.360   3.940   7.697 -0.0970 -0.5526 -0.4696
 3050SOL    HW111782   2.402   4.024   7.674 -1.4966  0.2171 -0.3049
 3050SOL    HW211783   2.394   3.878   7.632 -1.4286  0.8461 -2.6443
 3051SOL     OW11784   4.399   0.599   6.062  0.5177 -0.2117  1.1384
 3051SOL    HW111785   4.440   0.668   6.009 -1.0868 -1.1955 -1.5584
 3051SOL    HW211786   4.329   0.643   6.109 -0.5529  0.0601 -0.6336
 3052SOL     OW11787   0.893   5.799   7.012 -0.5338 -0.1918 -0.1357
 3052SOL    HW111788   0.981   5.814   7.047 -0.4198 -1.0537 -0.0247
 3052SOL    HW211789   0.839   5.783   7.089 -0.9546  1.0521 -0.1499
 3053SOL     OW11790   2.306   8.186  10.111 -0.0305 -0.2397 -0.0343
 3053SOL    HW111791   2.273   8.105  10.073  1.2757 -1.3912  1.1669
 3053SOL    HW211792   2.397   8.166  10.134  1.0477  2.2434 -1.6820
 3054SOL     OW11793   3.657   8.755   7.960 -0.2227 -0.6783 -0.0584
 3054SOL    HW111794   3.631   8.685   7.901  0.6376 -0.4563 -0.7242
 3054SOL    HW211795   3.695   8.822   7.903  0.9977 -0.6244  0.7650
 3055SOL     OW11796  10.103   2.916   2.677  0.5845 -0.0226 -0.5596
 3055SOL    HW111797  10.040   2.985   2.656 -0.0749  0.2198  1.9184
 3055SOL    HW211798  10.064   2.837   2.640 -1.4014  0.0747  1.1373
 3056SOL     OW11799   4.942   9.914   6.331 -0.0643  0.0368 -0.3877
 3056SOL    HW111800   4.895   9.836   6.359  0.4401 -0.2262 -0.2623
 3056SOL    HW211801   4.945   9.907   6.235 -0.1139 -0.0404 -0.3835
 3057SOL     OW11802   3.487   7.091   4.257  0.2829  0.7313 -0.3259
 3057SOL    HW111803   3.485   7.173   4.306  0.7335  0.2168  0.5749
 3057SOL    HW211804   3.577   7.082   4.228  0.3677  0.2955  0.0507
 3058SOL     OW11805   6.875   6.069   3.284  0.0251 -0.0476  0.2861
 3058SOL    HW111806   6.829   6.015   3.220 -0.0676  0.4129 -0.0421
 3058SOL    HW211807   6.805   6.111   3.335 -0.0688  2.5882 -1.7955
 3059SOL     OW11808   0.788   5.282   2.612 -0.6169 -0.0176 -0.5412
 3059SOL    HW111809   0.694   5.281   2.628 -0.2741  1.1528  1.9244
 3059SOL    HW211810   0.821   5.358   2.660  1.6738 -0.6959 -0.8790
 3060SOL     OW11811   1.426   7.270   8.580  0.5534  0.3408 -0.5860
 3060SOL    HW111812   1.471   7.227   8.653  0.9156  2.3808  0.4709
 3060SOL    HW211813   1.395   7.198   8.525 -1.1934 -1.4227  2.4106
 3061SOL     OW11814   7.649   2.523   0.495  0.5593  0.3641  0.2657
 3061SOL    HW111815   7.581   2.488   0.552  0.6384  3.9099  2.8535
 3061SOL    HW211816   7.730   2.517   0.547  1.1683  1.2428 -0.5468
 3062SOL     OW11817   5.083   0.519   5.789 -0.0439 -0.2283  0.1390
 3062SOL    HW111818   5.154   0.471   5.746  0.5301  0.2730  0.5140
 3062SOL    HW211819   5.048   0.458   5.853  1.1915  0.0935  1.1531
 3063SOL     OW11820  10.229   1.198   1.168  0.3676  0.1590 -0.1540
 3063SOL    HW111821  10.218   1.288   1.138 -2.1337 -0.5697 -1.6962
 3063SOL    HW211822  10.319   1.175   1.143  0.9152  2.0644 -0.0868
 3064SOL     OW11823   3.387   8.828   9.214  0.3223 -0.4843 -0.2076
 3064SOL    HW111824   3.395   8.910   9.165 -0.8823  0.5370  1.2172
 3064SOL    HW211825   3.457   8.773   9.179 -0.5621  0.0996 -3.1798
 3065SOL     OW11826   5.535   3.121   9.610  0.7846 -0.0245 -0.1721
 3065SOL    HW111827   5.477   3.179   9.658 -0.1707 -1.3415  0.3474
 3065SOL    HW211828   5.480   3.085   9.540  1.1009 -0.9319  0.0326
 3066SOL     OW11829   7.975   4.527   9.431  0.4464 -0.6312  0.3678
 3066SOL    HW111830   7.920   4.458   9.396  1.8336 -1.7346  0.2849
 3066SOL    HW211831   7.947   4.537   9.522 -1.2558  0.2867 -0.2101
 3067SOL     OW11832   6.361   4.278   2.550  0.3162  0.6091 -0.3774
 3067SOL    HW111833   6.317   4.355   2.584  1.5457  1.3029 -0.3103
 3067SOL    HW211834   6.345   4.281   2.455  1.2904  1.5740 -0.5254
 3068SOL     OW11835   3.869   2.627   5.439 -0.1493 -0.0814  0.3748
 3068SOL    HW111836   3.823   2.548   5.467  0.6642 -0.7460 -0.1062
 3068SOL    HW211837   3.881   2.678   5.518  0.6524 -1.1516  0.9670
 3069SOL     OW11838   7.917   7.030   1.324  0.1565 -0.2037 -0.1073
 3069SOL    HW111839   7.945   6.943   1.295 -0.0035 -0.6371  1.0312
 3069SOL    HW211840   7.993   7.086   1.306  0.7383 -0.8331  0.3534
 3070SOL     OW11841   4.918  10.293   1.467 -0.6192 -0.2341 -0.2378
 3070SOL    HW111842   4.849  10.230   1.485 -0.1851 -0.6435  0.0360
 3070SOL    HW211843   4.924  10.345   1.547 -1.5016  0.6699 -0.7468
 3071SOL     OW11844   8.332   4.441   5.457  0.4735 -0.0501  0.1259
 3071SOL    HW111845   8.344   4.349   5.433  1.4743 -0.2150  1.1585
 3071SOL    HW211846   8.237   4.452   5.462  0.2915 -0.5932 -1.5437
 3072SOL     OW11847   6.302   7.723   4.548  0.7727  0.4643  0.2490
 3072SOL    HW111848   6.259   7.720   4.634  0.1057 -0.5562 -0.1003
 3072SOL    HW211849   6.279   7.809   4.513 -0.3551  0.2381  0.3930
 3073SOL     OW11850   7.107   9.481   3.226  0.4186 -0.0188  0.4426
 3073SOL    HW111851   7.039   9.450   3.165  0.3837  1.2842 -0.2059
 3073SOL    HW211852   7.156   9.546   3.176  0.0289  1.5183  2.0044
 3074SOL     OW11853   5.472   3.694   0.364 -0.8281  0.1581  0.3606
 3074SOL    HW111854   5.539   3.708   0.431 -2.1729  0.8960  1.5845
 3074SOL    HW211855   5.500   3.613   0.320  1.6180  1.1695 -0.1490
 3075SOL     OW11856   4.581  10.208   7.124  0.1164  0.5660 -0.0711
 3075SOL    HW111857   4.626  10.290   7.142 -2.1678  2.6566 -2.9446
 3075SOL    HW211858   4.625  10.173   7.047  1.4546 -1.3319  1.4721
 3076SOL     OW11859   1.361   4.616   5.005  0.5592  0.6504 -0.1570
 3076SOL    HW111860   1.441   4.574   4.972  0.9965  0.6927  0.8129
 3076SOL    HW211861   1.316   4.647   4.927  0.7800 -0.6473 -0.8247
 3077SOL     OW11862   2.530   9.981   5.686  0.6323 -0.4545 -0.2881
 3077SOL    HW111863   2.450  10.032   5.676 -0.0515 -1.4179  0.0436
 3077SOL    HW211864   2.501   9.900   5.728  2.0483 -0.1143  1.4683
 3078SOL     OW11865   3.244   8.164   4.359 -0.0815  0.3578 -0.7779
 3078SOL    HW111866   3.302   8.233   4.327  0.6860 -0.4455 -1.1709
 3078SOL    HW211867   3.203   8.129   4.280 -0.9472  0.7704 -0.5211
 3079SOL     OW11868   2.727   1.234   8.109 -0.0178 -0.2688  0.2388
 3079SOL    HW111869   2.813   1.271   8.086 -0.4720  0.6607 -0.0516
 3079SOL    HW211870   2.742   1.183   8.188  0.6919  0.4106  0.5576
 3080SOL     OW11871   9.367   4.440   4.395  0.1074  0.0964 -0.3866
 3080SOL    HW111872   9.442   4.381   4.399 -0.2627 -0.3632 -0.1251
 3080SOL    HW211873   9.397   4.514   4.342 -0.2005 -1.4407 -2.8757
 3081SOL     OW11874   2.311   9.079   5.781 -0.3039  0.0933  0.1267
 3081SOL    HW111875   2.287   9.142   5.714  1.3406  1.2531  0.5853
 3081SOL    HW211876   2.310   9.129   5.863  1.1777 -0.3949  0.4757
 3082SOL     OW11877   0.120   0.650   6.804 -0.2839  0.3635  0.1885
 3082SOL    HW111878   0.054   0.646   6.873  0.8885 -0.8328  1.3053
 3082SOL    HW211879   0.193   0.697   6.843  0.4580 -0.4642 -0.1505
 3083SOL     OW11880   5.613   6.466   8.503  0.0769 -0.5674  0.5324
 3083SOL    HW111881   5.665   6.526   8.557  0.0967 -0.6204  0.5735
 3083SOL    HW211882   5.676   6.401   8.472  0.0414 -0.6142  0.5565
 3084SOL     OW11883   2.946   1.911   3.785  0.0940  0.1768  0.0575
 3084SOL    HW111884   3.033   1.899   3.747 -0.7527  1.0971 -2.3553
 3084SOL    HW211885   2.893   1.840   3.747 -0.4110  0.0678  0.9262
 3085SOL     OW11886   7.313   4.137   2.032 -0.0252 -0.4723  0.5893
 3085SOL    HW111887   7.217   4.134   2.037 -0.0504 -1.8822 -0.2872
 3085SOL    HW211888   7.332   4.215   1.980 -0.7588 -0.8330 -0.2407
 3086SOL     OW11889   8.502  10.116   3.882  0.4312  0.0401  0.0511
 3086SOL    HW111890   8.526  10.148   3.795  1.8671 -3.4339 -1.0142
 3086SOL    HW211891   8.445  10.041   3.865  1.6921 -1.4412  2.0008
 3087SOL     OW11892   2.718   9.740   2.849 -0.7282 -0.0983  0.2764
 3087SOL    HW111893   2.748   9.675   2.785  0.1862  0.1136  0.4638
 3087SOL    HW211894   2.702   9.689   2.929 -1.1829 -0.2626  0.0813
 3088SOL     OW11895   9.001   6.843   3.869 -0.4456  0.1956 -0.5634
 3088SOL    HW111896   9.086   6.797   3.867  0.2427  1.1483  1.9390
 3088SOL    HW211897   8.981   6.849   3.963 -3.0153  0.5387 -1.0861
 3089SOL     OW11898   7.151   0.024   4.121 -0.0228 -0.5389 -0.0109
 3089SOL    HW111899   7.220   0.086   4.100 -0.3971 -0.1764 -0.1858
 3089SOL    HW211900   7.088   0.033   4.049 -0.9106  0.1188  0.8201
 3090SOL     OW11901   3.765   7.700   2.023 -0.2005 -0.4273  0.0291
 3090SOL    HW111902   3.699   7.659   1.967  0.3885 -0.7395 -0.4508
 3090SOL    HW211903   3.747   7.794   2.017 -0.5769 -0.5063 -0.1224
 3091SOL     OW11904   2.220   9.698  10.336  0.4784 -0.2290 -0.3305
 3091SOL    HW111905   2.202   9.627  10.397  1.0328 -0.0008  0.1026
 3091SOL    HW211906   2.248   9.771  10.391  0.2769  0.2140 -0.8001
 3092SOL     OW11907   8.751   1.957   8.099 -0.4312  0.1677 -0.4688
 3092SOL    HW111908   8.822   2.001   8.053  0.1058  0.8963  0.9747
 3092SOL    HW211909   8.794   1.918   8.175 -1.6984  1.5500  1.0310
 3093SOL     OW11910   9.986   7.681   1.868  0.3001 -0.4251  0.3096
 3093SOL    HW111911   9.960   7.696   1.777  2.2502  1.8519  0.0401
 3093SOL    HW211912  10.054   7.613   1.863 -0.3746 -1.1060  0.2207
 3094SOL     OW11913   7.374   8.416   7.304  0.1120 -0.1525  0.4157
 3094SOL    HW111914   7.322   8.474   7.248  0.0883  0.1204  0.7179
 3094SOL    HW211915   7.337   8.329   7.289 -0.2442 -0.0027  0.4069
 3095SOL     OW11916   6.072   0.136   7.561  0.3800  0.0568  0.6358
 3095SOL    HW111917   6.165   0.124   7.581  0.2631 -0.2920  0.9802
 3095SOL    HW211918   6.028   0.127   7.646 -0.1552 -1.6680  0.2053
 3096SOL     OW11919   2.070   9.467   1.455 -0.4426 -0.2247  0.0820
 3096SOL    HW111920   2.134   9.496   1.520  0.2221 -0.9915 -0.2095
 3096SOL    HW211921   2.085   9.372   1.448 -0.3898 -0.1340 -1.3090
 3097SOL     OW11922   5.802   9.212   4.509  0.2695  0.5128 -0.4036
 3097SOL    HW111923   5.818   9.203   4.603 -0.5948  0.4644 -0.2588
 3097SOL    HW211924   5.824   9.125   4.473  1.2942  0.7371 -0.3618
 3098SOL     OW11925   9.479   1.040   0.422  0.2524 -0.4956 -0.3352
 3098SOL    HW111926   9.423   0.964   0.405  1.1554 -1.1133 -0.6796
 3098SOL    HW211927   9.568   1.004   0.423  0.7361  0.6248 -0.8979
 3099SOL     OW11928   0.948   7.507   6.977  0.1923 -0.4133 -0.0248
 3099SOL    HW111929   1.034   7.487   7.015 -0.2718  1.2713  2.1335
 3099SOL    HW211930   0.886   7.479   7.045 -0.6530  3.6309  1.1226
 3100SOL     OW11931   0.987   2.346   1.481  0.0776 -0.0761 -0.0104
 3100SOL    HW111932   0.939   2.267   1.457  1.1658 -0.5422 -0.7399
 3100SOL    HW211933   0.999   2.393   1.398 -0.6496  0.9290  0.4287
 3101SOL     OW11934   2.193   2.615   6.247  0.0938 -0.2988  0.2779
 3101SOL    HW111935   2.127   2.546   6.250 -1.4949  1.1117 -0.4950
 3101SOL    HW211936   2.161   2.675   6.180  2.1507  0.4945 -0.0637
 3102SOL     OW11937   6.015   3.365   0.761  0.1243 -0.0392  0.4015
 3102SOL    HW111938   6.100   3.363   0.805 -0.2882 -0.2325  1.2061
 3102SOL    HW211939   6.006   3.456   0.732  0.2480  0.1744  1.0221
 3103SOL     OW11940   0.604   9.723   6.647  0.1777 -0.0488  0.1968
 3103SOL    HW111941   0.517   9.687   6.664  0.5986 -1.1672  0.0951
 3103SOL    HW211942   0.623   9.778   6.723 -0.8743  0.7359 -0.0926
 3104SOL     OW11943   7.512   0.340   1.842  0.4897 -0.3866 -0.2592
 3104SOL    HW111944   7.419   0.334   1.821  0.4033 -1.7196  0.4047
 3104SOL    HW211945   7.539   0.249   1.856  1.9503 -0.0382 -0.6865
 3105SOL     OW11946   6.025   6.080   3.763 -0.1940 -0.2389  0.0245
 3105SOL    HW111947   5.986   6.027   3.694  0.9987 -1.6370  0.3768
 3105SOL    HW211948   6.063   6.017   3.824  0.6397  1.0062  0.8471
 3106SOL     OW11949   1.408   5.880   3.585  0.3914 -0.5232 -0.0832
 3106SOL    HW111950   1.314   5.871   3.567  0.7591 -1.4655 -1.8295
 3106SOL    HW211951   1.413   5.898   3.679 -1.6375  2.0341 -0.3390
 3107SOL     OW11952   5.672   2.367   0.094 -0.5569  0.2369  0.2053
 3107SOL    HW111953   5.681   2.400   0.005  0.2247  0.5307  0.3819
 3107SOL    HW211954   5.682   2.444   0.150 -0.6740 -0.0000  0.5597
 3108SOL     OW11955   8.939   1.629   1.518  0.1354  0.0762  0.6825
 3108SOL    HW111956   9.031   1.645   1.497 -0.0862 -1.6156 -2.0475
 3108SOL    HW211957   8.897   1.714   1.507  0.7523  0.1165 -2.2173
 3109SOL     OW11958   1.997   2.681   7.622  0.3153 -0.0801  0.0597
 3109SOL    HW111959   2.092   2.667   7.616  0.6762  2.0175 -0.0563
 3109SOL    HW211960   1.988   2.750   7.688 -1.1120  0.0191 -0.2125
 3110SOL     OW11961   2.934   8.349   1.491 -0.0012  0.5142 -0.0972
 3110SOL    HW111962   3.011   8.293   1.494 -0.1689  0.2970  0.4492
 3110SOL    HW211963   2.944   8.408   1.566  0.3243  1.4322 -0.8424
 3111SOL     OW11964   1.521   8.868   3.721 -0.0741  0.5079  0.1437
 3111SOL    HW111965   1.588   8.927   3.757  1.1427 -0.7779  0.0544
 3111SOL    HW211966   1.447   8.878   3.780  0.1387  2.0398  0.1920
 3112SOL     OW11967   3.328   1.339   2.686 -0.9193 -0.1487 -0.2128
 3112SOL    HW111968   3.379   1.299   2.615  1.3212 -0.7718  1.6248
 3112SOL    HW211969   3.393   1.358   2.754 -3.0059  0.1671  1.8001
 3113SOL     OW11970   7.128   4.434  10.359 -0.5768  0.1043  0.5226
 3113SOL    HW111971   7.116   4.339  10.358  3.3397 -0.5666 -0.6463
 3113SOL    HW211972   7.121   4.459  10.267  0.6294  0.5347  0.5348
 3114SOL     OW11973   7.657   3.150   2.327  0.0009  0.1474 -0.2502
 3114SOL    HW111974   7.711   3.182   2.400 -2.0046  1.9438  0.5692
 3114SOL    HW211975   7.720   3.120   2.262  2.0740  3.1748  0.1532
 3115SOL     OW11976   7.420   8.109   4.778  0.1289  0.2479  0.4800
 3115SOL    HW111977   7.473   8.033   4.798 -0.5215 -0.3660 -0.0676
 3115SOL    HW211978   7.443   8.132   4.688 -0.7339 -0.2197  0.1217
 3116SOL     OW11979   3.596   7.637   1.824  0.0011 -0.0875  0.4162
 3116SOL    HW111980   3.633   7.550   1.817  1.3429  0.5381 -0.7200
 3116SOL    HW211981   3.502   7.625   1.810 -0.0179 -1.4766  1.5363
 3117SOL     OW11982   7.843   1.644   7.671  1.0634 -0.2128 -0.4233
 3117SOL    HW111983   7.920   1.667   7.723  0.7737 -0.4221  0.1112
 3117SOL    HW211984   7.828   1.552   7.690 -0.2094  0.1813  0.6801
 3118SOL     OW11985   1.899   9.631   7.965  0.0029  0.3054 -0.2363
 3118SOL    HW111986   1.927   9.690   8.035 -1.7213 -1.1331  1.7745
 3118SOL    HW211987   1.846   9.685   7.907  1.9164  1.6493 -0.8449
 3119SOL     OW11988   1.541   1.230   0.360  0.5297  0.0453 -0.0515
 3119SOL    HW111989   1.606   1.207   0.293  0.6733  0.8793 -0.2182
 3119SOL    HW211990   1.465   1.259   0.310  1.3031  2.5533  0.0587
 3120SOL     OW11991   2.469   7.786   1.228 -0.0527 -0.0383  0.0544
 3120SOL    HW111992   2.535   7.716   1.235 -2.0564 -2.0349  0.3137
 3120SOL    HW211993   2.392   7.742   1.193 -0.5838  2.7115 -2.5867
 3121SOL     OW11994   5.412   6.773   1.267 -0.1400 -0.0616 -0.0912
 3121SOL    HW111995   5.424   6.746   1.358 -0.6443  4.1460  1.4714
 3121SOL    HW211996   5.340   6.718   1.235 -0.6321 -1.0054  2.3894
 3122SOL     OW11997   0.214   2.108   6.894  0.4648  0.7306  0.6656
 3122SOL    HW111998   0.155   2.178   6.866 -0.9130 -0.1569  1.1940
 3122SOL    HW211999   0.229   2.124   6.987 -1.0394 -0.4145  1.1569
 3123SOL     OW12000   0.564   5.102   0.895 -0.7168  0.6790 -0.4206
 3123SOL    HW112001   0.632   5.119   0.830 -0.4389 -1.4108 -0.7551
 3123SOL    HW212002   0.500   5.048   0.848 -1.4546  0.7110  0.5266
 3124SOL     OW12003   9.050  10.242   1.957 -0.0007  0.4060 -0.3330
 3124SOL    HW112004   8.996  10.177   2.003 -1.6793  0.7227 -1.7719
 3124SOL    HW212005   9.035  10.225   1.864  0.8345  1.8099 -0.7599
 3125SOL     OW12006   3.720   0.682   3.772  0.9012  0.0737 -0.5788
 3125SOL    HW112007   3.797   0.627   3.760 -0.0328 -1.0752 -1.6069
 3125SOL    HW212008   3.655   0.646   3.711 -0.7714  0.3593  0.9419
 3126SOL     OW12009   4.920   1.306   3.213 -0.1745  0.1176 -0.2005
 3126SOL    HW112010   4.869   1.229   3.238 -0.3748  0.1338 -0.5486
 3126SOL    HW212011   4.965   1.280   3.133  0.0139  0.2528 -0.1399
 3127SOL     OW12012   2.247   7.965   8.513  0.1017 -0.2088 -0.6833
 3127SOL    HW112013   2.240   7.885   8.461 -0.0012  0.2241 -1.3448
 3127SOL    HW212014   2.341   7.980   8.521  0.3041 -2.2177  2.3178
 3128SOL     OW12015   5.174   3.097   5.901 -0.1258 -0.2352  0.4570
 3128SOL    HW112016   5.205   3.054   5.980  1.8422  0.8370  0.3308
 3128SOL    HW212017   5.253   3.107   5.847 -0.9188  1.4837 -0.4651
 3129SOL     OW12018   7.508   4.479   9.896  0.0153 -0.2513 -0.4344
 3129SOL    HW112019   7.417   4.454   9.913  0.2127  0.0791  1.2812
 3129SOL    HW212020   7.513   4.571   9.921  1.0271 -0.5152  0.4374
 3130SOL     OW12021   1.875   8.392   9.774  0.2750  0.4917 -0.4608
 3130SOL    HW112022   1.868   8.378   9.680  0.1826  0.4665 -0.4506
 3130SOL    HW212023   1.947   8.455   9.784  0.9125 -0.2162 -0.4791
 3131SOL     OW12024   3.794   8.225   7.181  0.0923 -0.3509  0.1545
 3131SOL    HW112025   3.864   8.287   7.161 -0.0438  0.0279  0.8347
 3131SOL    HW212026   3.835   8.158   7.236 -0.3131  0.4739  1.5110
 3132SOL     OW12027   3.758   9.565   3.042  0.3069 -0.6066 -0.3209
 3132SOL    HW112028   3.700   9.607   2.977 -0.9491 -0.9565  0.5294
 3132SOL    HW212029   3.845   9.572   3.004 -0.0226  1.6136 -0.8159
 3133SOL     OW12030   6.536   4.073   2.663  0.6357 -0.1442 -0.0331
 3133SOL    HW112031   6.491   4.155   2.644  0.1889 -0.6793 -1.4776
 3133SOL    HW212032   6.509   4.014   2.592  1.2449 -1.4208  0.7540
 3134SOL     OW12033   9.751   3.110   9.213 -0.1272 -0.0998  0.1600
 3134SOL    HW112034   9.759   3.191   9.162  0.6715 -0.5440 -0.4443
 3134SOL    HW212035   9.730   3.139   9.301  0.3579  0.7888 -0.0030
 3135SOL     OW12036   5.419   1.175   1.599  0.0989  0.4437  0.0262
 3135SOL    HW112037   5.489   1.115   1.624 -0.4194 -1.2249 -2.1746
 3135SOL    HW212038   5.350   1.160   1.663  0.1861 -0.9786 -0.1840
 3136SOL     OW12039   8.495   4.980   7.922 -0.5021 -0.4436 -0.0804
 3136SOL    HW112040   8.491   4.897   7.873  2.1410  0.0642 -1.3297
 3136SOL    HW212041   8.557   5.034   7.873 -1.2576  1.8786  1.3468
 3137SOL     OW12042   9.094   3.036   6.878  0.3058  0.4386  0.4111
 3137SOL    HW112043   8.999   3.036   6.886  0.3647 -0.2446  1.2059
 3137SOL    HW212044   9.120   3.127   6.893 -0.2772  0.7912 -0.6271
 3138SOL     OW12045   6.374   5.721   1.878  0.0563  0.1862  0.2762
 3138SOL    HW112046   6.283   5.734   1.854  0.1285 -0.8858 -0.6213
 3138SOL    HW212047   6.424   5.742   1.799  0.5167 -0.2699  0.4402
 3139SOL     OW12048   7.252   7.760   5.009  0.4183 -0.1588  0.4097
 3139SOL    HW112049   7.225   7.711   4.931 -0.5034 -0.4464  0.8888
 3139SOL    HW212050   7.320   7.705   5.050  0.3424 -0.3941  0.2234
 3140SOL     OW12051  10.141   1.047   2.163 -0.3112 -0.1971 -0.5336
 3140SOL    HW112052  10.067   1.100   2.193 -0.5960  0.9201 -2.9846
 3140SOL    HW212053  10.218   1.101   2.183 -0.2199 -0.7585  0.7580
 3141SOL     OW12054   5.129   6.054   3.482  0.2543  0.1025 -0.3827
 3141SOL    HW112055   5.087   6.074   3.565  1.5451  1.7771 -0.0917
 3141SOL    HW212056   5.092   6.117   3.420  0.2613 -0.2808 -0.7873
 3142SOL     OW12057   2.327   2.505   1.343 -0.5537 -0.0232  0.2297
 3142SOL    HW112058   2.405   2.560   1.345 -0.6832  0.3539 -1.9721
 3142SOL    HW212059   2.260   2.557   1.387 -0.2192  0.8364 -0.2411
 3143SOL     OW12060   7.509   1.304  10.204  0.0148 -0.5215 -0.4725
 3143SOL    HW112061   7.420   1.324  10.235  0.9959 -0.1887  2.3952
 3143SOL    HW212062   7.519   1.358  10.126 -1.2189  1.9530  0.9588
 3144SOL     OW12063   5.428   2.099   2.367  0.0583  0.7672 -0.1184
 3144SOL    HW112064   5.432   2.178   2.422  1.2001 -0.8881  2.3593
 3144SOL    HW212065   5.478   2.034   2.416  0.1757 -1.1842 -2.6635
 3145SOL     OW12066   3.578   6.082   5.386 -0.0829 -0.5467 -0.5651
 3145SOL    HW112067   3.595   6.042   5.472  0.8032 -1.8474 -1.3110
 3145SOL    HW212068   3.574   6.176   5.404 -1.8227 -0.8747  1.1982
 3146SOL     OW12069   8.742   9.200   5.162 -0.1150 -0.2848  0.2692
 3146SOL    HW112070   8.828   9.159   5.174  0.2552  0.1570 -0.6798
 3146SOL    HW212071   8.687   9.131   5.125 -0.1475 -0.5466  0.8033
 3147SOL     OW12072   0.923   1.838  10.078 -0.0145 -0.6352  0.3930
 3147SOL    HW112073   0.916   1.932  10.063  0.1131 -0.6978 -0.0717
 3147SOL    HW212074   0.859   1.799  10.019  0.7705 -0.9097 -0.3000
 3148SOL     OW12075   7.520   5.604   9.710 -0.0600 -0.5448  0.3407
 3148SOL    HW112076   7.608   5.641   9.715  0.2811 -1.4016  0.7677
 3148SOL    HW212077   7.532   5.510   9.720 -1.0719 -0.6300  0.9689
 3149SOL     OW12078   5.673   6.300   1.660  0.4035  0.1225  0.0742
 3149SOL    HW112079   5.656   6.347   1.742  0.9891 -1.0018  0.8718
 3149SOL    HW212080   5.720   6.363   1.606 -0.5614  1.1013  0.3340
 3150SOL     OW12081   2.696   3.949   0.389  0.2318  0.0668 -0.3311
 3150SOL    HW112082   2.661   3.869   0.349  1.1159  0.2895 -1.6143
 3150SOL    HW212083   2.716   3.925   0.480 -1.8410 -0.4562  0.0271
 3151SOL     OW12084   4.916  10.113   7.631 -0.5270  0.1133 -0.3158
 3151SOL    HW112085   4.951  10.155   7.710 -0.9910  0.5126 -0.3233
 3151SOL    HW212086   4.973  10.145   7.561 -0.3301  0.0323 -0.1957
 3152SOL     OW12087   7.757   1.542   6.927  0.2736  0.1006  0.1138
 3152SOL    HW112088   7.751   1.459   6.881 -2.1936  0.5672 -0.5413
 3152SOL    HW212089   7.668   1.577   6.926  0.9496  2.0747  1.6542
 3153SOL     OW12090   7.762   9.379   0.055 -0.3588 -0.0794  0.0551
 3153SOL    HW112091   7.847   9.340   0.037 -1.1168 -1.6099 -0.4185
 3153SOL    HW212092   7.780   9.472   0.071  1.4318 -0.4739  0.4595
 3154SOL     OW12093   0.099   4.228   6.064 -0.0057 -0.0198 -0.2239
 3154SOL    HW112094   0.138   4.305   6.104 -0.4447 -0.3413  0.8503
 3154SOL    HW212095   0.081   4.255   5.973 -0.2268  1.1643  0.1553
 3155SOL     OW12096   1.413   8.984   1.677  0.4510 -0.0190  0.7179
 3155SOL    HW112097   1.483   9.006   1.616 -1.7597  1.2984 -1.5318
 3155SOL    HW212098   1.430   9.039   1.754  1.0647  1.4656 -0.4192
 3156SOL     OW12099   1.653   9.765   6.681 -0.1498 -0.3310  0.2258
 3156SOL    HW112100   1.746   9.742   6.688 -0.4413 -1.8879 -0.5597
 3156SOL    HW212101   1.614   9.692   6.634 -1.8581  0.1162  0.8759
 3157SOL     OW12102   6.898   3.488   0.792  0.1083 -0.2012 -0.5136
 3157SOL    HW112103   6.829   3.499   0.857  0.9132  1.5862  0.0897
 3157SOL    HW212104   6.862   3.526   0.712 -0.0568 -0.4023 -0.5370
 3158SOL     OW12105   6.155   4.249   7.909  0.0827 -0.1015 -0.0128
 3158SOL    HW112106   6.090   4.254   7.980  1.1873  1.7033  0.9320
 3158SOL    HW212107   6.201   4.166   7.926 -0.0318  0.0389  1.0617
 3159SOL     OW12108   6.838   8.344   1.958 -0.2374 -0.8173 -0.1169
 3159SOL    HW112109   6.767   8.310   1.903  0.3631  1.5798 -2.6258
 3159SOL    HW212110   6.839   8.438   1.938  2.4940 -0.4881  1.2159
 3160SOL     OW12111   1.220  10.350   7.256 -0.1122  0.2106 -0.3987
 3160SOL    HW112112   1.195  10.441   7.242  1.3658  0.6442 -0.4041
 3160SOL    HW212113   1.310  10.345   7.226 -0.3940 -1.4467 -1.0773
 3161SOL     OW12114   2.421   9.219   4.459 -0.1576  0.1429 -0.3381
 3161SOL    HW112115   2.381   9.284   4.516 -0.5808  1.2914 -1.8850
 3161SOL    HW212116   2.354   9.200   4.393  1.1339  0.6581 -1.8473
 3162SOL     OW12117   5.492   1.564   0.861 -0.0725 -0.4210  0.1321
 3162SOL    HW112118   5.406   1.524   0.874  0.2425 -1.0389  0.3432
 3162SOL    HW212119   5.497   1.632   0.929 -0.1883 -0.7338  0.4616
 3163SOL     OW12120   9.663   0.055   2.156  0.2570 -0.4777 -0.3016
 3163SOL    HW112121   9.643   0.142   2.122 -1.3696 -0.8394 -0.3336
 3163SOL    HW212122   9.672   0.000   2.078  0.7393 -0.4617 -0.2621
 3164SOL     OW12123   9.265   7.062   7.042 -0.2783 -0.4393  0.4924
 3164SOL    HW112124   9.201   7.121   7.081  0.9381  0.4989  1.1331
 3164SOL    HW212125   9.224   6.976   7.047 -0.8500 -0.1062  2.3252
 3165SOL     OW12126   0.907   0.942   4.923 -0.3593 -0.2570 -0.5919
 3165SOL    HW112127   0.862   0.859   4.941 -0.0254 -0.1271  0.9709
 3165SOL    HW212128   0.846   0.991   4.868 -1.3518 -0.8187 -0.0200
 3166SOL     OW12129   7.893   6.940   2.261 -0.3230  0.5647  0.4150
 3166SOL    HW112130   7.883   6.853   2.223  1.5498  1.1659 -1.6687
 3166SOL    HW212131   7.809   6.982   2.249 -0.3672  0.0456 -1.3613
 3167SOL     OW12132   7.118   5.847   0.589  0.0687  0.3557  0.4782
 3167SOL    HW112133   7.038   5.800   0.613 -1.4964  2.9829  0.7843
 3167SOL    HW212134   7.186   5.807   0.643 -1.1926 -1.2644  0.9836
 3168SOL     OW12135   7.389   7.150   5.477  0.6359  0.2114 -0.7483
 3168SOL    HW112136   7.319   7.170   5.416 -0.4931  0.2772  0.5109
 3168SOL    HW212137   7.358   7.184   5.561 -0.3437 -4.4588  1.0706
 3169SOL     OW12138   8.379   9.894   0.761  0.1068  0.0925 -0.2113
 3169SOL    HW112139   8.319   9.935   0.699 -0.5363  2.1755  1.6655
 3169SOL    HW212140   8.322   9.838   0.815  0.6492 -1.6377 -1.3413
 3170SOL     OW12141   6.637   2.413   3.139 -0.4803  0.6895 -0.2533
 3170SOL    HW112142   6.577   2.344   3.166  1.0356 -0.6654 -0.1567
 3170SOL    HW212143   6.624   2.422   3.045  0.5744 -1.0773 -0.6036
 3171SOL     OW12144   8.123   8.800   0.261  0.2885 -0.5023 -0.0129
 3171SOL    HW112145   8.070   8.736   0.213 -0.6538  0.0280  0.3012
 3171SOL    HW212146   8.069   8.878   0.264  0.5171 -0.3827  1.5285
 3172SOL     OW12147   2.373   8.091   2.170 -0.0435 -0.2397 -0.2373
 3172SOL    HW112148   2.297   8.130   2.128  0.0695  0.3654  0.1026
 3172SOL    HW212149   2.438   8.160   2.171 -0.3378  0.0870  1.6993
 3173SOL     OW12150   0.623   2.828   0.131  0.0757  0.4985 -0.3651
 3173SOL    HW112151   0.595   2.884   0.204  0.9272  0.8077 -0.2653
 3173SOL    HW212152   0.552   2.765   0.121  0.7281 -0.7331  1.9418
 3174SOL     OW12153   4.600   2.929  10.298 -0.6906 -0.3804 -0.1021
 3174SOL    HW112154   4.598   3.018  10.262 -0.7606  0.1889  1.2603
 3174SOL    HW212155   4.639   2.877  10.228  0.7381  0.9814 -0.3793
 3175SOL     OW12156   1.267   6.345   0.761  0.1634  0.1284  0.0704
 3175SOL    HW112157   1.213   6.418   0.794 -0.1666 -0.1593  0.1761
 3175SOL    HW212158   1.344   6.387   0.723  0.6468  0.4734  1.3710
 3176SOL     OW12159   2.526   0.180   2.363  0.4571  0.2978 -0.1599
 3176SOL    HW112160   2.591   0.112   2.378 -0.5917 -0.4492  1.2944
 3176SOL    HW212161   2.544   0.211   2.275  1.6685 -1.0994 -0.4490
 3177SOL     OW12162   1.018   4.429   4.321 -0.2917  0.5192 -0.1939
 3177SOL    HW112163   1.076   4.445   4.247 -3.1237  0.7005 -2.5957
 3177SOL    HW212164   0.980   4.515   4.340 -2.0438 -0.0666 -0.8420
 3178SOL     OW12165   1.517   0.208   6.571  0.6871  0.6550 -0.0002
 3178SOL    HW112166   1.516   0.204   6.667 -0.6797 -1.4231 -0.0292
 3178SOL    HW212167   1.606   0.181   6.547  1.0357  1.1765  0.6558
 3179SOL     OW12168   8.043   0.425   6.539 -0.5974 -0.1936 -0.5531
 3179SOL    HW112169   7.991   0.476   6.601  0.0823  0.3924 -0.4470
 3179SOL    HW212170   7.985   0.411   6.465 -0.3277  2.1787 -1.3121
 3180SOL     OW12171   4.153   9.715   4.382  0.0314 -0.3105 -0.1001
 3180SOL    HW112172   4.144   9.652   4.310 -0.5203 -1.0167  0.5716
 3180SOL    HW212173   4.211   9.671   4.445  0.5190  0.3084 -0.1065
 3181SOL     OW12174   5.224   1.629   3.920  0.1739 -0.6012  0.2751
 3181SOL    HW112175   5.252   1.684   3.847 -1.9933  0.6309  0.2698
 3181SOL    HW212176   5.270   1.665   3.996 -0.5469  0.7213  0.1217
 3182SOL     OW12177   2.200   2.831   4.750  0.1193  0.2430 -0.9404
 3182SOL    HW112178   2.173   2.900   4.810  1.6203 -0.5831  0.7693
 3182SOL    HW212179   2.296   2.832   4.754  0.2033 -0.9776 -2.0049
 3183SOL     OW12180   0.088   0.774   0.563  0.8271  0.4828  0.3261
 3183SOL    HW112181   0.093   0.861   0.524 -0.6824  0.7241  0.5902
 3183SOL    HW212182   0.058   0.717   0.492 -0.3910  0.6258  0.7066
 3184SOL     OW12183   2.927   2.181   6.018  0.0189  0.4386  0.5106
 3184SOL    HW112184   2.932   2.093   6.055 -0.9867  0.4016  0.5615
 3184SOL    HW212185   3.014   2.195   5.980 -0.1157 -1.0027 -0.4374
 3185SOL     OW12186   5.489   1.044   0.573 -0.0217 -0.5378 -0.5147
 3185SOL    HW112187   5.456   1.077   0.656 -0.4296 -1.4958 -0.2854
 3185SOL    HW212188   5.580   1.073   0.570 -0.2662  0.2905 -0.1629
 3186SOL     OW12189   9.234   2.550  10.019 -0.3694  0.4637 -0.6560
 3186SOL    HW112190   9.267   2.618   9.960  0.1899  0.1418 -0.7144
 3186SOL    HW212191   9.236   2.470   9.967 -1.0017  0.3910 -0.5775
 3187SOL     OW12192   5.608   4.733   7.243 -0.2209  0.2903  1.0733
 3187SOL    HW112193   5.556   4.813   7.251 -0.3860  0.4132 -0.8443
 3187SOL    HW212194   5.570   4.673   7.306 -1.4308  1.0403  1.0836
 3188SOL     OW12195   4.616   9.462   3.679  0.0039  0.2766  0.2914
 3188SOL    HW112196   4.602   9.367   3.679 -0.1148  0.2866 -0.5559
 3188SOL    HW212197   4.646   9.482   3.590 -0.8349  1.1519  0.1824
 3189SOL     OW12198   2.979   9.666   0.289  0.2937 -0.4338  0.2273
 3189SOL    HW112199   2.994   9.580   0.249 -0.3140 -1.7482  2.5679
 3189SOL    HW212200   2.886   9.682   0.275  0.6051  0.3180 -1.0314
 3190SOL     OW12201   2.204   2.582   5.803  0.1555 -0.1266 -1.0433
 3190SOL    HW112202   2.116   2.611   5.827 -0.2351  0.6260 -3.1817
 3190SOL    HW212203   2.262   2.636   5.857 -0.6598 -0.9237  0.6915
 3191SOL     OW12204  10.108   4.866   9.943  0.6211 -0.3018  0.4714
 3191SOL    HW112205  10.173   4.919   9.988 -1.2797  1.4532  1.2811
 3191SOL    HW212206  10.047   4.838  10.012  0.5537 -2.0241 -0.2289
 3192SOL     OW12207   0.304   1.134   3.169 -0.0273 -0.3231 -0.0657
 3192SOL    HW112208   0.221   1.155   3.124 -0.3553  0.2910  0.8007
 3192SOL    HW212209   0.330   1.216   3.210  0.9605 -0.5481 -0.2328
 3193SOL     OW12210   9.108   8.887   7.272  0.1775 -0.1245  0.1680
 3193SOL    HW112211   9.085   8.975   7.301  0.8781 -0.5054  2.0265
 3193SOL    HW212212   9.087   8.831   7.347  0.1330 -1.4919 -0.8329
 3194SOL     OW12213   4.824   7.513   8.304 -0.3974  0.1210  0.1058
 3194SOL    HW112214   4.824   7.535   8.211 -2.1599 -0.0346  0.0356
 3194SOL    HW212215   4.915   7.489   8.323 -0.3714 -1.8758 -2.0665
 3195SOL     OW12216   6.924   4.265   2.219  0.1934 -0.1089 -0.4006
 3195SOL    HW112217   6.929   4.188   2.163 -0.9978  0.7583 -1.7983
 3195SOL    HW212218   6.889   4.334   2.162  2.6090  1.8958  0.3498
 3196SOL     OW12219   7.780   8.717   6.700  0.4065 -0.3685 -0.0990
 3196SOL    HW112220   7.770   8.622   6.690  0.6559 -0.7093  2.2954
 3196SOL    HW212221   7.870   8.735   6.673  1.0090 -1.1628  1.2840
 3197SOL     OW12222   4.311   7.742   6.774  0.0879 -0.5159 -0.1047
 3197SOL    HW112223   4.323   7.816   6.834 -1.2884  0.8568 -1.4476
 3197SOL    HW212224   4.311   7.665   6.831  0.7862  0.5626  1.4197
 3198SOL     OW12225   8.103   4.425   2.730  0.1054  0.1414 -0.1914
 3198SOL    HW112226   8.017   4.431   2.690  0.7977  0.2296 -1.7562
 3198SOL    HW212227   8.164   4.447   2.659  1.4016  0.3637  0.9422
 3199SOL     OW12228   9.001   7.319   4.316 -0.2339 -0.0480 -0.5322
 3199SOL    HW112229   9.051   7.386   4.270 -0.0848  0.8707  0.9020
 3199SOL    HW212230   9.046   7.237   4.297 -0.1438  0.3003 -1.9287
 3200SOL     OW12231   8.077   2.663   4.774  0.0264  0.5373  0.4439
 3200SOL    HW112232   8.131   2.630   4.702 -0.2695  2.0213 -0.5166
 3200SOL    HW212233   8.133   2.656   4.851  0.3216 -1.1703  0.1080
 3201SOL     OW12234   5.024   1.750   1.533  0.0719 -0.2561  0.0660
 3201SOL    HW112235   5.098   1.723   1.479 -0.6237 -2.0869 -0.0225
 3201SOL    HW212236   4.955   1.770   1.470  0.2544  0.7905  0.1778
 3202SOL     OW12237   9.267   8.304   8.324 -0.5402  0.1389  0.2902
 3202SOL    HW112238   9.316   8.383   8.348 -0.7970  0.2021  0.6073
 3202SOL    HW212239   9.185   8.311   8.373 -0.4311 -0.4840  0.5649
 3203SOL     OW12240   3.874   0.747   3.041 -0.1225 -0.2568 -0.7042
 3203SOL    HW112241   3.885   0.654   3.060 -1.5554 -0.3032  0.0750
 3203SOL    HW212242   3.945   0.790   3.090 -1.0249 -0.7566  1.1362
 3204SOL     OW12243   8.083   7.094   1.912  0.1327 -0.1236 -0.3202
 3204SOL    HW112244   8.016   7.162   1.911  0.0545 -0.1971  0.0303
 3204SOL    HW212245   8.105   7.081   1.819  1.5142  1.7256 -0.3253
 3205SOL     OW12246   3.360   2.125   2.347 -0.2335 -0.6537  0.3671
 3205SOL    HW112247   3.432   2.182   2.373  2.5511 -2.1363 -3.1716
 3205SOL    HW212248   3.304   2.180   2.293  0.0436 -0.2665  0.4690
 3206SOL     OW12249   7.534   8.172   3.794 -0.1531 -0.4214  0.2237
 3206SOL    HW112250   7.444   8.159   3.824  0.0691 -1.6574  0.4399
 3206SOL    HW212251   7.542   8.114   3.718  0.6185 -0.7970  0.5758
 3207SOL     OW12252   5.506   6.400   5.587 -0.5082 -0.0726  0.9108
 3207SOL    HW112253   5.576   6.354   5.540 -0.3395  0.5970  0.4841
 3207SOL    HW212254   5.425   6.364   5.552 -0.3913  0.6714 -0.1895
 3208SOL     OW12255   1.278   9.776   5.930 -0.2143  0.0467 -0.0596
 3208SOL    HW112256   1.216   9.730   5.874 -0.1352  0.2542 -0.3177
 3208SOL    HW212257   1.224   9.834   5.984 -0.1880  0.7667 -0.7919
 3209SOL     OW12258   2.831   1.764   9.772 -0.0244 -0.5040  0.2901
 3209SOL    HW112259   2.880   1.741   9.850  0.9285  0.7028  0.0824
 3209SOL    HW212260   2.877   1.719   9.701  0.0968 -0.2883  0.2312
 3210SOL     OW12261   4.438   8.289   4.263 -0.7808 -0.4862  0.0598
 3210SOL    HW112262   4.426   8.199   4.292  0.5324 -0.9332 -0.6991
 3210SOL    HW212263   4.484   8.281   4.179  0.4498  0.9119  0.5695
 3211SOL     OW12264   2.157   3.186   0.485  0.3574  0.0090 -0.5592
 3211SOL    HW112265   2.100   3.198   0.561  0.5016  2.1691 -0.7393
 3211SOL    HW212266   2.183   3.094   0.489 -2.2837 -0.7978  0.1162
 3212SOL     OW12267  10.049   7.958   8.512 -0.4091  0.2953  0.0656
 3212SOL    HW112268  10.079   7.904   8.585 -2.0301 -1.9717 -0.8492
 3212SOL    HW212269  10.108   7.937   8.440 -2.5099 -2.3828 -1.0440
 3213SOL     OW12270   1.177   2.519   2.302 -0.3462  0.0327 -0.3516
 3213SOL    HW112271   1.123   2.441   2.304  0.0487 -0.2819 -1.3232
 3213SOL    HW212272   1.221   2.520   2.387 -1.9053  0.3448  0.4959
 3214SOL     OW12273   6.509   9.343   4.601 -0.2058  0.4980 -0.2636
 3214SOL    HW112274   6.472   9.429   4.586  0.4587  0.5625 -1.6638
 3214SOL    HW212275   6.435   9.289   4.630 -0.7106  1.4096  0.1718
 3215SOL     OW12276   2.876   4.256   4.899 -0.4127  0.3220  0.1099
 3215SOL    HW112277   2.885   4.254   4.803  2.1663 -0.9277  0.2613
 3215SOL    HW212278   2.885   4.164   4.925  0.5582  0.8043  1.6161
 3216SOL     OW12279   0.345   1.482   5.522 -0.2399  0.3614 -0.1655
 3216SOL    HW112280   0.426   1.495   5.473 -0.3194 -0.7386 -0.6145
 3216SOL    HW212281   0.313   1.571   5.541  1.0202  0.8052 -0.0497
 3217SOL     OW12282   4.874   3.335   8.162 -0.0221 -0.2227 -0.2976
 3217SOL    HW112283   4.954   3.354   8.212  0.2216 -1.4853 -0.1558
 3217SOL    HW212284   4.878   3.240   8.146 -2.4099 -0.7033  1.3579
 3218SOL     OW12285   0.893   6.980   6.990 -0.0515 -0.0106  0.0528
 3218SOL    HW112286   0.858   7.005   7.075 -1.6266 -1.5600 -0.0842
 3218SOL    HW212287   0.930   7.060   6.954 -1.1200  1.1087  1.3726
 3219SOL     OW12288   1.023  10.083  10.235  0.6182  0.1309  0.0490
 3219SOL    HW112289   0.975  10.166  10.236  1.2027  0.5100 -1.1261
 3219SOL    HW212290   1.062  10.079  10.148  0.9595 -1.1845  0.2367
 3220SOL     OW12291   7.110   7.135   5.458 -0.0443  0.1395 -0.1137
 3220SOL    HW112292   7.027   7.088   5.455 -1.0909  1.8158  0.9927
 3220SOL    HW212293   7.120   7.171   5.370 -1.9615  2.2473  0.4475
 3221SOL     OW12294   0.535   8.972   1.231 -0.6286 -0.3614  0.5073
 3221SOL    HW112295   0.617   8.982   1.182 -0.4601 -2.4586  0.2491
 3221SOL    HW212296   0.521   9.057   1.272  0.1196  0.9724 -1.8085
 3222SOL     OW12297   8.259   9.587   2.999 -0.5111 -0.2271  0.1601
 3222SOL    HW112298   8.312   9.633   3.064 -0.5740  0.8060 -0.4936
 3222SOL    HW212299   8.322   9.562   2.931 -0.4527 -1.2603  0.5847
 3223SOL     OW12300   9.724   2.789   6.165 -0.2464 -0.2966  0.5411
 3223SOL    HW112301   9.659   2.755   6.227  0.6702 -0.6177  1.3469
 3223SOL    HW212302   9.679   2.789   6.081 -1.4172 -0.1330  1.1531
 3224SOL     OW12303   4.042   0.871   2.195 -0.3518  0.1282  0.3572
 3224SOL    HW112304   4.020   0.822   2.116  1.0504 -0.0559  0.0520
 3224SOL    HW212305   4.028   0.808   2.266  0.5272 -0.4556  0.0445
 3225SOL     OW12306   6.294   3.874   7.065 -0.4000  0.0132  0.4049
 3225SOL    HW112307   6.222   3.834   7.113 -0.5847  0.0529  0.1600
 3225SOL    HW212308   6.284   3.843   6.975  0.1167 -0.3010  0.4476
 3226SOL     OW12309   8.715   1.548   6.966 -0.3120 -0.4428 -0.5878
 3226SOL    HW112310   8.792   1.535   7.021 -1.5303  0.3157  1.3571
 3226SOL    HW212311   8.650   1.486   6.999 -1.2984  0.4994 -0.6831
 3227SOL     OW12312   2.304   7.915   9.804 -0.0251  0.3255  0.0007
 3227SOL    HW112313   2.348   7.862   9.870 -0.3766  0.0511  0.0207
 3227SOL    HW212314   2.217   7.931   9.841 -0.0488  0.5932 -0.1727
 3228SOL     OW12315   9.664   4.472   6.904  0.9186 -0.0052  0.5340
 3228SOL    HW112316   9.604   4.440   6.838  0.9301  1.7956 -0.4147
 3228SOL    HW212317   9.743   4.419   6.893 -0.1221 -1.7599  1.1765
 3229SOL     OW12318   3.169   7.886   7.547 -0.8014  0.0472 -0.1635
 3229SOL    HW112319   3.129   7.926   7.624 -1.2306 -0.6313 -0.0265
 3229SOL    HW212320   3.262   7.881   7.568 -1.2303 -2.7110  1.5388
 3230SOL     OW12321   2.088   0.106  10.011 -0.0198  0.4545 -0.4519
 3230SOL    HW112322   2.075   0.176  10.076 -1.5009  1.0410 -1.3398
 3230SOL    HW212323   2.070   0.025  10.060 -1.6907  0.9226 -0.2275
 3231SOL     OW12324   4.841   8.398   9.466 -0.3713 -0.5360 -0.3098
 3231SOL    HW112325   4.848   8.312   9.426  1.8184 -0.7650  0.4233
 3231SOL    HW212326   4.930   8.434   9.461 -1.1590  1.5527 -0.3078
 3232SOL     OW12327   8.575   9.803   7.118 -0.2251 -0.2062  0.3934
 3232SOL    HW112328   8.568   9.743   7.192 -2.2029 -0.7208 -0.1408
 3232SOL    HW212329   8.589   9.747   7.042  1.7430  0.3142  0.3231
 3233SOL     OW12330   8.340   3.304   8.788 -0.5805  0.0168 -0.1672
 3233SOL    HW112331   8.341   3.360   8.865  0.3385 -0.9963  0.5935
 3233SOL    HW212332   8.369   3.218   8.820 -1.8799 -0.8903 -1.2963
 3234SOL     OW12333   7.038   8.168   7.470 -0.4368 -0.1059  0.5032
 3234SOL    HW112334   7.096   8.128   7.535  0.3424  1.3822  0.7726
 3234SOL    HW212335   7.019   8.255   7.505 -0.5096  0.5040 -0.9584
 3235SOL     OW12336   6.114  10.177   1.541 -1.0485  0.0703  0.5699
 3235SOL    HW112337   6.020  10.181   1.530 -1.3477  1.7499  2.9078
 3235SOL    HW212338   6.140  10.266   1.563  1.1163 -0.3366 -0.0046
 3236SOL     OW12339   8.186   6.600   3.799 -0.5843  0.0130  0.2930
 3236SOL    HW112340   8.256   6.601   3.864 -1.1209  1.9791  0.9372
 3236SOL    HW212341   8.147   6.688   3.805 -2.7935 -0.8506 -0.3700
 3237SOL     OW12342   9.239   2.298   6.443  0.0647  0.2234  0.8086
 3237SOL    HW112343   9.204   2.307   6.531  0.3170  2.7709  0.7141
 3237SOL    HW212344   9.163   2.278   6.388 -0.2423 -0.3835  1.4425
 3238SOL     OW12345   5.901   4.077   4.601 -0.3247  0.6972  0.4380
 3238SOL    HW112346   5.868   4.022   4.672 -1.2948 -0.5298 -0.9181
 3238SOL    HW212347   5.822   4.114   4.561 -0.0529 -1.0032 -1.8448
 3239SOL     OW12348   1.690   4.415   3.468 -0.8485 -0.2727  0.4414
 3239SOL    HW112349   1.785   4.413   3.479 -0.5899  3.1442  0.0648
 3239SOL    HW212350   1.663   4.323   3.468  2.3868 -1.3379  0.8863
 3240SOL     OW12351   8.714   0.421   5.932  0.4433 -0.5032  0.2783
 3240SOL    HW112352   8.733   0.510   5.901 -1.4402 -0.8208 -2.0356
 3240SOL    HW212353   8.800   0.378   5.932  1.0186  0.5153 -1.3735
 3241SOL     OW12354   6.979   9.155   9.891 -0.1844  0.5451 -0.0985
 3241SOL    HW112355   7.014   9.239   9.918  1.9690  0.0388 -1.1095
 3241SOL    HW212356   7.045   9.091   9.918 -1.3026 -0.7170 -0.2385
 3242SOL     OW12357   7.863  10.349   7.774 -0.1411  0.2716 -0.2677
 3242SOL    HW112358   7.937  10.393   7.816 -0.8709  0.9581  0.3396
 3242SOL    HW212359   7.899  10.314   7.693  1.1792 -0.5715  0.6319
 3243SOL     OW12360   3.251  10.146   8.768  0.1789  0.2007  0.1115
 3243SOL    HW112361   3.224  10.180   8.682  0.2014 -2.1337 -0.8994
 3243SOL    HW212362   3.172  10.150   8.822  0.4097  2.6295  0.3616
 3244SOL     OW12363   1.132   5.950   3.548 -0.0738  0.3442  0.3779
 3244SOL    HW112364   1.157   6.011   3.478  1.5017 -0.4673  0.1838
 3244SOL    HW212365   1.050   5.911   3.518  0.6623 -0.1277 -1.1473
 3245SOL     OW12366   3.295   6.475   6.846 -0.2716  0.0895 -0.6254
 3245SOL    HW112367   3.227   6.465   6.779 -0.3774  2.9471 -1.0725
 3245SOL    HW212368   3.247   6.475   6.929 -0.4402 -0.7724 -0.7059
 3246SOL     OW12369   0.603   6.247   1.423  0.1439  0.2994 -0.0306
 3246SOL    HW112370   0.617   6.282   1.511  2.0902  0.5281 -0.3682
 3246SOL    HW212371   0.679   6.278   1.374 -0.2261 -0.9452 -1.4386
 3247SOL     OW12372   0.255   1.096   8.409 -0.2125 -0.3596 -0.3165
 3247SOL    HW112373   0.292   1.018   8.368 -1.2964 -1.4193  0.6535
 3247SOL    HW212374   0.283   1.091   8.500  1.5904  1.6058 -0.7029
 3248SOL     OW12375   2.604   4.220   5.611  0.1086 -0.0782 -0.2427
 3248SOL    HW112376   2.589   4.184   5.524 -0.0822 -0.7708  0.0683
 3248SOL    HW212377   2.516   4.227   5.650  0.1475  0.6877 -0.2806
 3249SOL     OW12378   7.496   2.761   2.337  0.4716 -0.4105 -0.6066
 3249SOL    HW112379   7.515   2.831   2.274  0.6562  0.0266 -0.0821
 3249SOL    HW212380   7.577   2.753   2.388  0.7338 -1.5724 -1.1764
 3250SOL     OW12381   4.742   4.317   1.955  0.7357 -0.1113  0.2614
 3250SOL    HW112382   4.746   4.310   1.860 -0.2138 -1.9298  0.3035
 3250SOL    HW212383   4.661   4.365   1.972  1.0081  0.3880  0.1474
 3251SOL     OW12384   9.697   9.895   1.099 -0.0614  0.1532 -0.0984
 3251SOL    HW112385   9.736   9.927   1.018 -0.6698 -2.9736 -1.7953
 3251SOL    HW212386   9.711   9.800   1.097 -1.5179 -0.2338  2.6915
 3252SOL     OW12387   9.737   2.661  10.349 -0.0952  0.0190  0.4166
 3252SOL    HW112388   9.816   2.612  10.374 -0.3149  0.0244  1.1247
 3252SOL    HW212389   9.735   2.655  10.253  0.7910  0.0563  0.3866
 3253SOL     OW12390   9.243   0.837   9.125 -0.1876  0.4763 -0.0300
 3253SOL    HW112391   9.260   0.773   9.194 -0.3267  0.6847  0.2009
 3253SOL    HW212392   9.327   0.882   9.113  0.3438 -0.8152 -1.3111
 3254SOL     OW12393   7.137   4.780   9.321  0.2212  0.2595  0.4744
 3254SOL    HW112394   7.192   4.774   9.243  0.3057 -0.5242  0.5790
 3254SOL    HW212395   7.063   4.721   9.303 -0.2266  0.7655  0.6200
 3255SOL     OW12396   6.047   0.407   7.635  0.2328 -1.0064  0.5792
 3255SOL    HW112397   5.954   0.410   7.658  0.1522 -0.4139  0.2003
 3255SOL    HW212398   6.059   0.320   7.596 -0.5140 -0.5308 -0.7854
 3256SOL     OW12399  10.347   9.897   7.479 -0.0596  0.2180  0.2813
 3256SOL    HW112400  10.329   9.948   7.400 -1.7163 -0.2472  0.3158
 3256SOL    HW212401  10.382   9.960   7.542 -1.8022  1.2895  0.2278
 3257SOL     OW12402   1.950   6.501   0.818 -0.2661 -0.0419  0.1745
 3257SOL    HW112403   2.031   6.520   0.772 -0.0870 -2.5967 -0.7610
 3257SOL    HW212404   1.948   6.405   0.824 -2.6621 -0.0049  1.1890
 3258SOL     OW12405   6.224   4.832   8.955 -0.4522  0.1942  0.2388
 3258SOL    HW112406   6.259   4.868   8.873 -0.7067 -1.4370 -0.6145
 3258SOL    HW212407   6.300   4.828   9.013 -0.1076  0.6537 -0.1730
 3259SOL     OW12408   5.760   1.013   7.923 -0.2021  0.0184  0.2476
 3259SOL    HW112409   5.757   1.054   8.010  0.7417  1.0288 -0.1723
 3259SOL    HW212410   5.689   1.056   7.875  0.5923  0.9598 -0.0987
 3260SOL     OW12411   3.663   9.787   2.669  0.1305 -0.2217 -0.6029
 3260SOL    HW112412   3.636   9.841   2.594  0.4707  1.5044  0.4657
 3260SOL    HW212413   3.719   9.720   2.630  0.2495  0.5921 -1.9266
 3261SOL     OW12414   0.574   8.139   2.886  0.5105 -0.4599  0.0749
 3261SOL    HW112415   0.582   8.176   2.798 -0.5955 -2.8472 -1.1463
 3261SOL    HW212416   0.501   8.077   2.878  0.7753 -1.1713  2.5411
 3262SOL     OW12417   8.180   7.447   8.933 -0.2238  0.2286 -1.1158
 3262SOL    HW112418   8.195   7.532   8.892  2.2467 -0.2455 -1.3379
 3262SOL    HW212419   8.135   7.396   8.866  1.6131  0.2205 -2.4116
 3263SOL     OW12420   8.515   2.308   7.284  0.4713 -0.3462  0.0066
 3263SOL    HW112421   8.449   2.362   7.241  0.1754 -0.8748 -0.2108
 3263SOL    HW212422   8.504   2.327   7.377 -0.0898 -0.5290 -0.0129
 3264SOL     OW12423   2.351   0.691   1.020  1.0870 -0.4180 -0.1251
 3264SOL    HW112424   2.397   0.774   1.033 -0.9317  1.1457 -2.2453
 3264SOL    HW212425   2.325   0.664   1.108  2.2335  0.9057  0.6526
 3265SOL     OW12426   4.371   1.430   4.606  0.2582 -0.4279  0.9973
 3265SOL    HW112427   4.314   1.395   4.675 -1.0494 -0.0653  0.1381
 3265SOL    HW212428   4.460   1.412   4.637 -0.3029 -3.0621  1.3484
 3266SOL     OW12429   2.347   1.722   4.949  0.0418  0.4832 -0.1858
 3266SOL    HW112430   2.355   1.801   5.003  1.2219  0.2014  0.0829
 3266SOL    HW212431   2.342   1.651   5.012  1.1772  0.1733 -0.4170
 3267SOL     OW12432   3.029   4.831   0.401  0.4967  0.3057 -0.3716
 3267SOL    HW112433   2.972   4.847   0.476 -0.1326 -1.5047 -0.4031
 3267SOL    HW212434   2.998   4.892   0.334 -1.9655 -1.0465 -0.6239
 3268SOL     OW12435   4.261   1.600   0.754 -0.6457 -0.1721 -0.0583
 3268SOL    HW112436   4.257   1.646   0.838 -0.5153 -0.1432 -0.0680
 3268SOL    HW212437   4.189   1.537   0.758  1.3030 -2.4744  1.4125
 3269SOL     OW12438   7.343   2.532   2.466 -0.1396 -0.1312 -0.1828
 3269SOL    HW112439   7.293   2.521   2.547 -1.8615  0.7915 -1.0688
 3269SOL    HW212440   7.379   2.620   2.471 -1.1845  0.3603 -0.8678
 3270SOL     OW12441   0.940   5.198   5.944 -0.0884  0.6080 -0.1803
 3270SOL    HW112442   0.947   5.290   5.970  0.5588  0.4084  0.3902
 3270SOL    HW212443   0.944   5.200   5.849  0.7781  1.1172 -0.1445
 3271SOL     OW12444   2.170   4.644   0.852 -0.0343  1.0745  0.3923
 3271SOL    HW112445   2.141   4.644   0.943  0.4455  1.1977  0.5483
 3271SOL    HW212446   2.213   4.728   0.840  0.5891  0.7473  0.2748
 3272SOL     OW12447   8.126   9.293   8.420  0.0301  0.2113  0.4683
 3272SOL    HW112448   8.176   9.218   8.388  2.2978 -1.3309  6.3194
 3272SOL    HW212449   8.037   9.259   8.433 -0.7929  0.7163 -2.7793
 3273SOL     OW12450   4.521   8.920   1.875  0.3730 -0.7399 -0.4443
 3273SOL    HW112451   4.447   8.891   1.822 -1.7944  1.2845  1.2614
 3273SOL    HW212452   4.517   8.867   1.954 -0.7124  0.8817  0.6345
 3274SOL     OW12453   2.921   3.443   5.828 -0.0087 -0.1566 -0.4196
 3274SOL    HW112454   2.999   3.449   5.773  0.1412  0.5559 -0.1417
 3274SOL    HW212455   2.904   3.349   5.835  0.1762 -0.2766 -1.3832
 3275SOL     OW12456   2.386   5.499   4.113 -0.3098  0.6998 -0.1687
 3275SOL    HW112457   2.324   5.538   4.051 -1.2762 -2.5590 -1.5014
 3275SOL    HW212458   2.337   5.492   4.195 -0.1744  2.0187  0.0450
 3276SOL     OW12459   9.841   7.276   1.246  0.0176 -0.4199 -0.0601
 3276SOL    HW112460   9.906   7.216   1.211  0.8088 -0.1902  0.9732
 3276SOL    HW212461   9.855   7.358   1.198 -2.3365 -1.4985 -2.8834
 3277SOL     OW12462   5.879   5.770   3.287  0.3172 -0.1478  0.1941
 3277SOL    HW112463   5.888   5.837   3.219  1.0759  1.4208  1.7459
 3277SOL    HW212464   5.788   5.742   3.282 -0.0498  1.0819 -0.4490
 3278SOL     OW12465   0.076   9.258   9.353  0.1054  0.6317  0.6622
 3278SOL    HW112466   0.049   9.293   9.268 -2.1625 -1.8397  0.2081
 3278SOL    HW212467   0.021   9.304   9.417 -1.1038 -0.2560  0.3136
 3279SOL     OW12468   7.371   0.828   7.645  0.0097  0.2901 -0.0479
 3279SOL    HW112469   7.284   0.831   7.685  0.1750  2.3744  0.2863
 3279SOL    HW212470   7.431   0.823   7.719  0.2240 -1.8431 -0.2936
 3280SOL     OW12471   0.396   7.416   4.120 -0.9966  0.1416  0.4447
 3280SOL    HW112472   0.368   7.451   4.035  2.8214 -0.0588 -1.0615
 3280SOL    HW212473   0.367   7.482   4.183 -1.1038  1.9556 -1.3966
 3281SOL     OW12474   5.937   2.277   9.460 -0.0721  0.2359  0.6262
 3281SOL    HW112475   6.032   2.284   9.462  0.0834 -0.7323 -1.2858
 3281SOL    HW212476   5.919   2.184   9.478 -0.5711  0.1339 -0.3361
 3282SOL     OW12477   5.878   0.345   1.258 -0.1665 -0.8864  0.4336
 3282SOL    HW112478   5.851   0.430   1.226 -1.6139 -0.9236  1.4448
 3282SOL    HW212479   5.965   0.359   1.295 -0.1875  0.0304  0.1421
 3283SOL     OW12480   8.848   4.661   0.758  0.4066 -0.0537  0.3829
 3283SOL    HW112481   8.861   4.691   0.848  1.5571 -0.2492  0.2971
 3283SOL    HW212482   8.887   4.729   0.703 -0.2954  0.0697  0.0184
 3284SOL     OW12483   6.577   6.407   0.263  0.2327 -0.3599  0.3059
 3284SOL    HW112484   6.641   6.472   0.234 -0.7808  0.6949  0.3866
 3284SOL    HW212485   6.550   6.362   0.182  1.8303 -1.5648  0.3890
 3285SOL     OW12486   4.816   8.417   5.560  0.3073  0.0333 -0.7241
 3285SOL    HW112487   4.761   8.340   5.549  0.4000 -0.1371 -0.0320
 3285SOL    HW212488   4.881   8.391   5.625  0.1018  0.8142 -0.1945
 3286SOL     OW12489   2.615   0.823   0.297  0.2084  0.8662 -0.4484
 3286SOL    HW112490   2.539   0.881   0.294 -1.7454 -1.3505  1.7411
 3286SOL    HW212491   2.645   0.827   0.387  0.4365 -0.9798 -0.4039
 3287SOL     OW12492   7.967   1.496   2.633  0.2416 -0.3295  0.5142
 3287SOL    HW112493   7.881   1.505   2.674  0.4622  0.0896  0.8997
 3287SOL    HW212494   8.010   1.426   2.682 -0.5840 -1.9497 -0.9366
 3288SOL     OW12495   6.276   8.977   9.152  0.1520 -0.2227  0.4999
 3288SOL    HW112496   6.366   8.972   9.120 -0.0313 -3.7374  0.1413
 3288SOL    HW212497   6.222   8.980   9.074 -0.1156  0.2277  0.6944
 3289SOL     OW12498   5.791   8.181   9.349 -0.0296  0.2857 -0.2620
 3289SOL    HW112499   5.874   8.140   9.323  0.3267  1.0038 -0.2597
 3289SOL    HW212500   5.746   8.199   9.266 -0.0089  0.2661 -0.2773
 3290SOL     OW12501   1.111   7.238   2.961  0.5762 -0.1303  0.4437
 3290SOL    HW112502   1.131   7.329   2.985  1.9017 -0.3596  0.2607
 3290SOL    HW212503   1.130   7.232   2.868  2.7669 -1.1380  0.8747
 3291SOL     OW12504   1.159   6.241   2.638 -0.1802  0.9239 -0.3259
 3291SOL    HW112505   1.184   6.334   2.635 -1.9239  1.4826  0.9876
 3291SOL    HW212506   1.111   6.226   2.557  2.3466  0.4067 -1.8274
 3292SOL     OW12507   2.862   8.674   9.269  0.6966  0.3426 -0.2860
 3292SOL    HW112508   2.844   8.761   9.306  0.0828  1.1995 -2.4472
 3292SOL    HW212509   2.951   8.681   9.235  0.5320  0.2322 -0.7400
 3293SOL     OW12510   2.372   8.180   0.306  0.1399 -0.0062 -0.1209
 3293SOL    HW112511   2.363   8.266   0.347  0.2107 -0.2169  0.3441
 3293SOL    HW212512   2.431   8.194   0.233 -0.7569  0.5745 -0.7536
 3294SOL     OW12513   5.019   6.452   5.072  0.4638 -0.5235 -0.3653
 3294SOL    HW112514   5.069   6.375   5.045  2.0085  0.1366  0.5028
 3294SOL    HW212515   4.957   6.467   5.001 -0.8354 -3.3442  0.0230
 3295SOL     OW12516   4.556   8.546   6.682 -0.1526  0.2820 -0.0242
 3295SOL    HW112517   4.572   8.461   6.641  0.2381  0.0287  0.6210
 3295SOL    HW212518   4.631   8.558   6.740 -0.1395  1.1357 -0.2140
 3296SOL     OW12519   3.225   6.525   7.139  0.1951 -0.0093 -0.1484
 3296SOL    HW112520   3.248   6.604   7.189  2.1961  0.1940 -1.3151
 3296SOL    HW212521   3.276   6.455   7.179 -0.3506 -0.4185 -0.1513
 3297SOL     OW12522   3.829   2.286   2.985 -0.5203 -0.2510 -0.4134
 3297SOL    HW112523   3.782   2.296   3.068 -0.0408  0.7564 -0.2465
 3297SOL    HW212524   3.894   2.356   2.986  0.8987 -1.4920 -0.7105
 3298SOL     OW12525   7.382   5.199   0.669 -0.3783  0.8182  0.3144
 3298SOL    HW112526   7.305   5.147   0.693 -1.3699  1.8606 -0.4468
 3298SOL    HW212527   7.424   5.149   0.600 -0.0342 -0.0368  1.1247
 3299SOL     OW12528   4.719   6.819   4.441  0.0892 -0.1662  0.3426
 3299SOL    HW112529   4.662   6.793   4.514  0.7890  1.4894  1.5453
 3299SOL    HW212530   4.707   6.914   4.434  1.3272 -0.0513 -0.5863
 3300SOL     OW12531   6.853   8.602   1.075  0.1592  0.2281 -0.0928
 3300SOL    HW112532   6.811   8.544   1.138 -1.9376 -0.3846 -1.9292
 3300SOL    HW212533   6.826   8.690   1.101  0.0178  0.0506  0.3553
 3301SOL     OW12534   7.907   8.901   1.595 -0.4593 -0.2705 -0.0260
 3301SOL    HW112535   7.967   8.955   1.646  1.0152  0.2300 -2.1686
 3301SOL    HW212536   7.933   8.811   1.615 -0.7012 -0.1424  0.9584
 3302SOL     OW12537  10.127   3.757   0.320 -0.1554 -0.3944  0.7208
 3302SOL    HW112538  10.137   3.663   0.306 -3.8879 -0.9590  0.6475
 3302SOL    HW212539  10.189   3.798   0.261  0.5043 -2.8207 -0.3786
 3303SOL     OW12540   0.623   8.145   7.023  0.1256  0.1114 -0.5418
 3303SOL    HW112541   0.598   8.176   7.110  0.7727 -1.4506  0.2382
 3303SOL    HW212542   0.554   8.178   6.966 -0.4247  1.0085  0.5830
 3304SOL     OW12543   0.502   6.826   1.528  0.3764 -0.2551  0.2372
 3304SOL    HW112544   0.433   6.865   1.475  1.2636  0.1608 -0.6482
 3304SOL    HW212545   0.462   6.747   1.566 -0.0197 -1.0731 -1.7920
 3305SOL     OW12546   4.430   5.012   0.920  0.0933  0.1498  0.1513
 3305SOL    HW112547   4.364   5.082   0.918  0.9223  0.9758 -1.8695
 3305SOL    HW212548   4.380   4.931   0.925 -0.9834  0.8196  0.5070
 3306SOL     OW12549   3.377   0.447   4.030 -0.4852 -0.0710 -0.3444
 3306SOL    HW112550   3.446   0.480   3.973  0.0085  0.1161  0.3453
 3306SOL    HW212551   3.346   0.524   4.078 -1.3650 -0.1063 -0.8435
 3307SOL     OW12552   7.917   3.454   4.456 -0.4056  0.3185 -0.6659
 3307SOL    HW112553   7.953   3.542   4.449 -1.2192  0.7827  0.7238
 3307SOL    HW212554   7.959   3.406   4.384  0.9288  1.5161 -0.7416
 3308SOL     OW12555   9.899   5.770   8.504 -0.7220 -0.0758 -0.0179
 3308SOL    HW112556   9.886   5.690   8.555  0.6956  0.6013  1.5095
 3308SOL    HW212557   9.811   5.796   8.478 -1.5247 -0.4865  2.0935
 3309SOL     OW12558   4.195   7.078   6.970  0.2445 -0.0647 -0.2580
 3309SOL    HW112559   4.204   7.163   6.928  1.0249 -0.1756 -0.3184
 3309SOL    HW212560   4.196   7.015   6.897 -0.6202 -0.1188 -0.2390
 3310SOL     OW12561   9.465   7.254   8.839 -0.2998  0.1253 -0.5396
 3310SOL    HW112562   9.508   7.338   8.856 -0.0422 -0.1235  0.0577
 3310SOL    HW212563   9.536   7.195   8.814 -0.6050  0.3374 -1.9536
 3311SOL     OW12564   0.376   1.084   5.727 -0.1767 -0.2237 -0.1954
 3311SOL    HW112565   0.368   1.137   5.806 -1.6731 -1.2424  0.3772
 3311SOL    HW212566   0.323   1.006   5.744  1.6067 -1.7446 -1.1758
 3312SOL     OW12567   6.322   5.170   8.594  0.3587  0.7781 -0.1247
 3312SOL    HW112568   6.391   5.201   8.535 -0.0654 -1.5454 -1.9841
 3312SOL    HW212569   6.241   5.202   8.556  0.1966  0.8581  0.2831
 3313SOL     OW12570   8.642   4.840   3.988 -0.1170  0.5224 -0.1620
 3313SOL    HW112571   8.690   4.918   3.959 -0.6025  0.9652  0.2073
 3313SOL    HW212572   8.565   4.874   4.032 -2.4932 -0.1519 -3.4654
 3314SOL     OW12573   8.897   0.757   3.309  0.1719 -0.1277 -0.0605
 3314SOL    HW112574   8.923   0.837   3.264  1.6868 -0.2210  0.5912
 3314SOL    HW212575   8.825   0.722   3.256 -1.2988  2.2115  0.2383
 3315SOL     OW12576   6.462   9.981   9.497 -0.0948 -0.3080 -0.7776
 3315SOL    HW112577   6.489  10.054   9.552  0.0607 -0.0652 -1.1675
 3315SOL    HW212578   6.412   9.924   9.555 -0.4650  0.2522 -0.5363
 3316SOL     OW12579   2.866  10.099   2.088 -0.0286  0.5898  0.2047
 3316SOL    HW112580   2.905  10.178   2.124  0.4089  0.2002  0.6075
 3316SOL    HW212581   2.940  10.052   2.049 -0.1688  0.0410  0.5966
 3317SOL     OW12582   8.892   6.385   4.298  0.1396  0.0125  0.5444
 3317SOL    HW112583   8.885   6.446   4.224 -0.4779  0.7299  1.1743
 3317SOL    HW212584   8.938   6.309   4.262  0.6865  0.7337 -0.3321
 3318SOL     OW12585   8.089   5.866   3.610 -0.2140  0.0782  0.8283
 3318SOL    HW112586   8.077   5.956   3.579 -0.2223 -0.2407 -0.1114
 3318SOL    HW212587   8.051   5.866   3.698 -0.6683  0.8700  0.6414
 3319SOL     OW12588   7.018   0.239   0.235 -0.2968 -0.3562 -0.0406
 3319SOL    HW112589   6.942   0.182   0.236 -0.3727 -0.2535  0.1884
 3319SOL    HW212590   6.982   0.327   0.244 -0.1707 -0.2834 -0.2314
 3320SOL     OW12591   5.031   8.414   5.966  0.2595  0.4772 -0.0503
 3320SOL    HW112592   5.090   8.467   6.021 -0.5748  1.0980  0.2803
 3320SOL    HW212593   4.943   8.442   5.993 -0.1800 -0.1945 -0.7622
 3321SOL     OW12594   8.603   7.312   4.511  0.7972 -0.4850 -0.0149
 3321SOL    HW112595   8.568   7.226   4.534  1.3357 -0.9870 -1.0005
 3321SOL    HW212596   8.529   7.371   4.523  1.1532 -0.5482  3.5045
 3322SOL     OW12597   0.843   4.718   9.779  1.0169 -0.2655 -0.3359
 3322SOL    HW112598   0.846   4.650   9.712  0.2015  0.1751 -0.8235
 3322SOL    HW212599   0.915   4.696   9.838  1.0679 -1.2722 -0.7563
 3323SOL     OW12600   1.856   9.001   9.877 -0.3115  0.2719  0.2476
 3323SOL    HW112601   1.793   8.944   9.833  0.1576  1.4701 -2.1302
 3323SOL    HW212602   1.845   8.981   9.970 -2.3642 -1.3869 -0.2657
 3324SOL     OW12603   5.541   5.370   4.514 -0.4981  0.5419 -0.0787
 3324SOL    HW112604   5.512   5.293   4.465 -1.5474  0.3001  0.8816
 3324SOL    HW212605   5.561   5.336   4.601 -0.4137  1.2696  0.1893
 3325SOL     OW12606   0.150   1.964   7.961 -0.3546 -0.6048 -1.1333
 3325SOL    HW112607   0.117   2.035   7.906 -1.5536 -0.8801 -0.7926
 3325SOL    HW212608   0.178   2.006   8.042 -1.2708 -0.5370 -0.8465
 3326SOL     OW12609   4.295   0.136   0.133 -0.1935 -0.2878 -0.2699
 3326SOL    HW112610   4.206   0.156   0.161 -0.6426 -1.3590 -0.8668
 3326SOL    HW212611   4.320   0.209   0.077 -0.0900  0.7963  1.1520
 3327SOL     OW12612   6.162   0.494   0.988  0.3480  0.4533  0.4095
 3327SOL    HW112613   6.110   0.550   0.930  0.1211  1.2857  1.3905
 3327SOL    HW212614   6.106   0.479   1.064  0.1629 -1.6434 -0.0806
 3328SOL     OW12615   2.581   7.733   6.231  0.5175 -0.0232 -0.2723
 3328SOL    HW112616   2.624   7.805   6.184  0.7736  0.3107  0.4603
 3328SOL    HW212617   2.647   7.701   6.292  0.0402 -0.1408  0.1907
 3329SOL     OW12618   9.025   9.720   9.268  0.4649  0.3770  0.7739
 3329SOL    HW112619   9.019   9.719   9.363  0.9829  0.4628  0.8077
 3329SOL    HW212620   9.109   9.677   9.249  0.7814  1.1562  0.3890
 3330SOL     OW12621   5.579   6.514   0.796  0.0920 -0.2588 -0.0210
 3330SOL    HW112622   5.529   6.453   0.849 -0.3398  1.6401  1.9086
 3330SOL    HW212623   5.514   6.576   0.762  0.7798  0.5773  0.1423
 3331SOL     OW12624   2.218   0.957   8.771 -0.2469 -0.6196  0.0555
 3331SOL    HW112625   2.301   0.999   8.792  0.4844 -1.2031 -1.5608
 3331SOL    HW212626   2.242   0.871   8.736 -1.5226 -0.8299 -0.3630
 3332SOL     OW12627   0.542  10.339   0.496 -0.2242 -0.6470  0.0246
 3332SOL    HW112628   0.593  10.415   0.467  1.6911 -2.1557 -0.7836
 3332SOL    HW212629   0.453  10.373   0.508  0.3505  1.4995 -1.2391
 3333SOL     OW12630   7.891   0.233   5.110 -0.7600 -0.0963 -1.1033
 3333SOL    HW112631   7.974   0.190   5.092  0.2539  0.0551  2.3693
 3333SOL    HW212632   7.845   0.235   5.026  2.7303 -0.0984 -3.1841
 3334SOL     OW12633   4.371   4.285   3.942 -0.1343 -0.1775  0.0105
 3334SOL    HW112634   4.381   4.205   3.891 -2.7475 -0.3451 -0.3567
 3334SOL    HW212635   4.372   4.256   4.033 -0.1761 -0.4941 -0.0882
 3335SOL     OW12636   2.469   2.673   7.431  0.3679 -0.1856 -0.1357
 3335SOL    HW112637   2.496   2.694   7.342  0.0214 -1.1289 -0.4843
 3335SOL    HW212638   2.550   2.650   7.476  0.5242  0.1276 -0.2580
 3336SOL     OW12639  10.124   9.409   7.381  0.2575 -0.1571 -0.3129
 3336SOL    HW112640  10.182   9.484   7.395  0.5462 -0.4793  0.2411
 3336SOL    HW212641  10.164   9.360   7.310  0.9024 -0.6091  0.3523
 3337SOL     OW12642   0.605   7.752   0.516  0.2637  0.1514 -0.1576
 3337SOL    HW112643   0.626   7.794   0.433  1.2687  0.7567  0.3844
 3337SOL    HW212644   0.541   7.685   0.494  0.7119  0.1322 -1.4517
 3338SOL     OW12645   6.406   6.746   4.407  0.1536 -0.1902  0.3223
 3338SOL    HW112646   6.417   6.738   4.312 -0.1298  0.2694  0.2476
 3338SOL    HW212647   6.329   6.692   4.426 -0.0076  0.0052  0.2350
 3339SOL     OW12648   9.309   9.232   5.021  0.2519  0.1574 -0.2362
 3339SOL    HW112649   9.310   9.146   4.979 -1.0901  0.0054 -0.0106
 3339SOL    HW212650   9.356   9.289   4.961  0.5309 -0.5855 -0.7321
 3340SOL     OW12651   0.673   2.847   3.008  0.2239  0.1532 -0.1237
 3340SOL    HW112652   0.738   2.895   3.060  1.6316 -0.8494 -0.9122
 3340SOL    HW212653   0.672   2.891   2.923  1.1002 -0.8392 -0.6594
 3341SOL     OW12654   8.881   5.371   8.910 -0.6389  0.6116  0.4330
 3341SOL    HW112655   8.940   5.383   8.835  1.0626  0.4809  1.6961
 3341SOL    HW212656   8.899   5.281   8.940  0.5981  1.4719  2.4932
 3342SOL     OW12657   4.607   8.562   9.953  0.4874 -0.1576  0.0212
 3342SOL    HW112658   4.627   8.470   9.939  0.5440 -0.0076 -0.9716
 3342SOL    HW212659   4.513   8.570   9.937  0.6612  0.1269 -0.9377
 3343SOL     OW12660   1.518   6.988   5.123 -0.0135  0.2241  0.1728
 3343SOL    HW112661   1.432   6.977   5.165 -0.8515  0.3781 -1.4058
 3343SOL    HW212662   1.522   7.080   5.100  0.1628  0.0323 -0.5902
 3344SOL     OW12663   6.467   9.458   4.884 -0.4003 -0.1554  0.0377
 3344SOL    HW112664   6.520   9.491   4.958  0.7980 -0.2503 -0.7523
 3344SOL    HW212665   6.448   9.368   4.907 -1.6562  0.3515  1.1007
 3345SOL     OW12666   8.409   8.666   8.923 -0.2480 -0.4927  0.2622
 3345SOL    HW112667   8.331   8.665   8.979 -0.6638  1.3450 -0.2070
 3345SOL    HW212668   8.476   8.621   8.975 -1.5065 -1.8505  0.7976
 3346SOL     OW12669   7.950   1.216  10.357  0.2659  0.3339  0.0432
 3346SOL    HW112670   7.892   1.210  10.280  1.4836  2.1149 -1.1080
 3346SOL    HW212671   7.924   1.298  10.400 -0.7515 -0.9001  1.9010
 3347SOL     OW12672   8.354   1.681   8.445 -0.0730  0.5844  0.2581
 3347SOL    HW112673   8.425   1.689   8.382 -0.5236 -1.2018 -0.5403
 3347SOL    HW212674   8.386   1.726   8.523  2.3946 -1.0361  0.2866
 3348SOL     OW12675   8.926   5.793   2.587  0.0072  0.1264  0.0733
 3348SOL    HW112676   9.011   5.755   2.607  0.2403  0.4716 -0.2571
 3348SOL    HW212677   8.876   5.784   2.669  0.2725 -0.2944  0.1950
 3349SOL     OW12678   0.658   3.046   6.405 -0.2685  0.2776  0.0092
 3349SOL    HW112679   0.723   3.040   6.474 -0.1523 -1.7373 -0.2124
 3349SOL    HW212680   0.707   3.028   6.324 -0.8229  0.1702 -0.3108
 3350SOL     OW12681   7.591   1.857   5.248  0.4148  0.2135 -0.2979
 3350SOL    HW112682   7.547   1.887   5.169  0.3777  2.0727  0.3623
 3350SOL    HW212683   7.524   1.862   5.317  0.9574  0.5437  0.2181
 3351SOL     OW12684   6.088   1.939   3.426 -0.3343  0.6690 -0.0907
 3351SOL    HW112685   5.992   1.937   3.428 -0.3706 -0.0801 -1.3730
 3351SOL    HW212686   6.115   1.884   3.499 -0.8971 -0.0742 -0.4321
 3352SOL     OW12687   8.989   4.764   7.935 -0.0188  0.8842 -0.3463
 3352SOL    HW112688   8.943   4.718   8.005 -0.6926  2.4651  0.2824
 3352SOL    HW212689   8.971   4.712   7.857 -0.3098 -0.2025  0.4231
 3353SOL     OW12690   2.544   3.099   4.860 -0.0139  0.2374 -0.2471
 3353SOL    HW112691   2.465   3.152   4.875  0.4367  0.3865  2.1166
 3353SOL    HW212692   2.551   3.092   4.765 -1.4578  2.3713 -0.5876
 3354SOL     OW12693   0.078   3.895   8.697 -0.0253  0.3074  0.6727
 3354SOL    HW112694   0.126   3.813   8.683  0.4900  0.9219 -1.4106
 3354SOL    HW212695   0.020   3.876   8.772  0.8905 -1.5766  0.9589
 3355SOL     OW12696   2.847   0.077   0.430 -0.0201  0.4430 -0.1165
 3355SOL    HW112697   2.860   0.066   0.524  0.1497 -0.8082 -0.2732
 3355SOL    HW212698   2.908   0.015   0.390  0.0970  1.1462 -1.0645
 3356SOL     OW12699   9.385   6.597   8.932  0.1479 -0.1358 -0.6468
 3356SOL    HW112700   9.413   6.522   8.985 -1.3943 -0.5238 -0.3424
 3356SOL    HW212701   9.375   6.561   8.844 -1.9865 -0.7102 -0.2409
 3357SOL     OW12702   8.694   4.904   0.948  0.0978 -0.1697  0.9142
 3357SOL    HW112703   8.739   4.985   0.973  0.2477 -0.3312  1.1739
 3357SOL    HW212704   8.760   4.836   0.959 -0.4412 -0.5253  2.1127
 3358SOL     OW12705   2.637   3.504   6.485  0.2691  0.5442  0.4368
 3358SOL    HW112706   2.727   3.503   6.451  0.2088  0.4999  0.2767
 3358SOL    HW212707   2.626   3.420   6.529  0.4214  0.6934  0.7612
 3359SOL     OW12708   6.838   1.800   8.142  0.6458 -0.5519  0.0458
 3359SOL    HW112709   6.897   1.848   8.084 -0.5246  0.5448 -0.2719
 3359SOL    HW212710   6.756   1.794   8.093  0.0071 -0.6672  1.1150
 3360SOL     OW12711   8.246   2.303   2.065  0.4869 -0.1833 -0.0549
 3360SOL    HW112712   8.256   2.269   1.976  2.2904 -1.0555  0.4395
 3360SOL    HW212713   8.255   2.398   2.055 -0.2235 -0.1895 -0.8940
 3361SOL     OW12714   6.956   1.707   1.293 -0.3274  0.1405 -0.0740
 3361SOL    HW112715   7.041   1.716   1.338  0.7955 -0.7333 -1.9079
 3361SOL    HW212716   6.953   1.780   1.231 -0.9297  0.1669 -0.0198
 3362SOL     OW12717   9.302   2.316   2.818 -0.5192 -0.0968  0.7277
 3362SOL    HW112718   9.322   2.242   2.761  1.3696 -0.0170  1.2021
 3362SOL    HW212719   9.240   2.369   2.768  1.0994  0.0001 -1.3072
 3363SOL     OW12720   6.268   4.102   1.265  0.1813  0.9228 -0.2741
 3363SOL    HW112721   6.244   4.010   1.261 -1.4234  1.2987 -0.2443
 3363SOL    HW212722   6.307   4.121   1.180  1.0527  0.1016 -0.0746
 3364SOL     OW12723   5.471   4.900   3.627  0.1305  0.3487  0.1786
 3364SOL    HW112724   5.527   4.842   3.576  0.7002  0.2908  0.8494
 3364SOL    HW212725   5.382   4.875   3.604  0.3773 -0.2652 -0.1171
 3365SOL     OW12726   5.507   2.305   9.369 -0.7570 -0.2661 -0.4512
 3365SOL    HW112727   5.495   2.396   9.344 -1.8586 -0.2001  0.2357
 3365SOL    HW212728   5.513   2.307   9.464 -3.1317 -1.0828 -0.2003
 3366SOL     OW12729   6.659   0.333   0.829  0.5405  0.2344  0.4995
 3366SOL    HW112730   6.670   0.384   0.749  1.0315  0.4599  0.7054
 3366SOL    HW212731   6.565   0.313   0.833  0.4971  0.3207 -0.0682
 3367SOL     OW12732   2.195   1.757   4.060  0.4504  0.3225  0.2728
 3367SOL    HW112733   2.210   1.851   4.062  1.2815  0.2000 -0.0224
 3367SOL    HW212734   2.118   1.744   4.115  0.4669  1.1472  0.5014
 3368SOL     OW12735   8.986   8.935   8.844  0.1381 -0.2057 -0.1582
 3368SOL    HW112736   8.986   8.890   8.929 -0.9946  0.8271  0.4145
 3368SOL    HW212737   8.932   9.013   8.858  0.6199  0.4141 -1.6111
 3369SOL     OW12738   5.337   3.490   6.946  0.0409 -0.3479  0.4097
 3369SOL    HW112739   5.409   3.550   6.932  0.4428 -1.1696 -1.2640
 3369SOL    HW212740   5.378   3.404   6.957 -0.6570 -1.0756 -2.0091
 3370SOL     OW12741   3.404   8.972   9.461  0.2861 -0.0934 -0.7062
 3370SOL    HW112742   3.321   8.960   9.508  0.4375 -1.0080 -0.6590
 3370SOL    HW212743   3.391   8.927   9.378  0.7037 -0.1404 -0.7441
 3371SOL     OW12744  10.067   5.880   5.558 -0.2087  0.0825  0.0164
 3371SOL    HW112745  10.093   5.807   5.503  0.9833 -0.2412  0.9753
 3371SOL    HW212746  10.048   5.951   5.496  0.7825 -0.3658 -0.8268
 3372SOL     OW12747   8.617   3.677   9.949  0.2253 -0.2788  0.2591
 3372SOL    HW112748   8.583   3.721  10.026  0.5978 -0.4348  0.5132
 3372SOL    HW212749   8.613   3.584   9.970  0.0759 -0.3359 -0.0141
 3373SOL     OW12750   7.092   3.788   6.965  0.0419 -0.6020 -0.1292
 3373SOL    HW112751   7.113   3.698   6.938  0.3930 -0.5773  0.0476
 3373SOL    HW212752   7.053   3.778   7.052  1.1178 -0.5058  0.3812
 3374SOL     OW12753   3.159   4.341   0.659  0.1227 -0.1399 -0.7915
 3374SOL    HW112754   3.121   4.303   0.580  1.8470 -0.8118 -1.3636
 3374SOL    HW212755   3.121   4.291   0.731  0.4068 -1.2232 -1.3718
 3375SOL     OW12756   2.931   7.825   3.307  0.5125  0.2657  0.3544
 3375SOL    HW112757   2.940   7.734   3.337 -0.7975 -0.2004 -0.5527
 3375SOL    HW212758   3.019   7.850   3.279  0.4740 -1.6155 -1.7503
 3376SOL     OW12759   0.173   3.805   4.935 -0.3400 -0.6881 -0.3671
 3376SOL    HW112760   0.230   3.747   4.987 -0.2056 -1.1422 -1.0154
 3376SOL    HW212761   0.099   3.823   4.993 -0.4751 -1.6604 -0.2206
 3377SOL     OW12762   0.047   7.282   9.065 -0.7038  0.0702 -0.4609
 3377SOL    HW112763   0.114   7.309   9.128 -2.4685  0.9090  1.1602
 3377SOL    HW212764   0.017   7.197   9.097 -0.5222 -0.2519 -1.1204
 3378SOL     OW12765   3.791   1.664   5.394 -0.0564 -0.5638 -0.4229
 3378SOL    HW112766   3.821   1.741   5.441  0.4637 -1.2261  0.3576
 3378SOL    HW212767   3.759   1.697   5.310  2.2805  0.2506 -1.0526
 3379SOL     OW12768   9.859   8.021   2.358 -0.2167  0.0032 -0.0626
 3379SOL    HW112769   9.826   8.064   2.280 -1.7121 -3.8075 -1.7567
 3379SOL    HW212770   9.951   8.002   2.338  0.5249  2.3737  0.7967
 3380SOL     OW12771   7.625   3.454   5.897  0.0579  0.0015  0.5283
 3380SOL    HW112772   7.695   3.448   5.962  0.9449 -0.2168 -0.4401
 3380SOL    HW212773   7.638   3.539   5.855  1.1800 -0.9717 -1.2267
 3381SOL     OW12774   1.909   6.836   3.702 -0.2676  0.0502 -0.0258
 3381SOL    HW112775   1.821   6.850   3.665 -0.4351  0.4490  0.5138
 3381SOL    HW212776   1.893   6.804   3.790  0.1346 -1.6683 -0.5494
 3382SOL     OW12777   1.131   2.903   0.886  0.2779  0.2079  0.4674
 3382SOL    HW112778   1.184   2.835   0.844  1.3475  0.1967  1.7539
 3382SOL    HW212779   1.165   2.985   0.849 -0.2353  0.1148 -0.2361
 3383SOL     OW12780   3.114   1.428   5.061 -0.1556  0.2882  0.2405
 3383SOL    HW112781   3.092   1.354   5.118 -0.7003  0.6595  0.5219
 3383SOL    HW212782   3.048   1.426   4.992  0.1782  0.1636 -0.0757
 3384SOL     OW12783  10.128   8.855   0.347 -0.5901  0.4468  0.1413
 3384SOL    HW112784  10.047   8.848   0.296  0.5492 -0.8415 -1.6125
 3384SOL    HW212785  10.102   8.898   0.428 -2.6950  1.6885 -1.1094
 3385SOL     OW12786   6.111   1.100   2.083  0.4488  0.3524  0.2510
 3385SOL    HW112787   6.168   1.033   2.118 -0.2433  0.7886  2.3683
 3385SOL    HW212788   6.170   1.168   2.049  1.2002  0.4106  1.6171
 3386SOL     OW12789   4.588   1.535   9.631 -0.1129  0.2284 -0.1133
 3386SOL    HW112790   4.588   1.458   9.687 -1.1839 -0.0701 -0.5049
 3386SOL    HW212791   4.608   1.501   9.544  0.7170  0.5759 -0.0646
 3387SOL     OW12792   1.281   0.949   3.562  0.1221  0.1476 -0.1737
 3387SOL    HW112793   1.297   1.029   3.612 -0.0474 -0.1172  0.3099
 3387SOL    HW212794   1.324   0.880   3.613 -1.0433 -0.3030  0.2271
 3388SOL     OW12795   3.953   3.714   5.368  0.2774 -0.0925 -0.1073
 3388SOL    HW112796   3.951   3.654   5.293  0.0563  0.7410 -0.7895
 3388SOL    HW212797   3.938   3.800   5.329  1.9253  0.5912  0.6600
 3389SOL     OW12798   5.190   9.354   7.600 -0.0832 -0.0997 -0.0946
 3389SOL    HW112799   5.265   9.297   7.618  0.6445  0.1928 -1.9851
 3389SOL    HW212800   5.215   9.438   7.640 -0.5029 -0.6399  1.3806
 3390SOL     OW12801   6.234   9.899   5.488 -0.5782  0.5004 -0.2575
 3390SOL    HW112802   6.246   9.809   5.457  0.3579  1.4555 -3.0087
 3390SOL    HW212803   6.305   9.913   5.549  0.8206  0.1048 -1.7246
 3391SOL     OW12804  10.292   8.024   7.956 -0.1364  0.4028 -0.1290
 3391SOL    HW112805  10.269   8.055   7.869 -1.4614  0.3297  0.1693
 3391SOL    HW212806  10.373   8.070   7.978  2.5408 -2.4205 -2.9460
 3392SOL     OW12807   2.047   5.209   5.779  0.0322 -0.3676  0.3749
 3392SOL    HW112808   1.979   5.187   5.842 -3.5470 -0.4205 -3.1268
 3392SOL    HW212809   2.098   5.279   5.822 -2.8320  0.4220  2.8419
 3393SOL     OW12810   7.886   7.321   6.719 -0.4578  0.1201  0.0547
 3393SOL    HW112811   7.798   7.311   6.757  0.2502  0.3271  1.8831
 3393SOL    HW212812   7.871   7.340   6.627 -2.3386  0.4552  0.3937
 3394SOL     OW12813   1.634   2.174   7.315  0.5331 -0.4264  0.3818
 3394SOL    HW112814   1.591   2.097   7.352  0.7541 -0.5695  0.3433
 3394SOL    HW212815   1.600   2.248   7.366 -0.0367 -0.4990  0.1072
 3395SOL     OW12816   1.020   3.945   8.611 -0.2784  0.1014  0.1873
 3395SOL    HW112817   0.988   3.880   8.674 -1.8772  0.9045  0.2476
 3395SOL    HW212818   1.091   3.990   8.657  0.1891 -0.9175  0.5039
 3396SOL     OW12819   3.539   1.317   7.117 -0.3274  0.4670 -0.2001
 3396SOL    HW112820   3.531   1.300   7.023  1.9738  0.3170 -0.4188
 3396SOL    HW212821   3.565   1.409   7.121  1.2472  0.0308  0.1598
 3397SOL     OW12822   0.912   3.486   4.851  0.4956  0.7307  0.4187
 3397SOL    HW112823   0.935   3.411   4.906  1.2191  0.8497  0.2886
 3397SOL    HW212824   0.817   3.494   4.860  0.7504  1.6391  2.7804
 3398SOL     OW12825   2.622   1.791   1.303  0.0451 -0.2628 -0.1569
 3398SOL    HW112826   2.576   1.743   1.372 -0.3747  0.7990  0.3143
 3398SOL    HW212827   2.712   1.759   1.308  0.2587  0.5088  1.5591
 3399SOL     OW12828   2.508   4.158   7.662 -0.4957 -1.0247 -0.1175
 3399SOL    HW112829   2.601   4.156   7.644  0.2435  1.5207  2.5972
 3399SOL    HW212830   2.474   4.227   7.605 -0.7676 -1.9721 -1.1276
 3400SOL     OW12831   1.047   5.709   6.002 -0.5085  0.5181  0.3473
 3400SOL    HW112832   1.126   5.674   5.961  0.2764  0.7941  1.5744
 3400SOL    HW212833   1.065   5.704   6.096 -2.2619 -0.1192  0.6875
 3401SOL     OW12834   8.749   5.449   4.646 -0.1106  0.1794 -0.2880
 3401SOL    HW112835   8.806   5.377   4.671 -1.3185 -0.3880  0.9351
 3401SOL    HW212836   8.776   5.470   4.557  0.7470 -1.2963 -0.4172
 3402SOL     OW12837   0.348   1.445   7.601  0.0759  0.2182  0.4056
 3402SOL    HW112838   0.371   1.520   7.546 -0.8331  0.6857  0.6293
 3402SOL    HW212839   0.296   1.389   7.545  1.3614 -0.6276  0.0229
 3403SOL     OW12840   3.383   0.303   6.853  0.6312  0.9177  0.5016
 3403SOL    HW112841   3.438   0.371   6.891  1.3305 -0.0794  1.3183
 3403SOL    HW212842   3.422   0.221   6.881 -0.9593  0.1666  0.6563
 3404SOL     OW12843   0.006  10.351   3.127 -0.8898  0.1979 -0.4275
 3404SOL    HW112844   0.092  10.322   3.158 -0.7712  0.6868 -0.2892
 3404SOL    HW212845  -0.047  10.357   3.207 -1.0109  0.0387 -0.4951
 3405SOL     OW12846   6.821   2.881   8.277  0.1626  0.6227 -0.3549
 3405SOL    HW112847   6.779   2.967   8.282 -0.1898  0.4162  0.6233
 3405SOL    HW212848   6.783   2.832   8.351  2.1224  0.4226  0.5716
 3406SOL     OW12849   5.426   5.453   2.654 -0.3199  0.2009  0.2449
 3406SOL    HW112850   5.492   5.506   2.698  0.3463 -0.2859 -0.1646
 3406SOL    HW212851   5.368   5.423   2.724  0.1661  0.2413  0.6635
 3407SOL     OW12852   4.425   5.309   1.126 -0.7224  0.0429  0.9651
 3407SOL    HW112853   4.461   5.315   1.038  1.9816  2.3071  2.0556
 3407SOL    HW212854   4.473   5.238   1.167 -1.8597 -0.8982  0.7270
 3408SOL     OW12855   0.507   5.957   3.007 -0.5479 -0.1373  0.2265
 3408SOL    HW112856   0.570   5.949   2.935 -1.9504  1.5462 -1.2784
 3408SOL    HW212857   0.429   5.910   2.975  0.1882 -3.3166  2.5666
 3409SOL     OW12858   1.452   4.975   9.079 -0.1384  0.3028 -0.3784
 3409SOL    HW112859   1.393   5.003   9.148 -2.0189 -0.0549 -1.7545
 3409SOL    HW212860   1.503   5.053   9.057  1.3537  0.1292  2.1424
 3410SOL     OW12861   6.204  10.325   3.695  0.2485 -0.2850  0.2172
 3410SOL    HW112862   6.172  10.240   3.725  0.6572 -0.2370  0.7887
 3410SOL    HW212863   6.193  10.322   3.600 -2.4319  0.1192  0.4364
 3411SOL     OW12864   9.996   5.408   6.990  0.1366  0.2497  0.3258
 3411SOL    HW112865   9.993   5.499   6.959  0.7572 -0.1864 -1.1444
 3411SOL    HW212866  10.087   5.382   6.978 -0.3359 -1.0385 -0.8196
 3412SOL     OW12867   8.224   4.086   8.540  0.1922 -0.2106  0.4206
 3412SOL    HW112868   8.298   4.026   8.548  0.4451  0.0025 -0.2552
 3412SOL    HW212869   8.177   4.076   8.622  0.2007 -1.3628  0.3036
 3413SOL     OW12870   6.859   2.740   7.041  0.0664  0.3914  0.1948
 3413SOL    HW112871   6.889   2.671   7.100 -0.0554  0.9041  0.8739
 3413SOL    HW212872   6.770   2.759   7.070 -0.3627 -0.0233 -0.7917
 3414SOL     OW12873   2.439   7.499   5.276  0.0844  0.2515 -0.8169
 3414SOL    HW112874   2.495   7.470   5.348 -0.4312  0.4084 -0.3479
 3414SOL    HW212875   2.470   7.587   5.255 -0.6623  0.7641  0.1586
 3415SOL     OW12876   6.436  10.052   0.219 -0.1202  0.0065 -0.1919
 3415SOL    HW112877   6.394   9.989   0.278  0.1899 -0.8164 -0.8244
 3415SOL    HW212878   6.364  10.096   0.175 -0.3620  0.7451  0.9018
 3416SOL     OW12879   5.247   4.747   4.574  0.1557 -0.1087  0.6253
 3416SOL    HW112880   5.286   4.779   4.493 -2.2478  0.1229 -0.5544
 3416SOL    HW212881   5.319   4.706   4.622  1.5473 -0.8624 -1.9224
 3417SOL     OW12882   7.696   1.636  10.256  0.0353 -0.5622  0.2722
 3417SOL    HW112883   7.602   1.642  10.275  0.0557 -0.6235  0.3976
 3417SOL    HW212884   7.729   1.725  10.267  0.5765 -1.0364  3.4018
 3418SOL     OW12885   7.884   1.239   8.089 -0.1560  0.2534 -0.1495
 3418SOL    HW112886   7.850   1.150   8.091 -2.5196  1.1128  0.3878
 3418SOL    HW212887   7.950   1.241   8.159 -0.4342 -0.9192  0.1604
 3419SOL     OW12888   6.179   4.590   6.577  0.0461  0.1433  0.4357
 3419SOL    HW112889   6.112   4.608   6.644 -0.7968  1.9957 -0.8128
 3419SOL    HW212890   6.248   4.544   6.624 -1.6684 -0.9809  1.9925
 3420SOL     OW12891   6.318   8.423   9.307  0.2398  0.2161 -0.2807
 3420SOL    HW112892   6.336   8.431   9.214 -0.4857  2.3711 -0.2910
 3420SOL    HW212893   6.368   8.346   9.335  0.4462 -0.4869 -2.4260
 3421SOL     OW12894   7.667   4.779   9.958 -0.4994  0.3668 -0.2478
 3421SOL    HW112895   7.679   4.776  10.053 -1.2044  0.9595 -0.1335
 3421SOL    HW212896   7.574   4.801   9.946 -0.4580  0.1327 -1.0741
 3422SOL     OW12897   3.923   7.504   7.878  0.3104  0.0272 -0.3914
 3422SOL    HW112898   3.930   7.422   7.827  0.2483 -0.5583  0.5178
 3422SOL    HW212899   3.920   7.475   7.969 -0.2841  1.0278 -0.0849
 3423SOL     OW12900   8.812   2.953   7.214 -0.4726  0.3143  0.5781
 3423SOL    HW112901   8.855   3.000   7.143  1.2219  1.1647  2.0809
 3423SOL    HW212902   8.737   3.008   7.237 -0.6759  0.3421 -0.1252
 3424SOL     OW12903   7.688   1.400   0.179 -0.0979 -0.3844  0.0308
 3424SOL    HW112904   7.665   1.320   0.131 -0.9799 -0.2844  0.2676
 3424SOL    HW212905   7.748   1.370   0.248 -1.3219 -1.0568  0.8470
 3425SOL     OW12906  10.193   7.396   0.937  0.4590  0.0743  0.0685
 3425SOL    HW112907  10.246   7.366   0.863 -0.1445 -0.9522  0.0400
 3425SOL    HW212908  10.147   7.318   0.968  1.0261  0.3952  1.8178
 3426SOL     OW12909   3.170   3.947   6.765  0.6289  0.1533 -0.4771
 3426SOL    HW112910   3.222   3.955   6.686  1.0514 -1.0247 -0.3347
 3426SOL    HW212911   3.178   4.032   6.808  0.5376  0.7417 -1.5941
 3427SOL     OW12912   9.984   0.707   6.427 -0.3146  0.0055 -0.0079
 3427SOL    HW112913  10.064   0.725   6.378  0.3544  1.2326  1.4571
 3427SOL    HW212914  10.013   0.651   6.499 -1.3159 -1.9354 -1.0122
 3428SOL     OW12915   0.507   7.590   5.026 -0.3611 -0.5476 -0.1069
 3428SOL    HW112916   0.436   7.606   4.964 -0.5767  1.6619  0.6523
 3428SOL    HW212917   0.577   7.648   4.998  0.3582 -1.1433  0.4305
 3429SOL     OW12918   1.899   1.399   8.086 -0.1236  0.2577  0.0808
 3429SOL    HW112919   1.877   1.462   8.018  1.3106  0.0982 -0.5659
 3429SOL    HW212920   1.888   1.448   8.168 -1.2481  0.6401 -0.2877
 3430SOL     OW12921   7.523   9.035   1.388  0.2409 -0.1064  0.3411
 3430SOL    HW112922   7.533   8.965   1.453 -0.1127 -0.5958 -0.1192
 3430SOL    HW212923   7.429   9.040   1.373  0.3743 -0.6599 -0.8195
 3431SOL     OW12924   2.836   2.388   9.685 -0.4578  0.5313  0.3838
 3431SOL    HW112925   2.770   2.394   9.616  1.6042  1.1518 -1.6773
 3431SOL    HW212926   2.871   2.299   9.677  2.6160  1.7530 -2.3783
 3432SOL     OW12927   4.353   6.050   8.030 -0.2066  0.3207 -0.0890
 3432SOL    HW112928   4.330   6.006   7.948  0.3643 -1.2960  0.5756
 3432SOL    HW212929   4.341   6.143   8.011 -0.9672 -0.0616 -1.7192
 3433SOL     OW12930   5.371   4.255   6.775  0.4204  0.0850 -0.0786
 3433SOL    HW112931   5.418   4.297   6.847 -0.2890  2.8389 -1.0774
 3433SOL    HW212932   5.285   4.234   6.812  0.2734  0.9169  0.0764
 3434SOL     OW12933   5.478   0.874   6.790  0.5072  0.0411  0.7533
 3434SOL    HW112934   5.561   0.893   6.834  1.2082  1.9282 -1.2037
 3434SOL    HW212935   5.503   0.847   6.702 -0.9191  0.5302  0.1622
 3435SOL     OW12936   7.980   1.395   1.467  0.4010  0.2100 -0.3776
 3435SOL    HW112937   7.950   1.467   1.412  0.5554  2.7878  2.6247
 3435SOL    HW212938   8.069   1.377   1.437  0.4145  1.3785 -1.0974
 3436SOL     OW12939   0.458   9.257   1.013 -0.0626  0.6774  0.1606
 3436SOL    HW112940   0.504   9.335   0.982 -1.5120  1.2764 -0.5656
 3436SOL    HW212941   0.458   9.266   1.108  1.9970  0.2378  0.2484
 3437SOL     OW12942   0.460   5.128   2.987  0.1093  0.1052 -0.3757
 3437SOL    HW112943   0.518   5.059   3.021 -0.5106  0.1381  0.8144
 3437SOL    HW212944   0.372   5.099   3.012 -0.0823  1.9468  1.3671
 3438SOL     OW12945   4.576   8.765   5.217  0.0142 -1.1432  0.1707
 3438SOL    HW112946   4.647   8.715   5.255  0.7028 -1.2956 -1.2569
 3438SOL    HW212947   4.614   8.852   5.200  0.0231 -1.3690 -1.0323
 3439SOL     OW12948   6.520   6.893   3.565 -0.6478 -0.1635  0.2039
 3439SOL    HW112949   6.439   6.851   3.592 -0.2642 -0.1302  1.4656
 3439SOL    HW212950   6.547   6.945   3.640  0.3437  0.1348 -0.3350
 3440SOL     OW12951   2.373   6.291   8.680  0.3306  0.5860  0.2179
 3440SOL    HW112952   2.380   6.234   8.757 -0.3100 -0.6326 -0.5843
 3440SOL    HW212953   2.287   6.333   8.689  0.2027  0.3489  0.1061
 3441SOL     OW12954   2.509   0.573   5.490 -0.0552 -0.2053  0.5476
 3441SOL    HW112955   2.434   0.517   5.470  0.6281 -1.0882  0.3820
 3441SOL    HW212956   2.524   0.560   5.584 -1.1747  1.3243  0.9620
 3442SOL     OW12957   0.540  10.319   4.670 -0.0637  0.2229 -0.0495
 3442SOL    HW112958   0.508  10.229   4.664  1.8317 -0.4530 -0.5587
 3442SOL    HW212959   0.483  10.368   4.611 -2.0040 -0.3229  1.2530
 3443SOL     OW12960   8.886   3.120   5.944 -0.0303 -0.4196 -0.4178
 3443SOL    HW112961   8.966   3.141   5.992 -0.2796 -1.0918  0.3178
 3443SOL    HW212962   8.816   3.141   6.005 -0.5263  1.5274 -1.5524
 3444SOL     OW12963   3.570   9.364   6.569 -0.0164 -0.3838  0.0882
 3444SOL    HW112964   3.634   9.341   6.637  1.3238 -0.4273 -1.1419
 3444SOL    HW212965   3.606   9.444   6.530 -0.1612 -0.9756 -1.2961
 3445SOL     OW12966   9.486   5.690   7.076  0.5833  0.3512 -0.6519
 3445SOL    HW112967   9.454   5.764   7.025 -0.6822 -0.0033 -0.4021
 3445SOL    HW212968   9.414   5.627   7.074  0.5706  0.2455  1.3952
 3446SOL     OW12969   4.723  10.114   3.246 -0.3041  0.0891  0.2889
 3446SOL    HW112970   4.674  10.103   3.165 -1.1066  1.6295  0.5202
 3446SOL    HW212971   4.706  10.033   3.295  1.6113 -1.6387 -1.7265
 3447SOL     OW12972   5.477   7.849   2.376 -0.4959  0.8201 -0.1770
 3447SOL    HW112973   5.478   7.812   2.288 -0.8499  1.0025 -0.2552
 3447SOL    HW212974   5.403   7.909   2.377 -1.3562 -0.2148  0.6714
 3448SOL     OW12975  10.169   2.957   8.139 -0.4601  0.2645  0.0825
 3448SOL    HW112976  10.137   2.867   8.139 -0.3155  0.1964 -1.0743
 3448SOL    HW212977  10.231   2.961   8.212 -0.9867 -0.3689  0.5773
 3449SOL     OW12978  10.106   6.476   3.578 -0.3180 -0.3259  0.2184
 3449SOL    HW112979  10.056   6.478   3.496 -0.3379  0.7041  0.2332
 3449SOL    HW212980  10.185   6.427   3.557 -0.2906 -0.0131 -0.4432
 3450SOL     OW12981   3.996   7.753   9.001 -0.1156  0.4040 -0.0601
 3450SOL    HW112982   4.014   7.836   9.045  0.0483 -0.6291  1.9735
 3450SOL    HW212983   4.083   7.720   8.976  0.3590 -1.0595  2.9911
 3451SOL     OW12984   9.258   6.431  10.194  0.1221 -0.1099  0.1608
 3451SOL    HW112985   9.275   6.501  10.132  1.4141  0.7779  1.4685
 3451SOL    HW212986   9.325   6.365  10.176  1.7166  0.9780  1.7538
 3452SOL     OW12987   8.134   5.480   1.235  0.2093 -0.7425 -0.4984
 3452SOL    HW112988   8.082   5.404   1.264  0.4826 -1.1080 -0.9443
 3452SOL    HW212989   8.137   5.538   1.311 -0.4859 -0.9182 -0.3307
 3453SOL     OW12990   0.082   3.169   9.266 -0.6794 -0.3790  0.0725
 3453SOL    HW112991   0.143   3.136   9.200 -0.4187 -0.0744  0.1553
 3453SOL    HW212992   0.100   3.116   9.343  0.9909  1.0731  0.7611
 3454SOL     OW12993   1.575   6.310   9.450  0.0139  0.5350 -0.4050
 3454SOL    HW112994   1.575   6.395   9.493 -1.4348 -0.0179  0.8092
 3454SOL    HW212995   1.492   6.270   9.476  0.9915 -1.5627 -0.2799
 3455SOL     OW12996   5.343   0.132   3.136  0.1457  0.2577  0.3148
 3455SOL    HW112997   5.263   0.185   3.131  0.8199  1.2043 -1.3227
 3455SOL    HW212998   5.312   0.041   3.139 -0.9958  0.6453  0.6104
 3456SOL     OW12999   0.692   5.673   0.428 -0.2903 -0.2918  0.3299
 3456SOL    HW113000   0.778   5.698   0.394 -0.5684 -0.3610 -0.4561
 3456SOL    HW213001   0.639   5.752   0.417 -0.2599 -0.1623  1.0708
 3457SOL     OW13002  10.117   6.272   1.985  0.1900  0.2131  0.1798
 3457SOL    HW113003  10.205   6.274   2.023 -0.0436  0.1104  0.7220
 3457SOL    HW213004  10.121   6.199   1.923  0.7790  0.8242 -0.5267
 3458SOL     OW13005   8.462   9.281   9.676  0.7391 -0.4451 -0.5114
 3458SOL    HW113006   8.517   9.339   9.624 -0.4062  1.2303  0.0475
 3458SOL    HW213007   8.521   9.243   9.741  1.1098  2.1903  0.8231
 3459SOL     OW13008   0.763   5.357   1.360 -0.4634  0.0710  0.5627
 3459SOL    HW113009   0.737   5.449   1.361  1.0566  0.5267  1.8634
 3459SOL    HW213010   0.856   5.359   1.339 -0.1260 -1.0717  1.8577
 3460SOL     OW13011   1.531   3.671   6.312 -0.2012  0.0413 -0.3079
 3460SOL    HW113012   1.621   3.658   6.282 -0.7175 -3.2010 -0.8371
 3460SOL    HW213013   1.480   3.681   6.231 -0.3907  1.3737 -0.0332
 3461SOL     OW13014   2.506   3.225  10.122 -0.7120 -0.5754  0.4406
 3461SOL    HW113015   2.576   3.289  10.112 -0.5513 -0.7579  0.3989
 3461SOL    HW213016   2.492   3.190  10.034 -0.0588 -1.3755  0.6448
 3462SOL     OW13017   2.124   6.659   1.357  0.7832  0.6101 -0.2145
 3462SOL    HW113018   2.109   6.713   1.435  0.3593  1.7987 -1.0838
 3462SOL    HW213019   2.203   6.608   1.377 -0.2396 -0.3378  1.6162
 3463SOL     OW13020   2.478   0.465   3.926 -0.8806  0.1831  0.1967
 3463SOL    HW113021   2.419   0.394   3.899  0.9623 -1.2236 -0.2919
 3463SOL    HW213022   2.528   0.429   3.999  0.9539  0.4875 -0.8522
 3464SOL     OW13023   6.552   4.999   0.144  0.2902  0.1556 -0.1703
 3464SOL    HW113024   6.647   5.005   0.140  0.5611 -2.5080  0.8769
 3464SOL    HW213025   6.526   4.961   0.060  0.7117 -3.5484  1.1955
 3465SOL     OW13026   2.411   8.603   2.847 -0.0576 -0.8668  0.3097
 3465SOL    HW113027   2.351   8.582   2.775 -0.8644  1.2402  0.2966
 3465SOL    HW213028   2.440   8.692   2.829  1.1657 -0.9611  1.6413
 3466SOL     OW13029   3.861   3.236   2.164 -0.3568 -0.1457 -0.7080
 3466SOL    HW113030   3.779   3.232   2.213  0.2537 -1.8891  0.2819
 3466SOL    HW213031   3.877   3.329   2.150 -1.5752  0.3083  0.6839
 3467SOL     OW13032   4.476   5.585   1.197  0.2066  0.2313  0.1963
 3467SOL    HW113033   4.466   5.490   1.203  0.0934  0.2762  0.7646
 3467SOL    HW213034   4.481   5.603   1.103 -0.3031 -0.2799  0.0708
 3468SOL     OW13035   7.941  10.109   3.529  0.3326 -0.1660 -0.2988
 3468SOL    HW113036   8.013  10.057   3.494  0.5479  1.0115 -1.6905
 3468SOL    HW213037   7.982  10.172   3.588  0.3362 -0.0628 -0.4116
 3469SOL     OW13038   6.864   8.407   8.827 -0.3014 -0.0953  0.5788
 3469SOL    HW113039   6.788   8.450   8.787 -0.4999 -0.8018  0.1731
 3469SOL    HW213040   6.843   8.314   8.824  0.5606 -0.2991  0.5089
 3470SOL     OW13041   3.894   0.223   1.654 -0.5698  0.4981 -0.1931
 3470SOL    HW113042   3.940   0.279   1.591 -1.1244  2.0377  0.7110
 3470SOL    HW213043   3.955   0.217   1.728  0.6944 -2.4523 -1.3054
 3471SOL     OW13044   7.215   1.334   3.577 -0.2998  0.4679 -0.1343
 3471SOL    HW113045   7.295   1.383   3.599 -0.9750  1.2748  0.5965
 3471SOL    HW213046   7.147   1.401   3.574 -0.5691  0.2185 -3.2707
 3472SOL     OW13047   5.211   2.213   4.648  0.0798  0.0967  0.1233
 3472SOL    HW113048   5.204   2.239   4.740  2.7096  2.4536 -0.2050
 3472SOL    HW213049   5.131   2.247   4.607  0.2930  1.7930  1.0241
 3473SOL     OW13050   3.356   9.534   2.594 -0.0184 -0.3355 -0.0594
 3473SOL    HW113051   3.347   9.588   2.515  1.1960 -0.1934 -0.1160
 3473SOL    HW213052   3.427   9.575   2.643 -1.4564  0.2196  1.6657
 3474SOL     OW13053   7.582  10.172   5.971  0.3425 -0.1568 -0.1314
 3474SOL    HW113054   7.641  10.144   6.041  2.1620 -0.1269 -1.5900
 3474SOL    HW213055   7.626  10.245   5.929 -1.4901  0.9087 -0.3239
 3475SOL     OW13056   2.099   0.497   0.843  0.2341  0.4097 -0.1479
 3475SOL    HW113057   2.081   0.413   0.802 -0.1012  0.0006  0.8000
 3475SOL    HW213058   2.191   0.491   0.870  0.3191  0.4983 -0.4141
 3476SOL     OW13059   4.604   9.408   9.925 -0.3180 -0.4379 -0.5276
 3476SOL    HW113060   4.577   9.322   9.958  1.3693 -1.4126 -1.5404
 3476SOL    HW213061   4.618   9.395   9.832  3.0939  0.0112 -0.2125
 3477SOL     OW13062   1.359   1.308   3.359  0.1814 -0.4029 -0.2792
 3477SOL    HW113063   1.406   1.391   3.356 -1.8507  0.8125 -0.0932
 3477SOL    HW213064   1.396   1.257   3.287  0.2789  1.3470 -1.5283
 3478SOL     OW13065   4.248   0.808   1.693  0.1397  0.3573  0.2146
 3478SOL    HW113066   4.199   0.791   1.773  1.3550  0.7543  1.0635
 3478SOL    HW213067   4.226   0.735   1.635 -0.2479 -0.2785  1.1530
 3479SOL     OW13068   5.774   2.799   7.715  1.1029  0.5961  0.1040
 3479SOL    HW113069   5.693   2.813   7.764  0.3938 -0.0992 -0.8478
 3479SOL    HW213070   5.788   2.704   7.718  1.5943  0.6537 -0.1866
 3480SOL     OW13071   3.884   9.881   3.316 -0.2318  0.2679 -0.1609
 3480SOL    HW113072   3.863   9.795   3.354  0.2602  0.7786  1.3615
 3480SOL    HW213073   3.977   9.893   3.334 -0.2059  0.9439 -0.7303
 3481SOL     OW13074   8.778  10.189   6.759 -0.1482 -0.0117  0.0711
 3481SOL    HW113075   8.760  10.117   6.820 -0.5394  0.7607  0.9021
 3481SOL    HW213076   8.694  10.203   6.715 -0.4400  0.7678  0.8460
 3482SOL     OW13077   0.909   4.895   8.561  0.6701  0.3462  0.3518
 3482SOL    HW113078   0.826   4.857   8.591 -0.0731  0.6521 -1.2114
 3482SOL    HW213079   0.935   4.954   8.631  0.3359 -0.8405  1.5207
 3483SOL     OW13080   8.238   4.065   3.430  0.0544 -0.0406  0.5514
 3483SOL    HW113081   8.324   4.099   3.456 -0.1119  0.4130  0.5296
 3483SOL    HW213082   8.176   4.120   3.479 -0.2347 -0.0218  0.1648
 3484SOL     OW13083   2.855   0.869   6.774 -0.1991  0.3322  0.1381
 3484SOL    HW113084   2.934   0.919   6.790  0.1754 -0.1538 -0.1484
 3484SOL    HW213085   2.857   0.851   6.680 -0.0032 -0.7383  0.3360
 3485SOL     OW13086   6.722   3.550   8.139 -0.0809 -0.4425  0.0826
 3485SOL    HW113087   6.794   3.613   8.149  0.9271 -1.5456 -0.0745
 3485SOL    HW213088   6.735   3.487   8.210 -0.6321 -0.9140 -0.2244
 3486SOL     OW13089   0.772   0.121   1.616  0.7191 -0.1069  0.4849
 3486SOL    HW113090   0.796   0.198   1.564  0.8997  1.2143  2.4306
 3486SOL    HW213091   0.687   0.094   1.581  0.1840  1.5939  0.3792
 3487SOL     OW13092   2.793   5.251   7.073 -0.6868  0.1894 -0.2532
 3487SOL    HW113093   2.752   5.257   6.986 -2.0672  0.5970  0.3994
 3487SOL    HW213094   2.794   5.341   7.106 -1.2764 -0.1233  0.6390
 3488SOL     OW13095   2.803   0.229   2.950  0.4448  0.3629  0.6653
 3488SOL    HW113096   2.892   0.215   2.919  0.3649  0.5630  0.3413
 3488SOL    HW213097   2.766   0.293   2.889 -0.2220 -0.4105  0.2500
 3489SOL     OW13098   9.157   6.196   6.650 -1.0081  0.1457  0.8751
 3489SOL    HW113099   9.196   6.110   6.664 -0.9727  0.2312  1.3060
 3489SOL    HW213100   9.226   6.258   6.672 -0.4947  0.2899 -0.9747
 3490SOL     OW13101  10.092   5.241   8.960  0.3200 -0.0659 -0.2117
 3490SOL    HW113102  10.138   5.189   8.894 -0.1743  1.5291 -1.8887
 3490SOL    HW213103  10.161   5.291   9.003  0.5169 -0.2217 -0.3447
 3491SOL     OW13104   7.169   9.689   7.265  0.3328 -0.6389 -0.1490
 3491SOL    HW113105   7.217   9.772   7.263  0.5467 -0.7486  0.3234
 3491SOL    HW213106   7.112   9.692   7.188 -0.0214  0.1654  0.1341
 3492SOL     OW13107   5.333   3.163   5.206  0.2840  0.2636 -0.6856
 3492SOL    HW113108   5.305   3.084   5.160 -0.5411  1.3217 -2.0724
 3492SOL    HW213109   5.404   3.198   5.152  2.6568 -0.9640  1.4067
 3493SOL     OW13110   3.848   0.469   1.317 -0.2280  0.1257  0.4256
 3493SOL    HW113111   3.915   0.534   1.336  1.2547 -1.3864  0.6830
 3493SOL    HW213112   3.767   0.506   1.352  0.5449  1.8508  0.4448
 3494SOL     OW13113   2.626   3.947   5.104  0.4014  0.0291 -0.0648
 3494SOL    HW113114   2.721   3.937   5.102  0.3532 -0.5992 -2.5271
 3494SOL    HW213115   2.613   4.042   5.112  1.2331  0.1506 -0.0046
 3495SOL     OW13116   6.779   0.593   1.890 -0.4398 -0.0857 -0.3134
 3495SOL    HW113117   6.764   0.686   1.908  2.0085  0.1058  1.2960
 3495SOL    HW213118   6.862   0.591   1.842  0.7500 -1.4870  1.6501
 3496SOL     OW13119   0.852   2.387   7.733 -0.0137 -0.3735  0.2280
 3496SOL    HW113120   0.843   2.454   7.666  1.7673 -0.1952  0.1049
 3496SOL    HW213121   0.851   2.304   7.685  1.2891 -0.2445 -0.0741
 3497SOL     OW13122   9.252   9.503   0.762  0.2578 -0.3928  0.0391
 3497SOL    HW113123   9.327   9.549   0.799 -0.3889  0.6986  0.0488
 3497SOL    HW213124   9.253   9.525   0.669 -0.1875 -0.1559  0.0870
 3498SOL     OW13125   8.430   7.293   1.457  0.5808 -0.1643  0.1414
 3498SOL    HW113126   8.350   7.301   1.508  0.8549 -1.4767  0.8397
 3498SOL    HW213127   8.448   7.199   1.455 -0.6984 -0.5425 -4.4917
 3499SOL     OW13128   3.880   9.556   8.625  0.1521  0.2917  0.7977
 3499SOL    HW113129   3.970   9.530   8.644 -0.7873 -1.5162  3.2443
 3499SOL    HW213130   3.842   9.580   8.710 -2.1424 -0.6948  0.1554
 3500SOL     OW13131   3.093   3.680   6.218  0.1586 -0.2138  0.1962
 3500SOL    HW113132   3.141   3.738   6.278 -0.5268 -1.5908  2.2098
 3500SOL    HW213133   3.004   3.713   6.219  0.4335  0.6610 -1.3297
 3501SOL     OW13134   0.932   4.929   7.141  0.2666  0.5038 -0.0647
 3501SOL    HW113135   0.892   5.015   7.125  0.3579  0.7383  0.9392
 3501SOL    HW213136   1.005   4.924   7.079 -0.1725  0.8500 -0.6172
 3502SOL     OW13137   0.218   2.591   2.662 -0.0213 -0.0861  0.0745
 3502SOL    HW113138   0.283   2.542   2.713 -0.8184 -0.7880  0.4372
 3502SOL    HW213139   0.213   2.545   2.579  2.5511  2.0453 -1.4366
 3503SOL     OW13140   2.005   4.474   6.719  0.2184 -0.3814 -0.4046
 3503SOL    HW113141   2.083   4.490   6.771  0.4544  0.0076 -0.8729
 3503SOL    HW213142   1.952   4.415   6.773  0.7208 -0.4519  0.0176
 3504SOL     OW13143   3.662   7.714   8.240 -0.3622 -0.0712 -0.1556
 3504SOL    HW113144   3.584   7.668   8.209 -0.4255  0.0481 -0.1750
 3504SOL    HW213145   3.672   7.787   8.180 -0.4146  0.0919  0.0325
 3505SOL     OW13146   0.776   0.888   2.016 -0.2697  0.1625 -0.1104
 3505SOL    HW113147   0.736   0.833   1.949 -1.2043  2.6951 -1.7890
 3505SOL    HW213148   0.870   0.885   1.997 -0.3463 -0.5092 -0.4163
 3506SOL     OW13149   8.867   0.489   7.226  0.0590 -0.5818  0.2577
 3506SOL    HW113150   8.803   0.418   7.230 -0.0710 -0.4427  0.7215
 3506SOL    HW213151   8.926   0.472   7.300 -0.4402  0.2309  0.8566
 3507SOL     OW13152   7.669   8.056   5.690  0.1070 -0.1568  0.2303
 3507SOL    HW113153   7.664   7.962   5.710 -0.5216 -0.0102  0.7927
 3507SOL    HW213154   7.760   8.070   5.666  0.8533 -0.4247  2.6447
 3508SOL     OW13155   5.861  10.033  10.318  0.7056  0.1691 -0.4056
 3508SOL    HW113156   5.801   9.967  10.283 -0.5402  1.2132 -0.3373
 3508SOL    HW213157   5.852  10.025  10.413 -0.9862  1.7073 -0.3810
 3509SOL     OW13158   3.317   1.149   6.217 -0.5213 -0.4862  0.2187
 3509SOL    HW113159   3.303   1.060   6.186 -2.5006  0.1779 -1.0512
 3509SOL    HW213160   3.245   1.199   6.178  0.4739  1.6527  0.9536
 3510SOL     OW13161   4.640   7.665  10.017 -0.1044 -0.3452 -0.2597
 3510SOL    HW113162   4.573   7.733  10.026  2.3250  2.3021 -0.8630
 3510SOL    HW213163   4.652   7.631  10.105 -1.8691 -0.5796 -0.0720
 3511SOL     OW13164   1.653   2.964   0.109 -0.8809  0.4635  0.7748
 3511SOL    HW113165   1.656   3.059   0.108 -1.4021  0.5113 -1.5636
 3511SOL    HW213166   1.721   2.937   0.047 -2.2820 -0.5765 -0.3834
 3512SOL     OW13167   6.975   4.793   5.006 -0.0148  0.2349  0.0903
 3512SOL    HW113168   6.936   4.848   4.938 -1.1503 -1.4166 -0.6789
 3512SOL    HW213169   6.935   4.707   4.992  1.1649 -0.6160  1.6728
 3513SOL     OW13170   9.156   7.085  10.283  0.0111 -0.0543  0.2383
 3513SOL    HW113171   9.246   7.099  10.312  0.1361 -0.0169 -0.1574
 3513SOL    HW213172   9.164   7.020  10.213 -0.1655  0.6413 -0.4331
 3514SOL     OW13173   3.456   2.606   5.161 -0.2250 -0.4284 -0.1544
 3514SOL    HW113174   3.528   2.658   5.196  0.0762 -1.1575  0.3398
 3514SOL    HW213175   3.391   2.671   5.132  0.1927  0.2175  0.3309
 3515SOL     OW13176   0.474   7.413   6.998 -0.0949  0.3188  0.0468
 3515SOL    HW113177   0.399   7.363   7.031  0.1938  1.2516  2.3107
 3515SOL    HW213178   0.531   7.346   6.960 -0.4843 -0.9083  1.4854
 3516SOL     OW13179   8.297   5.709   1.401 -0.0845  0.2518  0.1284
 3516SOL    HW113180   8.302   5.796   1.441  0.4816  1.2204 -1.9092
 3516SOL    HW213181   8.288   5.649   1.475  0.3187  1.9708  1.6462
 3517SOL     OW13182   9.019   5.993   0.034 -0.1358 -0.4749  0.3173
 3517SOL    HW113183   9.024   6.075   0.083  1.5861  0.8186 -1.8518
 3517SOL    HW213184   9.109   5.975   0.007 -1.0250 -0.4255 -3.2403
 3518SOL     OW13185   6.681   4.761   5.229  0.0064 -0.5526 -0.0894
 3518SOL    HW113186   6.586   4.755   5.239  0.0234 -1.4936 -0.4319
 3518SOL    HW213187   6.700   4.714   5.148  0.8046 -0.6504  0.1475
 3519SOL     OW13188   6.880   7.880   0.832 -0.1604 -0.1296 -0.0120
 3519SOL    HW113189   6.917   7.794   0.854 -0.7315  0.4282  3.9444
 3519SOL    HW213190   6.797   7.882   0.879 -2.4449  0.9708 -3.7397
 3520SOL     OW13191   0.525   1.690   7.370 -0.1287 -0.5482  0.8356
 3520SOL    HW113192   0.604   1.670   7.421  0.3922  1.3723  0.8502
 3520SOL    HW213193   0.558   1.714   7.283 -0.5662  1.4252  1.1801
 3521SOL     OW13194   6.293   8.181   3.345  0.5961  0.0722 -0.7515
 3521SOL    HW113195   6.243   8.136   3.276  1.0262 -2.0006  0.1904
 3521SOL    HW213196   6.374   8.208   3.302  1.4453 -2.3692 -0.8691
 3522SOL     OW13197   7.900   5.599   5.958 -0.0519  0.0843  0.0938
 3522SOL    HW113198   7.938   5.685   5.971  0.6335  0.2773 -2.6981
 3522SOL    HW213199   7.965   5.550   5.907 -2.6488 -0.1304 -3.3852
 3523SOL     OW13200   5.499   7.455   3.659  0.0534  0.2546 -0.2128
 3523SOL    HW113201   5.473   7.445   3.568  0.7423  0.7046 -0.4705
 3523SOL    HW213202   5.455   7.534   3.688 -2.6312 -1.4855  0.7920
 3524SOL     OW13203   3.589   9.171   2.801 -0.0426 -0.3207  0.2263
 3524SOL    HW113204   3.684   9.173   2.812 -0.1061  0.5826  0.6684
 3524SOL    HW213205   3.554   9.197   2.886 -0.6253  1.9525 -0.6475
 3525SOL     OW13206   4.849   0.985   8.140  0.1275  0.1383 -0.1878
 3525SOL    HW113207   4.819   0.914   8.197  1.0626  1.3188  1.8772
 3525SOL    HW213208   4.929   1.017   8.181 -0.7652  3.0232 -0.4744
 3526SOL     OW13209   3.892  10.315   4.351 -0.2334  0.1695 -0.6239
 3526SOL    HW113210   3.823  10.340   4.289 -0.3267  0.3321 -0.4572
 3526SOL    HW213211   3.852  10.330   4.437 -0.4057 -0.8473 -0.5106
 3527SOL     OW13212   8.882   9.955   7.185 -0.0492 -0.0161 -0.2421
 3527SOL    HW113213   8.843   9.945   7.272  1.2102  0.0307  0.3442
 3527SOL    HW213214   8.937   9.878   7.174 -0.4215 -0.1675 -1.1302
 3528SOL     OW13215   5.637   6.627  10.275 -0.1234 -0.3221  0.7069
 3528SOL    HW113216   5.570   6.578  10.229  1.4646 -2.6928  0.7188
 3528SOL    HW213217   5.658   6.700  10.217 -0.3240 -1.5020 -0.9283
 3529SOL     OW13218   9.981   7.227   2.793  0.4730  0.0914 -0.2932
 3529SOL    HW113219  10.057   7.282   2.774 -1.0574  2.8110  0.7433
 3529SOL    HW213220   9.931   7.227   2.712  0.5486  0.1724 -0.3404
 3530SOL     OW13221   0.051   7.659   4.374  0.1954 -0.2318 -0.1859
 3530SOL    HW113222   0.040   7.748   4.407 -0.7512 -0.3049 -0.2737
 3530SOL    HW213223  -0.023   7.645   4.316  0.4340 -1.0182 -0.3204
 3531SOL     OW13224   3.391   2.342   0.748  0.8229  0.5354  0.5486
 3531SOL    HW113225   3.363   2.253   0.728  2.8441 -0.1230  0.4888
 3531SOL    HW213226   3.485   2.335   0.766  0.5059  2.1866  3.4303
 3532SOL     OW13227   5.971   6.063   0.619  0.6254 -0.1632 -0.0129
 3532SOL    HW113228   5.939   6.105   0.699  0.7287 -0.6290  0.2709
 3532SOL    HW213229   6.064   6.047   0.635  0.0293 -3.0539  1.0032
 3533SOL     OW13230   1.110   4.227   8.876  0.2444  0.4825 -0.3871
 3533SOL    HW113231   1.024   4.253   8.908  1.0889  2.8163  0.1997
 3533SOL    HW213232   1.137   4.157   8.935  0.7428  3.0530  2.6623
 3534SOL     OW13233   7.792   2.851   5.081 -0.2586  0.3174 -0.2963
 3534SOL    HW113234   7.782   2.910   5.155  2.1648 -1.7041  1.8562
 3534SOL    HW213235   7.719   2.789   5.090 -0.0594  0.1689  0.3261
 3535SOL     OW13236  10.267   0.418   5.021  0.2682  0.2414  0.4916
 3535SOL    HW113237  10.213   0.470   5.080 -0.5585  0.7253 -0.6546
 3535SOL    HW213238  10.302   0.348   5.076 -1.7620 -0.2735  1.2136
 3536SOL     OW13239   1.958   3.790   1.978  0.0265 -0.6029  0.0700
 3536SOL    HW113240   1.962   3.867   2.034 -0.6914  0.7291 -1.6034
 3536SOL    HW213241   1.879   3.743   2.006 -0.1127 -0.1580  0.4295
 3537SOL     OW13242   1.048   8.237   5.642  0.2047  0.8754  0.1516
 3537SOL    HW113243   1.091   8.239   5.728 -0.7893  1.2543  0.6687
 3537SOL    HW213244   0.961   8.274   5.659 -0.0376  0.8680 -1.0104
 3538SOL     OW13245   7.888   8.782   0.759 -0.0062 -0.4007  0.3657
 3538SOL    HW113246   7.914   8.778   0.667 -1.5438  1.5195 -0.2221
 3538SOL    HW213247   7.807   8.732   0.764 -1.7994  2.1933 -0.1735
 3539SOL     OW13248   3.635   6.487   3.000 -0.7877 -0.0999 -0.2476
 3539SOL    HW113249   3.701   6.422   2.976 -0.3500  0.2660 -0.0614
 3539SOL    HW213250   3.560   6.467   2.944 -0.3592 -0.2465 -0.7828
 3540SOL     OW13251   1.329   1.715   0.383  0.8828 -0.0824  0.1207
 3540SOL    HW113252   1.386   1.643   0.410  0.6936  0.0332  0.8497
 3540SOL    HW213253   1.311   1.764   0.464 -0.0058  0.0524 -0.1419
 3541SOL     OW13254   3.094   8.903   9.014 -0.1368 -0.4818  0.1885
 3541SOL    HW113255   3.122   8.979   9.064 -1.3020 -0.7344  1.2815
 3541SOL    HW213256   3.124   8.828   9.066 -0.2447 -0.7598 -0.1461
 3542SOL     OW13257   5.031   3.951  10.022  0.0826 -0.1639  0.0233
 3542SOL    HW113258   5.059   4.031   9.978  0.8441  0.0461  0.8472
 3542SOL    HW213259   4.995   3.896   9.952  1.7204 -0.0512 -0.9766
 3543SOL     OW13260   7.321   9.037   8.038 -0.0326  0.0464  0.7568
 3543SOL    HW113261   7.378   9.041   7.961 -0.1379 -0.2546  0.6613
 3543SOL    HW213262   7.329   9.123   8.078 -2.8007  1.5625 -1.6087
 3544SOL     OW13263   7.738   0.139   6.868  0.6459  0.5437 -0.3100
 3544SOL    HW113264   7.800   0.104   6.932  0.4513  1.8967  0.6465
 3544SOL    HW213265   7.653   0.108   6.898  0.7676 -1.0260 -1.4327
 3545SOL     OW13266   0.322   2.599   6.037 -0.2317 -0.1532 -0.5873
 3545SOL    HW113267   0.392   2.626   5.977 -0.0703 -0.0908 -0.3723
 3545SOL    HW213268   0.294   2.681   6.079  0.1663 -0.2955 -0.0323
 3546SOL     OW13269   0.348   3.839   3.968  0.4484  0.1836 -0.4511
 3546SOL    HW113270   0.424   3.782   3.971 -2.4080 -4.0785 -0.3713
 3546SOL    HW213271   0.335   3.867   4.059  0.4487 -1.3092  0.0270
 3547SOL     OW13272   5.900   5.537   4.883  0.2570 -0.1341  0.0894
 3547SOL    HW113273   5.914   5.536   4.977  2.3242 -1.1957 -0.1611
 3547SOL    HW213274   5.835   5.468   4.867 -0.5357  0.4452  0.7703
 3548SOL     OW13275   4.466   4.064   3.737 -0.2668 -0.4846  0.0926
 3548SOL    HW113276   4.473   4.156   3.712  0.0040 -0.4323  0.3542
 3548SOL    HW213277   4.488   4.016   3.656 -0.4485 -0.3234 -0.0542
 3549SOL     OW13278   8.934  10.240   2.452 -0.0683 -0.4282 -0.3228
 3549SOL    HW113279   9.018  10.260   2.493  0.7596  1.0804 -2.5597
 3549SOL    HW213280   8.955  10.226   2.360 -2.1201 -1.3545 -0.6962
 3550SOL     OW13281   0.324   0.594   7.246  0.0881 -0.1261  0.2502
 3550SOL    HW113282   0.389   0.560   7.185 -0.4276  0.7123 -0.8237
 3550SOL    HW213283   0.292   0.518   7.293  1.0421 -0.6946  0.0019
 3551SOL     OW13284   5.039   4.636  10.079  0.6500  0.2798 -0.1164
 3551SOL    HW113285   5.110   4.608  10.137  0.6975  0.3589 -0.1355
 3551SOL    HW213286   4.976   4.678  10.137  0.1983 -0.5843  0.0258
 3552SOL     OW13287   0.626   3.764   4.768 -0.1606 -0.1735  0.5450
 3552SOL    HW113288   0.554   3.742   4.828  0.1754 -1.3762  0.5175
 3552SOL    HW213289   0.610   3.710   4.691  0.4350  0.0235  0.2818
 3553SOL     OW13290   3.745   3.512   6.022  0.3360  0.1642  0.0389
 3553SOL    HW113291   3.762   3.599   5.988  0.8355 -0.6723 -2.0471
 3553SOL    HW213292   3.815   3.458   5.985 -1.4824 -1.6086 -1.0177
 3554SOL     OW13293   1.527   2.446   9.423  0.3742 -0.0484 -0.3399
 3554SOL    HW113294   1.473   2.525   9.417  0.0982 -0.1726  0.4880
 3554SOL    HW213295   1.562   2.435   9.334 -0.4920  0.3589 -0.7454
 3555SOL     OW13296   1.527   4.660   6.111  0.1455 -0.2739 -0.1203
 3555SOL    HW113297   1.572   4.622   6.186 -0.4362 -0.2415  0.2499
 3555SOL    HW213298   1.590   4.653   6.039  0.7759 -0.1326  0.4122
 3556SOL     OW13299   1.428   1.590   6.614 -0.2078 -0.0918  0.3781
 3556SOL    HW113300   1.516   1.628   6.615 -0.2444  0.0503 -0.7220
 3556SOL    HW213301   1.372   1.660   6.581 -0.8154 -0.0358  1.4936
 3557SOL     OW13302   1.650   9.355   5.034 -0.1293  0.0924  0.4760
 3557SOL    HW113303   1.683   9.313   4.954 -0.2245 -2.8859  1.8492
 3557SOL    HW213304   1.718   9.418   5.058  0.8766 -0.4319 -0.8623
 3558SOL     OW13305   8.501   1.467   1.565 -0.1157 -0.1141 -0.2494
 3558SOL    HW113306   8.498   1.439   1.474 -0.2315  0.4836 -0.4367
 3558SOL    HW213307   8.426   1.426   1.607  0.0147 -0.4961 -0.3915
 3559SOL     OW13308   1.449   1.537  10.316  0.0231 -0.2331 -0.0069
 3559SOL    HW113309   1.472   1.444  10.317  0.4978 -0.1246  1.1037
 3559SOL    HW213310   1.386   1.547  10.388  1.6080  0.6476  1.3519
 3560SOL     OW13311   6.913   1.048   8.136  0.2095  0.6943  0.5882
 3560SOL    HW113312   6.949   1.050   8.225 -1.6955  0.6695  1.4099
 3560SOL    HW213313   6.818   1.043   8.149 -0.0541 -1.5796 -1.4303
 3561SOL     OW13314   7.104   2.525   4.944 -0.5523  0.1480  0.2752
 3561SOL    HW113315   7.034   2.556   5.000 -0.2749 -0.0476  0.7357
 3561SOL    HW213316   7.095   2.429   4.944  1.3770 -0.1342  2.6160
 3562SOL     OW13317   6.121   6.997   9.150  0.1747  0.5268 -0.1294
 3562SOL    HW113318   6.164   6.931   9.096 -0.1763 -0.2162  0.5008
 3562SOL    HW213319   6.039   6.956   9.179  0.1654  1.0648  0.6382
 3563SOL     OW13320   9.365   7.582   9.841  0.1156  0.0020  0.5678
 3563SOL    HW113321   9.298   7.627   9.892  0.5326  1.9868 -0.5041
 3563SOL    HW213322   9.447   7.624   9.867  0.7100 -1.0897  0.4934
 3564SOL     OW13323   9.649   2.231   1.567  0.1888 -0.0720 -0.2204
 3564SOL    HW113324   9.700   2.211   1.489  0.3173  0.1591 -0.1973
 3564SOL    HW213325   9.624   2.146   1.602  2.2054 -0.2727  0.8780
 3565SOL     OW13326   6.221   0.898   3.675  0.7493 -0.2078 -0.7610
 3565SOL    HW113327   6.172   0.825   3.714 -0.3857  0.3719 -1.0546
 3565SOL    HW213328   6.312   0.871   3.680  0.2460 -2.5869 -2.7669
 3566SOL     OW13329   5.464   9.226   9.280  0.8109 -0.0890  0.2622
 3566SOL    HW113330   5.471   9.229   9.375  1.0375 -1.8714  0.3350
 3566SOL    HW213331   5.506   9.143   9.255 -1.6370 -1.0410 -1.1163
 3567SOL     OW13332   8.162   9.389   7.427 -0.4730 -0.3854 -0.2285
 3567SOL    HW113333   8.130   9.320   7.486  2.6673 -3.2575 -1.5005
 3567SOL    HW213334   8.239   9.424   7.471 -0.5698  0.4907 -0.7410
 3568SOL     OW13335   3.419   7.953   8.244 -0.1137 -0.5859 -0.0869
 3568SOL    HW113336   3.426   8.002   8.326  3.0530  0.4535 -0.8489
 3568SOL    HW213337   3.425   7.861   8.271  0.7854 -0.2683  0.8446
 3569SOL     OW13338   6.922   8.923   0.484 -0.1772 -0.3576  0.5587
 3569SOL    HW113339   6.935   8.879   0.400 -1.1462 -0.8846  0.6793
 3569SOL    HW213340   6.879   9.006   0.461 -0.3510 -0.4570  0.5262
 3570SOL     OW13341   6.113   2.447   3.854  0.2482 -0.2071  0.1198
 3570SOL    HW113342   6.086   2.359   3.827  0.3943  0.1068 -1.0836
 3570SOL    HW213343   6.065   2.507   3.797 -1.4072  0.6280  2.2541
 3571SOL     OW13344   5.758   5.636   6.952  0.3060  0.0864 -0.2510
 3571SOL    HW113345   5.792   5.547   6.958 -0.6790 -0.4275 -1.7606
 3571SOL    HW213346   5.667   5.629   6.978  0.1334  0.5808 -0.7039
 3572SOL     OW13347  10.283   2.563   5.319 -0.5271 -0.5384  0.0885
 3572SOL    HW113348  10.294   2.646   5.274 -3.2801  0.6059  1.3104
 3572SOL    HW213349  10.351   2.563   5.386 -2.2805  2.3212  2.1176
 3573SOL     OW13350  10.236   9.496   1.468  0.0639  0.2806 -0.3363
 3573SOL    HW113351  10.301   9.498   1.537 -2.4877  1.8653  2.2449
 3573SOL    HW213352  10.231   9.586   1.436 -1.1059  0.3040 -0.1573
 3574SOL     OW13353   3.402   1.112   5.399 -0.1616  0.4347 -0.5551
 3574SOL    HW113354   3.444   1.174   5.459  1.3642 -0.3705 -0.7426
 3574SOL    HW213355   3.459   1.109   5.323  0.2471 -1.7414 -0.2397
 3575SOL     OW13356   8.271   8.042   2.879  0.5823 -0.2105 -0.7435
 3575SOL    HW113357   8.199   8.104   2.890  0.2679 -0.5417 -0.9429
 3575SOL    HW213358   8.347   8.088   2.915  0.0043 -0.4096  0.7680
 3576SOL     OW13359   3.315   1.681   1.324  0.6273  0.0942  0.1427
 3576SOL    HW113360   3.360   1.733   1.391  1.7455 -2.3323  1.4145
 3576SOL    HW213361   3.274   1.609   1.373 -1.3400  0.0332 -1.4706
 3577SOL     OW13362   9.083   2.026   4.887 -0.1645  0.4655 -0.1281
 3577SOL    HW113363   9.138   2.101   4.910  1.1788 -0.4371 -0.3029
 3577SOL    HW213364   9.040   2.002   4.970  1.5111 -0.2380  0.5779
 3578SOL     OW13365   2.746   7.885   6.060 -0.3781 -0.0214  0.0855
 3578SOL    HW113366   2.838   7.857   6.064  0.0131  1.2605  1.3336
 3578SOL    HW213367   2.750   7.979   6.079 -1.8544  0.2944 -1.0742
 3579SOL     OW13368   6.754   4.069   9.551 -0.0309  0.7699  0.2782
 3579SOL    HW113369   6.820   4.001   9.568  0.7424  1.5281  0.4138
 3579SOL    HW213370   6.746   4.116   9.634 -0.6305  0.7807  0.2167
 3580SOL     OW13371   5.536   6.691   1.513 -0.2283 -0.3193 -0.3206
 3580SOL    HW113372   5.615   6.657   1.556  1.1143  1.0460 -1.5739
 3580SOL    HW213373   5.464   6.647   1.557  1.1153 -0.1105  2.2996
 3581SOL     OW13374   7.473   3.366   2.225  0.6584 -0.1712  0.0631
 3581SOL    HW113375   7.411   3.302   2.190 -0.2166 -0.2521  1.6817
 3581SOL    HW213376   7.525   3.318   2.288 -1.6475  1.0868  3.2044
 3582SOL     OW13377   4.946   3.124   0.174  0.0674 -0.5422  0.4145
 3582SOL    HW113378   5.029   3.095   0.137 -0.2595  0.5750 -1.3172
 3582SOL    HW213379   4.883   3.057   0.147  0.0455 -0.3234 -0.0971
 3583SOL     OW13380   3.328   3.230   6.328  0.0417  0.5584  0.3758
 3583SOL    HW113381   3.276   3.308   6.308 -0.3911  0.5596  1.4342
 3583SOL    HW213382   3.408   3.264   6.367  0.5359  0.5230 -0.5761
 3584SOL     OW13383   4.008   0.153   0.200  0.2909 -0.7275 -0.6489
 3584SOL    HW113384   3.939   0.087   0.194  1.2032 -2.2348  2.7851
 3584SOL    HW213385   3.967   0.225   0.249  0.4906 -0.6093 -0.6542
 3585SOL     OW13386   1.952   2.523   2.044 -0.5469 -0.3703  0.0165
 3585SOL    HW113387   1.968   2.487   1.957  1.8697 -1.5801  0.8687
 3585SOL    HW213388   1.939   2.447   2.100  1.2661  0.1501  1.2585
 3586SOL     OW13389   6.364  10.068   0.943 -0.4436  0.6950  0.8765
 3586SOL    HW113390   6.429  10.120   0.991  0.2559  1.8109 -1.1214
 3586SOL    HW213391   6.313  10.024   1.010  1.8476  0.4281  2.5797
 3587SOL     OW13392   5.313   5.414   7.893 -0.0200 -0.2717  0.5985
 3587SOL    HW113393   5.388   5.355   7.888  1.2591  1.2060  1.3195
 3587SOL    HW213394   5.292   5.435   7.803 -1.4753 -2.9152  0.2229
 3588SOL     OW13395   2.016   7.871   2.006 -0.1082  0.1386  0.2867
 3588SOL    HW113396   2.038   7.871   1.913  0.4214 -2.0833  0.3716
 3588SOL    HW213397   1.947   7.938   2.014 -1.6926 -1.0654 -2.1013
 3589SOL     OW13398   5.345   2.813   6.269  0.0020 -0.1847  0.6596
 3589SOL    HW113399   5.395   2.869   6.329 -0.9552  0.6682  0.6663
 3589SOL    HW213400   5.365   2.724   6.299  0.3625  0.1950  1.5931
 3590SOL     OW13401   6.442   0.143   7.600  0.3698  0.2265  0.2710
 3590SOL    HW113402   6.401   0.144   7.687  0.0108 -0.6851  0.1323
 3590SOL    HW213403   6.534   0.160   7.617  0.1480  1.0442  0.7264
 3591SOL     OW13404   5.211   2.147   4.960 -0.1957  0.1621 -0.3477
 3591SOL    HW113405   5.162   2.222   4.927  0.0327  0.1533 -0.7103
 3591SOL    HW213406   5.167   2.071   4.922 -0.8287  0.0674  0.5352
 3592SOL     OW13407   0.311   6.812   3.172 -0.0781  0.2166 -0.0095
 3592SOL    HW113408   0.324   6.784   3.082 -1.3253 -1.3511  0.2713
 3592SOL    HW213409   0.396   6.797   3.214 -0.4284 -2.3208 -0.1074
 3593SOL     OW13410   9.554   7.555   3.409  0.3930 -0.3857 -0.3139
 3593SOL    HW113411   9.477   7.501   3.395  0.5248 -1.1050  1.4319
 3593SOL    HW213412   9.532   7.609   3.485 -0.2216  3.0581 -2.7147
 3594SOL     OW13413   0.648   2.923   5.490  0.1190  0.4002  0.0765
 3594SOL    HW113414   0.594   3.002   5.486  1.0782  1.2752  2.4509
 3594SOL    HW213415   0.686   2.916   5.402 -0.9948  1.8270 -0.5685
 3595SOL     OW13416   7.292   5.364   5.361  1.0477  0.2348  0.2495
 3595SOL    HW113417   7.359   5.415   5.316  2.0562 -2.2346 -1.2779
 3595SOL    HW213418   7.334   5.279   5.378 -1.5918 -1.3556 -0.5916
 3596SOL     OW13419   5.234   9.676   1.269 -0.2135  1.0476  0.0574
 3596SOL    HW113420   5.226   9.688   1.174 -0.1199  0.7731  0.0167
 3596SOL    HW213421   5.150   9.706   1.303 -0.2333  1.1848 -0.1086
 3597SOL     OW13422   6.319   2.425   7.175  0.1410 -0.7099  0.6656
 3597SOL    HW113423   6.365   2.357   7.125 -0.7771  0.6148 -2.1881
 3597SOL    HW213424   6.226   2.406   7.163 -0.1410  1.0757 -0.3136
 3598SOL     OW13425   2.631   1.089   2.653 -0.1142 -0.1971  0.0076
 3598SOL    HW113426   2.569   1.044   2.711 -0.3622  1.4204  1.0603
 3598SOL    HW213427   2.602   1.066   2.565 -0.2011 -2.1055  0.4870
 3599SOL     OW13428  10.280   8.132   0.308  0.0713 -0.4563 -0.4570
 3599SOL    HW113429  10.260   8.087   0.390  1.5813 -1.3055 -0.5157
 3599SOL    HW213430  10.214   8.098   0.246  0.5404 -1.8345 -0.2393
 3600SOL     OW13431   8.894   1.495   1.123 -0.5542 -0.5632  0.4165
 3600SOL    HW113432   8.869   1.408   1.090 -3.3959  0.5803 -0.8138
 3600SOL    HW213433   8.865   1.495   1.214 -1.1638 -0.7021  0.2300
 3601SOL     OW13434   3.420   1.819   7.386 -0.1836 -0.6180 -0.1051
 3601SOL    HW113435   3.485   1.888   7.379 -1.0430  0.4167  1.5527
 3601SOL    HW213436   3.404   1.792   7.295  0.0327  1.4866 -0.8152
 3602SOL     OW13437   2.344   0.177   0.209  0.5163  0.1736  0.7318
 3602SOL    HW113438   2.377   0.111   0.148  1.1246  0.1636  1.0628
 3602SOL    HW213439   2.249   0.166   0.207  0.5665 -0.1921  0.2006
 3603SOL     OW13440   7.513   7.801  10.081  0.4617 -0.2517 -0.0178
 3603SOL    HW113441   7.543   7.813   9.991 -0.3950 -0.3297 -0.3275
 3603SOL    HW213442   7.510   7.705  10.092 -1.3463 -0.2997 -0.6001
 3604SOL     OW13443   6.338   9.675   1.374 -0.2270  0.5547  0.0155
 3604SOL    HW113444   6.382   9.707   1.453 -1.7730  1.5865  0.5071
 3604SOL    HW213445   6.317   9.583   1.395 -1.6955  1.1354  1.3617
 3605SOL     OW13446   4.089   2.528   6.116  0.0244 -0.2970  0.3356
 3605SOL    HW113447   4.051   2.585   6.182  0.4536  0.3209  0.0524
 3605SOL    HW213448   4.180   2.556   6.109  0.1864 -0.8805  0.0485
 3606SOL     OW13449   1.340   5.990   2.523 -0.1407 -0.6893 -0.5805
 3606SOL    HW113450   1.429   6.014   2.550 -0.1392 -0.2515 -0.9771
 3606SOL    HW213451   1.288   6.002   2.603  0.2614 -1.5541 -0.1767
 3607SOL     OW13452   0.857   8.781   6.947 -0.2207  0.8243  0.2861
 3607SOL    HW113453   0.780   8.724   6.943 -0.9080  1.8105 -1.8116
 3607SOL    HW213454   0.870   8.797   7.040 -1.3516 -0.9444  0.7962
 3608SOL     OW13455   3.551   5.042   7.197  0.3527  0.6468 -0.1664
 3608SOL    HW113456   3.519   5.088   7.119 -0.3224 -0.1121 -0.3422
 3608SOL    HW213457   3.647   5.045   7.188  0.2817  0.4656 -1.0900
 3609SOL     OW13458   2.390   0.956   1.567  0.1127  0.5858 -0.1419
 3609SOL    HW113459   2.367   1.032   1.513 -1.1625  0.7235  0.5553
 3609SOL    HW213460   2.411   0.993   1.653 -0.7739  0.1455  0.2771
 3610SOL     OW13461   5.114  10.151   1.052  0.2035 -0.2303  0.4725
 3610SOL    HW113462   5.042  10.201   1.015 -0.6838 -0.9212  1.2385
 3610SOL    HW213463   5.104  10.064   1.014 -0.5383 -0.8663  2.0572
 3611SOL     OW13464   4.367   7.619   1.934  0.6894  0.0733  0.3688
 3611SOL    HW113465   4.394   7.605   2.024  0.4750 -1.1140  0.2653
 3611SOL    HW213466   4.283   7.575   1.926 -0.1903  1.7200  0.0546
 3612SOL     OW13467  10.112   1.218   6.882 -0.6084 -0.2461 -0.1292
 3612SOL    HW113468  10.067   1.173   6.954  0.8804 -0.2351  0.8373
 3612SOL    HW213469  10.050   1.287   6.855 -0.1285  1.6797  3.1195
 3613SOL     OW13470   3.620   0.797   8.691  0.1193  0.8362  0.0394
 3613SOL    HW113471   3.637   0.891   8.689  0.7562  0.8261  2.2892
 3613SOL    HW213472   3.533   0.787   8.651  0.0983  2.3475 -0.3447
 3614SOL     OW13473   5.151   5.688   4.799  0.8488 -0.2378  0.0273
 3614SOL    HW113474   5.111   5.759   4.749 -1.5397 -1.8680 -0.5811
 3614SOL    HW213475   5.216   5.650   4.740 -0.5234 -0.8638 -1.1456
 3615SOL     OW13476   4.921   6.053   7.248 -0.1230 -0.5503  0.0981
 3615SOL    HW113477   4.940   6.090   7.334  0.5915 -0.6168 -0.0307
 3615SOL    HW213478   4.897   5.962   7.266 -0.6695 -0.3736  0.2913
 3616SOL     OW13479   8.779   9.855   7.425  0.1021 -0.0691 -0.0372
 3616SOL    HW113480   8.739   9.785   7.477  2.3677  0.5631  2.8250
 3616SOL    HW213481   8.736   9.934   7.456 -0.0464  0.1222 -0.7374
 3617SOL     OW13482   8.853   1.503   2.458 -0.2856  0.0214 -0.7366
 3617SOL    HW113483   8.840   1.597   2.457  0.5446  0.1754  0.6111
 3617SOL    HW213484   8.886   1.484   2.546 -1.2718 -1.6404 -0.6866
 3618SOL     OW13485   2.849   6.644   2.243  0.1339  0.5057  0.3867
 3618SOL    HW113486   2.945   6.640   2.241  0.1763  1.0870  0.9298
 3618SOL    HW213487   2.822   6.555   2.264  0.5622  0.3735  0.3875
 3619SOL     OW13488   2.316   4.715   5.091 -0.3164  0.2043 -0.0240
 3619SOL    HW113489   2.387   4.778   5.079  0.7014 -0.8936  0.0396
 3619SOL    HW213490   2.285   4.731   5.181  2.3114 -1.6506  1.3562
 3620SOL     OW13491   1.397   6.752   4.414 -0.6165  0.2164 -0.2799
 3620SOL    HW113492   1.440   6.812   4.353 -0.0934  2.5397  2.1535
 3620SOL    HW213493   1.308   6.785   4.422 -0.9052 -0.5321 -0.3457
 3621SOL     OW13494   8.916   0.615   9.280  0.4498 -0.9580 -0.0162
 3621SOL    HW113495   8.948   0.696   9.320  0.3605 -0.8289 -0.2078
 3621SOL    HW213496   8.828   0.636   9.250 -0.6746 -1.8917  2.3640
 3622SOL     OW13497   1.533   6.654   6.655  0.3095  0.2024 -0.2505
 3622SOL    HW113498   1.544   6.700   6.571 -0.6788 -0.6093 -0.8395
 3622SOL    HW213499   1.544   6.562   6.633 -0.3839 -0.0518  0.4365
 3623SOL     OW13500   0.467   7.491   2.488 -0.0143 -0.9186 -0.1616
 3623SOL    HW113501   0.415   7.504   2.568 -0.2170 -2.1508 -0.0885
 3623SOL    HW213502   0.460   7.398   2.469  1.7485 -1.0203 -0.4401
 3624SOL     OW13503   2.379   8.859   0.105  0.3683 -0.1499  0.0024
 3624SOL    HW113504   2.391   8.777   0.057 -0.8226  0.7160 -1.9399
 3624SOL    HW213505   2.462   8.874   0.150  0.9441 -1.9012 -0.4034
 3625SOL     OW13506   0.412   0.658   5.338 -0.3308  0.1642 -0.0679
 3625SOL    HW113507   0.410   0.603   5.417 -0.4547  0.1681 -0.0684
 3625SOL    HW213508   0.368   0.739   5.364  0.0522  0.3525 -0.0013
 3626SOL     OW13509   2.206   6.951   4.850 -0.3014 -0.2270 -0.3998
 3626SOL    HW113510   2.244   6.871   4.814  0.6595 -1.7281  3.4686
 3626SOL    HW213511   2.119   6.924   4.880 -0.7289  0.7105 -0.7686
 3627SOL     OW13512   8.667   8.914   6.940 -0.3007 -0.1449  0.8359
 3627SOL    HW113513   8.733   8.884   6.878 -1.2350  2.4331 -1.6198
 3627SOL    HW213514   8.592   8.856   6.924 -0.2168 -0.0883  0.2082
 3628SOL     OW13515   0.778   8.717  10.067  0.3504  0.0602 -0.1063
 3628SOL    HW113516   0.725   8.756  10.136  0.0854  1.8525 -1.2503
 3628SOL    HW213517   0.866   8.712  10.105 -0.4967 -2.8515  1.7692
 3629SOL     OW13518   0.304   7.593   5.661 -0.2118 -0.2398 -0.8416
 3629SOL    HW113519   0.379   7.609   5.719 -1.7122  0.3086  1.0775
 3629SOL    HW213520   0.298   7.498   5.655 -0.4243 -0.3352  0.5323
 3630SOL     OW13521   9.397   8.658   9.688 -0.6742 -0.2649  0.4760
 3630SOL    HW113522   9.332   8.615   9.744 -0.8906 -0.8131 -0.1803
 3630SOL    HW213523   9.479   8.614   9.707 -0.2373  1.1460  2.1038
 3631SOL     OW13524  10.087  10.074   2.502  0.3105 -0.3300  0.4881
 3631SOL    HW113525  10.097  10.050   2.410 -1.6969 -0.3997  0.2468
 3631SOL    HW213526  10.166  10.040   2.544  1.7924  0.6282 -1.3505
 3632SOL     OW13527   2.100   3.985   0.431  0.0272 -0.0759  0.2873
 3632SOL    HW113528   2.038   4.056   0.423  0.7315  0.6567  1.1025
 3632SOL    HW213529   2.182   4.027   0.458  0.6222 -1.1161  0.1680
 3633SOL     OW13530   5.215   8.084   7.888  0.0918 -0.1792  0.0154
 3633SOL    HW113531   5.203   8.129   7.972  0.5562  0.0359 -0.0336
 3633SOL    HW213532   5.287   8.023   7.903 -0.4717 -0.8462  0.0514
 3634SOL     OW13533   2.261   7.417   7.726  1.2346  0.4333  0.4435
 3634SOL    HW113534   2.173   7.455   7.731  0.9047 -0.0777 -0.9765
 3634SOL    HW213535   2.300   7.457   7.649  0.7890 -2.1675 -1.2608
 3635SOL     OW13536   1.652   5.343   1.313  0.5813 -0.1290  0.6247
 3635SOL    HW113537   1.687   5.309   1.231  0.3936  0.2521  0.3826
 3635SOL    HW213538   1.653   5.268   1.372  0.9760 -0.3391  0.3597
 3636SOL     OW13539   6.890  10.064  10.327  0.2037 -0.6313  0.2151
 3636SOL    HW113540   6.915  10.101  10.242  0.4787  1.1678  1.0528
 3636SOL    HW213541   6.798  10.089  10.338  0.6315  0.5660  1.1665
 3637SOL     OW13542   8.439   0.932   6.620  0.6546 -0.5050  0.5826
 3637SOL    HW113543   8.472   1.021   6.605  0.9813 -0.5479  1.0046
 3637SOL    HW213544   8.461   0.883   6.541 -0.3900  0.0298 -0.0595
 3638SOL     OW13545   8.334   6.451   1.801 -0.3734 -0.3644 -0.0598
 3638SOL    HW113546   8.254   6.413   1.837 -0.7484  0.8581  0.4395
 3638SOL    HW213547   8.347   6.532   1.850  1.9662 -1.2032  0.8851
 3639SOL     OW13548   8.065   2.540   1.341  0.0011 -0.3458  0.4889
 3639SOL    HW113549   8.064   2.554   1.436  1.7944 -3.4532  1.1175
 3639SOL    HW213550   8.144   2.584   1.311  0.5690 -1.1037  0.8380
 3640SOL     OW13551  10.108   3.035   9.519  0.1935  0.5751  0.0172
 3640SOL    HW113552  10.114   2.996   9.431 -0.1315  1.5312 -0.4422
 3640SOL    HW213553  10.015   3.043   9.536  0.2473 -0.2798  0.7713
 3641SOL     OW13554   7.963   3.916   9.290  0.5327  0.0126  0.3429
 3641SOL    HW113555   7.968   4.010   9.271 -0.6723  0.1203  0.4726
 3641SOL    HW213556   7.958   3.911   9.386  0.2528 -0.1645  0.3191
 3642SOL     OW13557   9.862   1.262   6.085 -0.2481 -0.2734 -0.8289
 3642SOL    HW113558   9.847   1.179   6.130  0.6897 -0.3224 -0.5858
 3642SOL    HW213559   9.819   1.328   6.139 -0.7078 -0.5563 -0.8463
 3643SOL     OW13560   5.641   2.118   8.023  0.1087 -0.5875  0.1728
 3643SOL    HW113561   5.598   2.183   7.966  2.1999  0.8392  0.1225
 3643SOL    HW213562   5.627   2.035   7.978 -1.9733 -0.1151 -0.1724
 3644SOL     OW13563   2.548   4.639   4.510 -0.0660  0.6050  0.4319
 3644SOL    HW113564   2.511   4.562   4.555 -0.4171  1.2730  1.3187
 3644SOL    HW213565   2.517   4.631   4.420  0.4593 -0.6494  0.3420
 3645SOL     OW13566   4.704   9.448  10.229  0.5099 -0.3424 -0.1324
 3645SOL    HW113567   4.640   9.379  10.215 -0.1515 -0.0699  1.3441
 3645SOL    HW213568   4.660   9.527  10.197  0.0412 -0.1433  0.9500
 3646SOL     OW13569   4.461   6.338   8.252 -0.0236 -0.1149  0.0896
 3646SOL    HW113570   4.491   6.247   8.254 -1.1068 -0.4818  1.4252
 3646SOL    HW213571   4.386   6.340   8.312 -1.1374  1.2808 -1.2667
 3647SOL     OW13572   5.449   8.431   2.764 -0.6281 -0.4120 -0.1402
 3647SOL    HW113573   5.512   8.497   2.792 -0.4445 -0.8444  0.4647
 3647SOL    HW213574   5.474   8.411   2.674  1.4557 -2.1393  0.7475
 3648SOL     OW13575   0.957   0.092   4.097 -0.2403  0.0874  0.5206
 3648SOL    HW113576   1.018   0.088   4.171  1.1837 -2.3408 -0.6995
 3648SOL    HW213577   0.901   0.016   4.108 -0.4396  0.0666 -0.5582
 3649SOL     OW13578   9.676   2.897   0.827  0.0774 -0.2208 -0.7362
 3649SOL    HW113579   9.674   2.924   0.735  0.5664  0.0814 -0.6637
 3649SOL    HW213580   9.757   2.846   0.836 -0.2905 -0.7916 -0.6173
 3650SOL     OW13581   1.516   8.666   9.166 -0.1254  0.5872  0.1314
 3650SOL    HW113582   1.592   8.631   9.121 -0.6871 -1.5643  0.7329
 3650SOL    HW213583   1.449   8.673   9.097 -0.4045 -0.8639  0.2241
 3651SOL     OW13584  10.055   2.367   8.499  0.2712  0.6023 -0.4841
 3651SOL    HW113585  10.136   2.403   8.462 -0.3992  0.8829 -1.7122
 3651SOL    HW213586  10.084   2.322   8.579  1.8478 -0.4004 -1.5498
 3652SOL     OW13587   2.705   0.088   9.789  0.2537  0.5008  0.2383
 3652SOL    HW113588   2.646   0.016   9.811 -2.8108  2.2265 -1.6254
 3652SOL    HW213589   2.703   0.145   9.866  1.2817 -0.4623  1.0168
 3653SOL     OW13590   7.651   1.088   3.973  0.1349  0.2165 -0.7004
 3653SOL    HW113591   7.726   1.051   4.018 -0.5401  0.0393  0.2949
 3653SOL    HW213592   7.682   1.103   3.883  0.6407 -2.0830 -0.9727
 3654SOL     OW13593   5.536   9.038   5.125  0.1377  0.1521 -0.0061
 3654SOL    HW113594   5.542   9.132   5.105  0.5061 -0.4217 -2.9258
 3654SOL    HW213595   5.619   9.019   5.169  0.4687  0.9980 -0.2309
 3655SOL     OW13596   1.145   8.774   3.721 -0.1845 -0.4447 -0.3133
 3655SOL    HW113597   1.160   8.680   3.717  0.0692 -0.4004 -0.4334
 3655SOL    HW213598   1.051   8.785   3.702 -0.1180 -0.6403 -0.7714
 3656SOL     OW13599   4.534   7.746   4.698  0.3718 -0.2009 -0.0406
 3656SOL    HW113600   4.542   7.719   4.607  0.6741  0.2431 -0.1492
 3656SOL    HW213601   4.576   7.676   4.748  0.6150 -0.2214 -0.2738
 3657SOL     OW13602   5.151   1.520   6.298 -0.1481 -0.3887 -0.0131
 3657SOL    HW113603   5.185   1.607   6.320 -0.0920 -0.6007  0.7551
 3657SOL    HW213604   5.222   1.460   6.318 -1.1532 -0.9104  2.2560
 3658SOL     OW13605   5.154   4.930   8.645  0.0029  0.6581 -0.7445
 3658SOL    HW113606   5.164   4.842   8.682  0.4341 -0.0870 -2.5186
 3658SOL    HW213607   5.118   4.915   8.558 -1.4213  2.3691 -0.5125
 3659SOL     OW13608   0.397   1.144   1.486  0.2014 -0.6038 -0.1335
 3659SOL    HW113609   0.492   1.150   1.476  0.1201  1.7232 -0.0891
 3659SOL    HW213610   0.365   1.125   1.398  0.7254 -2.8570  0.0928
 3660SOL     OW13611   0.194   3.547   8.486 -0.5875 -0.3584  0.1325
 3660SOL    HW113612   0.262   3.530   8.551  0.8337  2.0492 -0.6115
 3660SOL    HW213613   0.143   3.465   8.482  0.7644 -1.3944  2.4506
 3661SOL     OW13614   0.658   6.016   1.557  0.1680 -0.2429 -0.2347
 3661SOL    HW113615   0.636   6.101   1.519  1.9715  0.7308  0.7811
 3661SOL    HW213616   0.753   6.017   1.566  0.1643 -2.0810  0.5149
 3662SOL     OW13617   1.013   8.469   7.928  0.1199 -0.6139 -0.2565
 3662SOL    HW113618   1.078   8.454   7.997  0.1252  0.6851  0.0350
 3662SOL    HW213619   0.933   8.428   7.960  0.1621 -0.1391  0.4681
 3663SOL     OW13620   5.128   1.374   3.883  0.5701  0.0968  1.1089
 3663SOL    HW113621   5.181   1.365   3.962 -0.1817 -0.3363  1.5724
 3663SOL    HW213622   5.109   1.467   3.877 -1.3414 -0.1128  2.7784
 3664SOL     OW13623   2.731   4.358   0.340 -0.0404  0.2080 -0.0604
 3664SOL    HW113624   2.738   4.448   0.309 -0.1237  0.0471 -0.5494
 3664SOL    HW213625   2.790   4.308   0.284 -2.1202 -0.5332 -1.7624
 3665SOL     OW13626   8.990   0.479   3.840  0.0862  0.3461  0.1963
 3665SOL    HW113627   8.998   0.395   3.886 -0.1314  0.1178 -0.1818
 3665SOL    HW213628   9.044   0.470   3.762 -0.5795  0.2607 -0.2656
 3666SOL     OW13629   3.489  10.219   9.063 -0.1719  0.0375 -0.5912
 3666SOL    HW113630   3.491  10.135   9.108  1.8472  1.2292  1.8304
 3666SOL    HW213631   3.560  10.213   8.998  0.0506 -0.1103 -0.3382
 3667SOL     OW13632   6.205   5.907   9.835 -0.0522 -0.2923  0.6926
 3667SOL    HW113633   6.158   5.911   9.918 -1.4098 -0.4120 -0.0317
 3667SOL    HW213634   6.292   5.874   9.857 -0.9401 -2.0052  1.8480
 3668SOL     OW13635   5.512   5.963   0.400  0.2093  0.4420  0.0500
 3668SOL    HW113636   5.603   5.983   0.379  0.3792 -0.1073  0.2615
 3668SOL    HW213637   5.515   5.927   0.488 -0.1597  0.0018 -0.1134
 3669SOL     OW13638   4.830   7.736   6.537 -0.1335  1.0294 -0.4914
 3669SOL    HW113639   4.892   7.805   6.560  0.4020 -0.0744  1.6944
 3669SOL    HW213640   4.755   7.750   6.596 -0.1732  0.0099 -0.2786
 3670SOL     OW13641   2.904   5.473   5.247  0.2105  0.7055  0.2572
 3670SOL    HW113642   2.849   5.516   5.182  0.1618 -0.2705 -0.3673
 3670SOL    HW213643   2.933   5.392   5.205  2.8812  1.5830  0.2010
 3671SOL     OW13644   0.076   1.890   6.841  0.3545  0.6473 -0.0195
 3671SOL    HW113645   0.143   1.944   6.881 -1.5523  1.8074  1.8193
 3671SOL    HW213646   0.045   1.940   6.766 -1.3533  2.2218  1.6329
 3672SOL     OW13647   9.830   4.858   3.502  0.1514 -0.0784  0.0153
 3672SOL    HW113648   9.768   4.927   3.527 -0.7220 -1.1234  0.8637
 3672SOL    HW213649   9.775   4.784   3.478  1.0719 -0.7099 -0.2154
 3673SOL     OW13650   4.241   1.965   4.388  0.4765 -0.2961  0.1039
 3673SOL    HW113651   4.298   1.960   4.465 -0.1219 -1.2813  0.5042
 3673SOL    HW213652   4.235   1.874   4.357 -0.7519 -0.1896 -0.0186
 3674SOL     OW13653   3.368   6.420   9.708 -0.3619  0.1356  0.3661
 3674SOL    HW113654   3.382   6.512   9.688  1.1065 -0.0734  0.2871
 3674SOL    HW213655   3.383   6.413   9.802 -2.1588  0.2413  0.6912
 3675SOL     OW13656   2.514   8.780   5.568 -0.1964 -0.3704  0.4969
 3675SOL    HW113657   2.582   8.714   5.578  0.9778  0.7073  0.0572
 3675SOL    HW213658   2.506   8.821   5.654  1.6207  1.2179 -0.0184
 3676SOL     OW13659   9.875   6.940   3.722  0.4387 -0.3208 -0.4602
 3676SOL    HW113660   9.919   6.859   3.750 -0.1134 -0.8318 -1.0270
 3676SOL    HW213661   9.946   7.003   3.712  0.7907 -0.4855  0.8118
 3677SOL     OW13662   9.583   2.613   9.944  0.1107  0.0047 -0.0134
 3677SOL    HW113663   9.674   2.598   9.970  0.8811  1.3425 -1.7201
 3677SOL    HW213664   9.551   2.678  10.007 -0.1184 -1.3957  1.3761
 3678SOL     OW13665   0.032   8.607  10.052  0.2819 -0.2081 -0.0201
 3678SOL    HW113666   0.065   8.655   9.976  1.6276 -2.3252 -0.8512
 3678SOL    HW213667   0.103   8.614  10.116 -1.1529  2.2371  1.4726
 3679SOL     OW13668   9.910  10.250   9.945 -0.1829 -0.2340  0.0763
 3679SOL    HW113669   9.912  10.342   9.919  0.9748 -0.4183 -0.5538
 3679SOL    HW213670   9.865  10.206   9.873 -0.4365 -0.2143  0.2208
 3680SOL     OW13671   2.085   2.113   3.757  0.1448  0.5675  0.0262
 3680SOL    HW113672   2.047   2.197   3.729  1.0290  1.5157  1.4834
 3680SOL    HW213673   2.179   2.131   3.763  0.2493 -0.2557  1.1924
 3681SOL     OW13674   0.659   5.263   9.817 -0.3510  0.2535  0.1229
 3681SOL    HW113675   0.620   5.348   9.797 -1.1162  0.3386  1.7910
 3681SOL    HW213676   0.714   5.243   9.741  1.5527  3.2094  0.5697
 3682SOL     OW13677   1.474   9.319   8.975  0.3094  0.2302  0.2034
 3682SOL    HW113678   1.494   9.266   9.052 -0.6553 -0.1293  0.2271
 3682SOL    HW213679   1.471   9.409   9.007 -5.4835 -0.1799  1.9903
 3683SOL     OW13680   4.669   6.662   8.825  0.0478  0.2984 -0.9724
 3683SOL    HW113681   4.604   6.623   8.883  1.6604 -2.0381 -0.6476
 3683SOL    HW213682   4.731   6.705   8.884  0.2777  0.1844 -1.1342
 3684SOL     OW13683   7.923   8.395   7.892 -0.3698  0.3430  0.1124
 3684SOL    HW113684   7.863   8.322   7.876 -1.3734  1.1569  0.0704
 3684SOL    HW213685   7.961   8.414   7.806 -0.6181  0.3102 -0.0047
 3685SOL     OW13686   8.324   3.148   7.284 -0.2948 -0.7474 -0.0588
 3685SOL    HW113687   8.255   3.143   7.350 -1.2643 -1.3801 -1.0889
 3685SOL    HW213688   8.347   3.241   7.280 -2.5778 -0.1568 -1.1520
 3686SOL     OW13689   7.740   7.440   1.975  0.0876  0.2625  0.8684
 3686SOL    HW113690   7.737   7.447   2.071  0.7615  0.6713  0.8673
 3686SOL    HW213691   7.666   7.492   1.945 -0.8107 -0.7750  1.1902
 3687SOL     OW13692   1.162   4.981   7.967  0.3182  0.7530  0.4508
 3687SOL    HW113693   1.212   4.988   7.885  3.1120  1.1914  2.0754
 3687SOL    HW213694   1.164   4.888   7.989 -1.3026  0.4680 -0.3810
 3688SOL     OW13695   3.623   8.890   3.286  0.2405 -0.5600  0.0954
 3688SOL    HW113696   3.606   8.932   3.370  0.4617  1.2236 -0.6942
 3688SOL    HW213697   3.683   8.819   3.306  2.2980  1.3496  1.1735
 3689SOL     OW13698   1.336   0.049  10.201 -0.5177 -0.6543 -0.2389
 3689SOL    HW113699   1.279   0.062  10.277  1.6091 -0.5626  1.4278
 3689SOL    HW213700   1.362  -0.043  10.205  0.0378 -0.5169 -0.5364
 3690SOL     OW13701   1.145   2.414   5.684 -0.5434 -0.1483 -0.0132
 3690SOL    HW113702   1.093   2.337   5.707 -0.9752 -0.3201 -1.5012
 3690SOL    HW213703   1.100   2.487   5.727 -0.0661 -0.7045  1.5047
 3691SOL     OW13704   6.244   7.567   3.629  0.0855 -0.2736  0.1194
 3691SOL    HW113705   6.268   7.475   3.638 -0.4458 -0.4665 -0.3443
 3691SOL    HW213706   6.312   7.615   3.675  0.1586 -0.9232  0.6995
 3692SOL     OW13707   3.822   7.402   4.186 -0.2009 -0.1194  0.5080
 3692SOL    HW113708   3.856   7.401   4.276 -0.3099  2.3685  0.6483
 3692SOL    HW213709   3.900   7.386   4.132 -0.0384 -1.1003  1.0033
 3693SOL     OW13710   3.073   4.453   4.274 -0.0692  0.4243  0.5488
 3693SOL    HW113711   3.089   4.547   4.276 -3.1827  1.1153 -1.0824
 3693SOL    HW213712   3.155   4.415   4.243  1.0329  2.6325  0.5896
 3694SOL     OW13713   4.405   6.021   3.145 -0.5106  0.7860  0.2953
 3694SOL    HW113714   4.405   6.095   3.206 -1.4758  0.7224  0.3965
 3694SOL    HW213715   4.373   6.059   3.062  0.0360  0.7060  0.0436
 3695SOL     OW13716   2.504   7.458   4.079  0.2847  0.0078 -0.2854
 3695SOL    HW113717   2.538   7.408   4.004  0.4850  1.2819 -1.0659
 3695SOL    HW213718   2.527   7.549   4.060  0.3402  0.3616  1.3359
 3696SOL     OW13719   5.112   7.843   3.425 -0.2634 -0.2716 -0.2104
 3696SOL    HW113720   5.111   7.774   3.358  0.3424 -0.2552 -0.2468
 3696SOL    HW213721   5.078   7.921   3.380  1.0581 -0.0063 -0.7995
 3697SOL     OW13722   7.932   6.251   4.274  0.4766  0.1386  0.1090
 3697SOL    HW113723   7.989   6.314   4.318  1.3185  0.7469 -1.7560
 3697SOL    HW213724   7.880   6.304   4.214  1.3555 -0.9011 -1.6658
 3698SOL     OW13725   8.185   2.040   4.411 -0.0832 -0.3341 -0.7800
 3698SOL    HW113726   8.200   2.082   4.326 -3.5107 -0.9643 -1.8659
 3698SOL    HW213727   8.134   2.104   4.460  0.0524 -0.8092 -0.0126
 3699SOL     OW13728   2.847   0.364   8.243  0.6209  0.1797  0.6337
 3699SOL    HW113729   2.752   0.363   8.255  0.5336  0.3822 -0.0382
 3699SOL    HW213730   2.881   0.320   8.321  0.0685  1.5115  1.6464
 3700SOL     OW13731   7.708   3.913   6.904  0.3258 -0.1594 -0.1979
 3700SOL    HW113732   7.716   3.888   6.812 -2.3621 -1.8699 -0.0698
 3700SOL    HW213733   7.676   4.004   6.901  0.9817  0.0659 -0.8962
 3701SOL     OW13734   2.476   0.648   9.847  0.3192  0.6137  0.1154
 3701SOL    HW113735   2.430   0.726   9.816  2.2463  2.0161  0.5826
 3701SOL    HW213736   2.491   0.596   9.768 -0.4580  1.0224 -0.3099
 3702SOL     OW13737   9.507   8.649   6.229 -0.4149 -0.0342 -0.1130
 3702SOL    HW113738   9.547   8.730   6.258 -0.5458 -0.1466  0.3834
 3702SOL    HW213739   9.414   8.669   6.221 -0.3824 -0.0073 -0.4488
 3703SOL     OW13740   1.421   8.657   4.140  0.5878  0.6246 -0.1707
 3703SOL    HW113741   1.403   8.564   4.128  1.8121  0.5506 -1.7204
 3703SOL    HW213742   1.355   8.702   4.088 -1.3223  0.7886  2.1801
 3704SOL     OW13743   0.641   7.660   9.255  0.1036  0.2184 -0.0297
 3704SOL    HW113744   0.669   7.590   9.196 -1.4040  0.0952 -0.6519
 3704SOL    HW213745   0.655   7.740   9.205 -0.5222  0.1623 -0.3097
 3705SOL     OW13746   1.290   8.796   6.680 -0.2587  0.3365 -0.2196
 3705SOL    HW113747   1.380   8.767   6.663 -0.0526 -1.1573  2.7034
 3705SOL    HW213748   1.299   8.886   6.713  0.4578 -0.4031  1.7693
 3706SOL     OW13749   2.089   7.450   1.565 -0.1018 -0.4443 -0.2698
 3706SOL    HW113750   2.117   7.526   1.515  5.1246 -3.6755 -3.2719
 3706SOL    HW213751   2.132   7.461   1.650  0.4442  0.0808 -0.6035
 3707SOL     OW13752   9.589   7.945   7.015  0.0204  0.3676  0.9687
 3707SOL    HW113753   9.547   7.862   7.035  0.2868  0.4143  1.7451
 3707SOL    HW213754   9.621   7.977   7.099 -0.2813  1.3683  0.7170
 3708SOL     OW13755   3.260   2.864   3.046  0.3114 -0.0338  0.0216
 3708SOL    HW113756   3.316   2.913   3.107  0.1777 -0.2879  0.3544
 3708SOL    HW213757   3.185   2.921   3.032  0.1574 -0.1348  0.4071
 3709SOL     OW13758   5.963   2.676   2.595 -0.2155  0.1079 -0.1452
 3709SOL    HW113759   6.051   2.709   2.578 -0.0631 -0.0657  0.2897
 3709SOL    HW213760   5.976   2.594   2.643 -0.5961  1.3885  2.3611
 3710SOL     OW13761   0.126   8.732   9.199  0.3901  0.2767  0.5088
 3710SOL    HW113762   0.200   8.791   9.214  0.6335  1.5934 -4.1191
 3710SOL    HW213763   0.049   8.788   9.208  0.3647  0.3350 -0.0184
 3711SOL     OW13764   6.326   1.630   1.193  0.1344  0.0874 -0.3985
 3711SOL    HW113765   6.393   1.618   1.125 -0.3442 -1.2741 -0.6736
 3711SOL    HW213766   6.308   1.724   1.193  1.2671  0.3221 -1.0655
 3712SOL     OW13767   9.928   9.102   1.254  0.1266 -0.1059 -0.2122
 3712SOL    HW113768   9.990   9.034   1.228 -1.8591 -2.1455  0.0028
 3712SOL    HW213769   9.958   9.129   1.341  0.5119 -1.3406  0.0653
 3713SOL     OW13770  10.050   4.863   8.563 -0.4039  0.4083  0.1101
 3713SOL    HW113771   9.989   4.871   8.636 -2.4058  0.0272 -1.4116
 3713SOL    HW213772  10.007   4.909   8.491  0.3253 -1.2433 -1.4655
 3714SOL     OW13773   0.962   5.071   3.773  0.7952 -0.0314 -0.0204
 3714SOL    HW113774   0.966   5.165   3.792 -3.0560 -0.1206  2.3000
 3714SOL    HW213775   1.009   5.062   3.690  1.7389  3.8350 -0.1284
 3715SOL     OW13776   2.447   7.089   5.398 -0.2099  0.1320 -0.6661
 3715SOL    HW113777   2.540   7.101   5.417  0.2027 -1.3829 -1.5603
 3715SOL    HW213778   2.430   6.997   5.419 -1.5272  0.3959 -0.4919
 3716SOL     OW13779   1.818   9.700   5.981 -0.0160  0.0407  0.2118
 3716SOL    HW113780   1.733   9.721   5.942 -0.2771 -1.2070  0.0404
 3716SOL    HW213781   1.874   9.773   5.958  0.0189 -0.8671 -3.0877
 3717SOL     OW13782   6.693   9.996   7.045  0.0246 -0.3982 -0.4896
 3717SOL    HW113783   6.704  10.083   7.006  1.2357  0.1816  1.0858
 3717SOL    HW213784   6.611  10.003   7.095  0.7569  0.2734  0.6676
 3718SOL     OW13785   5.606   5.504   8.900 -0.3792  0.1341 -0.2217
 3718SOL    HW113786   5.588   5.417   8.936  1.3550 -0.4233 -0.6276
 3718SOL    HW213787   5.552   5.508   8.821  0.2441 -0.9683 -0.7268
 3719SOL     OW13788   5.114  10.228   8.441 -0.3164 -0.8314  0.4333
 3719SOL    HW113789   5.194  10.178   8.424  0.1457  0.0139  0.0783
 3719SOL    HW213790   5.124  10.260   8.530 -0.3385 -0.8624  0.4468
 3720SOL     OW13791   7.246   0.813   9.034 -0.2628  0.1877  0.3796
 3720SOL    HW113792   7.267   0.722   9.054  1.0876  0.5360  0.6879
 3720SOL    HW213793   7.168   0.832   9.085 -1.2901 -1.1421 -0.6406
 3721SOL     OW13794   6.636   1.414   2.395  0.3326  0.2592 -0.7042
 3721SOL    HW113795   6.714   1.384   2.443 -0.3496 -0.9258 -0.3051
 3721SOL    HW213796   6.619   1.502   2.430 -0.2435 -0.6258  1.4055
 3722SOL     OW13797   0.194   5.254   8.633  0.1015  0.4871 -0.2623
 3722SOL    HW113798   0.259   5.277   8.567  0.7718 -1.3556 -0.3067
 3722SOL    HW213799   0.234   5.182   8.682 -2.1305 -1.1930 -0.7227
 3723SOL     OW13800   8.738   2.650   6.639 -0.2503  0.4076  0.3126
 3723SOL    HW113801   8.677   2.611   6.576 -1.3742 -0.9858  2.1546
 3723SOL    HW213802   8.688   2.720   6.681 -0.9297 -1.1959  2.3321
 3724SOL     OW13803   1.045   6.510   0.136  0.3947 -0.5080  0.1018
 3724SOL    HW113804   1.080   6.424   0.113  1.2151 -0.0868 -0.2808
 3724SOL    HW213805   1.022   6.550   0.052  0.1901 -0.2825  0.2617
 3725SOL     OW13806   9.141   2.829   7.608  0.4631 -0.2537 -0.6085
 3725SOL    HW113807   9.087   2.892   7.655  0.1723  0.3472 -1.6965
 3725SOL    HW213808   9.089   2.748   7.608  1.7278 -1.1955  2.5932
 3726SOL     OW13809   9.378   2.604   5.691  0.3028  0.4553  0.6959
 3726SOL    HW113810   9.301   2.563   5.732 -0.7412  1.1175 -0.5020
 3726SOL    HW213811   9.341   2.665   5.626  1.8083 -1.1739 -1.8790
 3727SOL     OW13812   2.770   4.778   3.391 -0.2070 -0.1234  0.3606
 3727SOL    HW113813   2.707   4.815   3.330 -1.9633 -1.1767  1.4457
 3727SOL    HW213814   2.756   4.683   3.386  0.3228 -0.2953  1.6275
 3728SOL     OW13815   5.516   3.953   4.977  0.6440 -0.5037 -0.0916
 3728SOL    HW113816   5.543   4.045   4.980  0.9967 -0.4561 -2.7046
 3728SOL    HW213817   5.526   3.923   5.067  2.1170  1.5743  0.5207
 3729SOL     OW13818   3.118   2.735   0.451 -0.1021  0.1517  0.2624
 3729SOL    HW113819   3.139   2.822   0.483  2.4792 -0.5654  0.7182
 3729SOL    HW213820   3.164   2.675   0.510  0.4551 -1.4050 -1.6301
 3730SOL     OW13821   0.740   2.032   9.804  0.1886  0.1288  0.1706
 3730SOL    HW113822   0.718   2.106   9.748 -1.9502 -0.6577 -0.0867
 3730SOL    HW213823   0.671   1.968   9.789  0.8604 -1.0886  1.9292
 3731SOL     OW13824   9.267   6.174   3.119  0.1720  0.4131 -0.6134
 3731SOL    HW113825   9.304   6.091   3.090  1.5983  1.2673 -1.3757
 3731SOL    HW213826   9.299   6.238   3.055 -0.3220  1.6570  0.3401
 3732SOL     OW13827   9.782   6.542   9.930  0.2478 -0.0948  0.0624
 3732SOL    HW113828   9.711   6.606   9.935  0.0873 -0.3184  0.8045
 3732SOL    HW213829   9.740   6.464   9.893  0.6603  0.5081 -1.7487
 3733SOL     OW13830   2.122   5.579   3.213 -0.3730  0.0416  0.7361
 3733SOL    HW113831   2.206   5.554   3.253  0.9301  0.4634 -1.5481
 3733SOL    HW213832   2.098   5.660   3.256  0.4246 -0.0681  1.4157
 3734SOL     OW13833   4.205   7.444   5.764 -0.4057  0.1186  0.2396
 3734SOL    HW113834   4.169   7.533   5.757 -0.1651  0.2574  0.6737
 3734SOL    HW213835   4.132   7.390   5.793  0.2574  0.8886  3.8891
 3735SOL     OW13836   7.549   3.352   6.549 -0.1205 -0.5184  0.1176
 3735SOL    HW113837   7.564   3.265   6.513  2.2428 -1.2128  2.5076
 3735SOL    HW213838   7.497   3.337   6.629  2.1479 -0.0837  1.7692
 3736SOL     OW13839   6.806   9.177  10.127 -0.5201 -0.2324  0.6473
 3736SOL    HW113840   6.879   9.149  10.072  0.2502 -0.2683  1.6519
 3736SOL    HW213841   6.747   9.222  10.067  0.1147 -0.5823 -0.2705
 3737SOL     OW13842   6.457   8.949   1.486  0.1811 -0.7083  0.1657
 3737SOL    HW113843   6.391   8.947   1.555 -1.3559  1.5880 -1.1055
 3737SOL    HW213844   6.472   9.042   1.469  0.2945 -1.1553 -2.7142
 3738SOL     OW13845   0.173   9.249   0.975 -0.2111  0.1550  0.5704
 3738SOL    HW113846   0.131   9.190   0.912 -0.4906  0.9846 -0.0402
 3738SOL    HW213847   0.266   9.243   0.955 -0.2021 -0.3480  0.7500
 3739SOL     OW13848   0.198   5.893   0.726  0.5045 -0.0872 -0.0123
 3739SOL    HW113849   0.277   5.947   0.734 -0.4566  1.1457  2.2075
 3739SOL    HW213850   0.144   5.919   0.800 -1.2657 -2.1399 -0.4781
 3740SOL     OW13851   2.678   2.661   4.003  0.5428  0.0649 -0.1905
 3740SOL    HW113852   2.688   2.566   4.007 -1.0027 -0.0805  2.3753
 3740SOL    HW213853   2.747   2.690   3.943  1.7660 -2.5610 -0.1797
 3741SOL     OW13854   8.451   4.789  10.253 -0.1000 -0.4158 -0.8500
 3741SOL    HW113855   8.404   4.707  10.241  1.5990 -1.2735 -2.2411
 3741SOL    HW213856   8.536   4.774  10.210  0.9591  1.4487  0.4474
 3742SOL     OW13857   6.907   6.664   9.856 -0.0951  0.2899 -0.0342
 3742SOL    HW113858   6.894   6.746   9.905 -1.9439  0.2487 -0.4028
 3742SOL    HW213859   7.000   6.665   9.832  0.6098  0.8897  2.4259
 3743SOL     OW13860   9.059   7.941  10.315  0.2146  0.6519  0.0565
 3743SOL    HW113861   9.115   8.010  10.352  0.2344  0.8393 -0.3194
 3743SOL    HW213862   9.052   7.963  10.222 -1.2908  1.1884  0.2699
 3744SOL     OW13863   6.466   6.857   6.330 -0.1286 -0.2753 -0.6306
 3744SOL    HW113864   6.385   6.885   6.287 -0.2909  0.6220  0.2499
 3744SOL    HW213865   6.520   6.825   6.258 -1.0958 -0.5045 -1.2867
 3745SOL     OW13866   5.028   9.715   0.545 -0.1223 -0.3004  0.1159
 3745SOL    HW113867   5.079   9.753   0.473  0.7331  1.0249  1.3670
 3745SOL    HW213868   5.058   9.624   0.551  1.5804  0.2486  0.3404
 3746SOL     OW13869   7.503   6.484   1.779 -0.2468 -0.4135 -0.1364
 3746SOL    HW113870   7.544   6.481   1.693  0.1529  2.4058 -0.1459
 3746SOL    HW213871   7.566   6.443   1.838  0.9403  0.5523 -0.7080
 3747SOL     OW13872   2.305   5.587   2.344 -0.5746 -0.2368  0.5817
 3747SOL    HW113873   2.315   5.671   2.389 -1.7303  0.7342 -0.8816
 3747SOL    HW213874   2.213   5.564   2.355 -0.2859 -1.2878  0.8989
 3748SOL     OW13875   2.517   1.121   4.281 -0.6809  0.0848 -0.4635
 3748SOL    HW113876   2.587   1.128   4.216 -1.0460  2.1343 -0.7007
 3748SOL    HW213877   2.516   1.206   4.324 -1.5239 -0.6936  1.1479
 3749SOL     OW13878   8.932   2.420   5.936  0.5079 -0.6471 -0.1854
 3749SOL    HW113879   8.838   2.436   5.928  0.5025  0.4975  1.4631
 3749SOL    HW213880   8.971   2.470   5.865  0.0306  1.8232  1.1478
 3750SOL     OW13881   9.402   3.848   6.598  0.0006  0.1919 -0.4185
 3750SOL    HW113882   9.411   3.782   6.530  1.5363  1.5562 -1.6185
 3750SOL    HW213883   9.315   3.886   6.582 -0.6855 -1.1471 -0.0220
 3751SOL     OW13884   0.917   5.281   2.320  0.1979 -0.1422  0.3910
 3751SOL    HW113885   0.835   5.288   2.270  0.8831  0.9013 -0.6645
 3751SOL    HW213886   0.891   5.291   2.411 -0.6933  2.1071 -0.0344
 3752SOL     OW13887   8.289   4.819   2.133  0.3791 -0.5038  0.0619
 3752SOL    HW113888   8.272   4.815   2.039  1.6057  0.4897 -0.2296
 3752SOL    HW213889   8.203   4.807   2.174 -0.1385 -1.0920 -1.1717
 3753SOL     OW13890   4.272   6.019   9.731  0.0630 -0.5085  0.4982
 3753SOL    HW113891   4.258   6.081   9.803 -0.2064  0.0887 -0.0586
 3753SOL    HW213892   4.229   5.938   9.760 -0.9995  0.0610  0.5605
 3754SOL     OW13893   9.070   2.257   3.977  0.3279 -0.0088 -0.0260
 3754SOL    HW113894   9.125   2.312   4.033  0.9010  0.0668 -0.6486
 3754SOL    HW213895   9.114   2.258   3.892  0.0019 -0.9155 -0.2164
 3755SOL     OW13896   6.123   2.008   4.764 -0.5263  0.0337  0.6401
 3755SOL    HW113897   6.139   1.913   4.762  0.1062  0.1171 -1.9278
 3755SOL    HW213898   6.203   2.044   4.802  0.0945 -0.3627 -0.2500
 3756SOL     OW13899   6.176   6.978   0.280 -0.2913  0.2008 -0.3244
 3756SOL    HW113900   6.214   7.018   0.202 -0.6820  0.0276 -0.6042
 3756SOL    HW213901   6.249   6.930   0.321  0.5023  2.1494  0.6716
 3757SOL     OW13902  10.212   4.880   5.066  0.4065  0.2525  0.1753
 3757SOL    HW113903  10.208   4.850   5.157  0.1743  0.3727  0.2045
 3757SOL    HW213904  10.298   4.851   5.035  0.4627  0.1612  0.4150
 3758SOL     OW13905   1.237   7.283   3.655  0.7476 -0.5164  0.4329
 3758SOL    HW113906   1.193   7.365   3.633  2.0448  0.0533 -0.1505
 3758SOL    HW213907   1.185   7.215   3.612  0.9371  0.2232 -1.0312
 3759SOL     OW13908   3.951   9.800   0.089  0.5913  0.4125 -0.2282
 3759SOL    HW113909   3.860   9.828   0.098  0.4161 -0.0566 -0.4982
 3759SOL    HW213910   3.946   9.707   0.067  1.0796  0.7599 -1.9272
 3760SOL     OW13911   7.148   7.115   3.918  0.1456 -0.0962 -0.0396
 3760SOL    HW113912   7.202   7.161   3.982  0.1132  1.6209 -1.1834
 3760SOL    HW213913   7.115   7.184   3.860 -1.5836 -1.3460 -0.6194
 3761SOL     OW13914   4.145   8.303   1.589  0.3052 -0.1921  0.0497
 3761SOL    HW113915   4.170   8.291   1.497  1.8144  0.3794  0.3550
 3761SOL    HW213916   4.121   8.215   1.619 -1.5705 -0.1906 -1.2194
 3762SOL     OW13917   5.888   0.504  10.169  0.2056 -0.0676  0.6529
 3762SOL    HW113918   5.815   0.523  10.111  0.6508  0.3456  0.2153
 3762SOL    HW213919   5.914   0.590  10.204  0.2310 -0.2576  1.1051
 3763SOL     OW13920   8.806   0.894   5.135 -0.1736 -0.4820  0.0626
 3763SOL    HW113921   8.765   0.810   5.117 -0.2842 -0.5097  0.4403
 3763SOL    HW213922   8.747   0.959   5.098 -0.8427 -0.4889  1.0888
 3764SOL     OW13923   0.033   5.454   4.780 -0.7853  0.3222 -0.4458
 3764SOL    HW113924   0.113   5.434   4.731  0.2073  0.3817  1.0872
 3764SOL    HW213925  -0.007   5.368   4.797  1.1675 -0.1508  2.3320
 3765SOL     OW13926   2.120   3.855   4.173  0.4550 -0.2046 -0.6054
 3765SOL    HW113927   2.197   3.911   4.164  0.6765 -0.0543  1.6403
 3765SOL    HW213928   2.144   3.793   4.242 -0.6463 -1.6056 -1.4285
 3766SOL     OW13929   5.721   7.970   4.796 -0.7441  0.0649  0.0097
 3766SOL    HW113930   5.760   7.924   4.870 -0.5445  0.9552  0.4821
 3766SOL    HW213931   5.786   8.038   4.774 -0.5066 -0.5869 -1.4001
 3767SOL     OW13932   4.403   3.925   1.292 -0.4494  0.2502 -0.0689
 3767SOL    HW113933   4.413   3.990   1.361 -0.8839  0.5479 -0.2844
 3767SOL    HW213934   4.416   3.973   1.210 -0.0486 -0.0788 -0.2058
 3768SOL     OW13935   5.598   6.708   4.061  0.1161  0.2659 -0.1162
 3768SOL    HW113936   5.610   6.745   4.149 -1.2598 -1.6436  0.9374
 3768SOL    HW213937   5.533   6.766   4.020 -1.3668 -0.3733  1.1973
 3769SOL     OW13938   7.924   9.552   2.001 -0.3167  0.0994 -0.6470
 3769SOL    HW113939   8.008   9.594   1.981  0.4636 -1.8505 -1.6682
 3769SOL    HW213940   7.892   9.521   1.916 -0.8677 -1.3418  0.0576
 3770SOL     OW13941   8.132   4.040   3.178 -0.6940  0.3087 -0.2331
 3770SOL    HW113942   8.151   4.132   3.162 -1.7644  0.5588 -0.1193
 3770SOL    HW213943   8.172   4.021   3.263 -2.1437  1.1984  0.6714
 3771SOL     OW13944   8.747   2.239   5.052 -0.5023 -0.1666 -0.2592
 3771SOL    HW113945   8.704   2.154   5.051 -2.7004  0.8606  0.2739
 3771SOL    HW213946   8.772   2.254   4.960 -1.7611 -0.6099 -0.6974
 3772SOL     OW13947   1.193   0.911   2.433  0.1221  0.0045 -0.2497
 3772SOL    HW113948   1.196   0.895   2.528  0.6059  0.2266 -0.2211
 3772SOL    HW213949   1.137   0.842   2.398 -0.4278  0.1863  0.2539
 3773SOL     OW13950   8.221   6.297   8.484  0.0356  0.7586  0.1844
 3773SOL    HW113951   8.247   6.210   8.455 -0.2486  0.7691 -0.1004
 3773SOL    HW213952   8.126   6.297   8.479  0.0731  1.5095 -1.0913
 3774SOL     OW13953   2.744   9.211   1.560  0.1142  0.2861 -0.3381
 3774SOL    HW113954   2.806   9.188   1.490  0.8400  0.6969  0.1646
 3774SOL    HW213955   2.786   9.180   1.640 -0.7782 -0.3041 -0.0825
 3775SOL     OW13956   8.998   6.378   7.976 -0.4228 -0.4649 -0.1193
 3775SOL    HW113957   9.086   6.410   7.958 -1.6446  2.2633 -1.7421
 3775SOL    HW213958   8.990   6.384   8.071  0.5784  0.9397 -0.0917
 3776SOL     OW13959   3.438   7.042   9.463 -0.2258  0.6779 -0.1073
 3776SOL    HW113960   3.401   6.971   9.410  0.5877 -1.4741  2.0427
 3776SOL    HW213961   3.407   7.122   9.420 -2.2869 -0.9414 -1.8854
 3777SOL     OW13962   0.656   5.608   0.675 -0.6632 -0.2547 -0.2549
 3777SOL    HW113963   0.683   5.631   0.587  0.3278  0.9311  0.3247
 3777SOL    HW213964   0.600   5.531   0.664 -0.0565 -0.5073 -1.8411
 3778SOL     OW13965   7.988   4.107   6.985  0.0915 -0.0368  0.3188
 3778SOL    HW113966   8.036   4.142   6.909 -0.3745  1.6646  0.7477
 3778SOL    HW213967   7.905   4.076   6.948  0.1481  0.1434  0.0314
 3779SOL     OW13968   1.074   6.966   5.413 -0.0444  0.1548 -0.5829
 3779SOL    HW113969   1.047   6.907   5.484  2.0705 -0.2941 -0.0934
 3779SOL    HW213970   1.005   7.033   5.411 -0.7385 -0.4386  1.1516
 3780SOL     OW13971   9.497   3.788   2.405 -0.0789  0.2890  0.3330
 3780SOL    HW113972   9.449   3.867   2.429 -1.2593 -0.8249  1.7973
 3780SOL    HW213973   9.498   3.735   2.485  0.7111 -1.1723 -0.5995
 3781SOL     OW13974   1.213   6.312   6.351 -0.4277 -0.3574 -0.2702
 3781SOL    HW113975   1.191   6.243   6.413 -2.8189  1.2876  0.8797
 3781SOL    HW213976   1.187   6.277   6.265  0.8574 -1.8183 -0.0965
 3782SOL     OW13977   5.420   0.410   4.051  0.1938 -0.1129 -0.6324
 3782SOL    HW113978   5.469   0.493   4.055 -0.5037  0.3130  3.1331
 3782SOL    HW213979   5.358   0.416   4.123  0.0329 -3.9260 -0.2636
 3783SOL     OW13980   2.654   8.298   0.418  0.2132  0.0312  0.3413
 3783SOL    HW113981   2.616   8.236   0.481  1.2908 -0.3283  0.6674
 3783SOL    HW213982   2.592   8.299   0.345 -1.0845  0.4916  1.4153
 3784SOL     OW13983   2.885   4.009   6.903 -0.0904 -0.6445  0.4935
 3784SOL    HW113984   2.881   3.970   6.815  1.1040  0.0273  0.1237
 3784SOL    HW213985   2.966   4.059   6.903 -1.1019  1.0544  1.2910
 3785SOL     OW13986   4.901   7.778   4.066  0.5712 -0.2837  0.4509
 3785SOL    HW113987   4.930   7.714   4.132 -0.0879 -2.3297 -1.1354
 3785SOL    HW213988   4.807   7.785   4.080  0.2323 -1.5836 -0.8851
 3786SOL     OW13989  10.192   5.240   4.281 -0.1129  0.0414 -0.1011
 3786SOL    HW113990  10.277   5.285   4.273  0.9313 -1.5905  1.1230
 3786SOL    HW213991  10.165   5.223   4.191  1.6860 -0.8148 -0.5249
 3787SOL     OW13992   7.861   2.659  10.339 -0.0920  0.2399  0.0062
 3787SOL    HW113993   7.866   2.665  10.434  0.3785 -0.9968  0.0782
 3787SOL    HW213994   7.768   2.668  10.319 -0.5115 -1.8427  0.8082
 3788SOL     OW13995   2.983   9.727   5.612 -0.2035 -0.4476 -0.1855
 3788SOL    HW113996   3.034   9.771   5.544 -0.2806  0.3404  0.2632
 3788SOL    HW213997   2.892   9.732   5.582 -0.1875 -0.4858 -0.2394
 3789SOL     OW13998   9.842   4.242   5.059  0.3422 -0.4474  0.1787
 3789SOL    HW113999   9.818   4.334   5.048  0.5620 -0.4917 -0.7811
 3789SOL    HW214000   9.937   4.241   5.054  0.2931 -0.9120 -1.7064
 3790SOL     OW14001   1.037   3.311   1.424 -0.1572  0.1899  0.7759
 3790SOL    HW114002   0.975   3.238   1.431 -0.2023  0.0691 -0.5824
 3790SOL    HW214003   1.098   3.298   1.497 -0.8268 -0.5657  1.2155
 3791SOL     OW14004   2.067   3.551   2.158 -0.0689  0.1341 -0.3854
 3791SOL    HW114005   2.061   3.610   2.083  0.2674  2.2957  1.1975
 3791SOL    HW214006   2.153   3.570   2.197 -0.0829 -1.1895  0.3746
 3792SOL     OW14007  10.033   4.985   3.649 -0.1914  0.1827  0.2127
 3792SOL    HW114008   9.944   4.967   3.619 -0.6885  0.9549  1.1413
 3792SOL    HW214009  10.087   4.975   3.571 -1.4358  2.2379 -1.0273
 3793SOL     OW14010   8.856   5.729   9.510 -0.1813  0.3649 -0.1457
 3793SOL    HW114011   8.844   5.709   9.417 -0.9647  0.6501 -0.1185
 3793SOL    HW214012   8.950   5.726   9.524 -0.1395 -1.2415 -0.5993
 3794SOL     OW14013   0.653   1.500   8.134  0.3659 -0.3159  0.0262
 3794SOL    HW114014   0.595   1.532   8.065  0.7467  1.4381  0.4666
 3794SOL    HW214015   0.648   1.567   8.203  1.4582 -1.0674  0.8803
 3795SOL     OW14016   6.941   2.844   6.410 -0.2627  0.7412  0.2106
 3795SOL    HW114017   6.980   2.763   6.378 -0.6300  0.9782 -0.8571
 3795SOL    HW214018   6.986   2.860   6.493 -0.4210 -0.7180  0.6156
 3796SOL     OW14019   4.808   3.251   1.809 -0.0259 -0.3880 -0.2064
 3796SOL    HW114020   4.775   3.324   1.757  1.1196  1.5954  1.6724
 3796SOL    HW214021   4.734   3.191   1.817 -0.7036  0.0182 -2.6411
 3797SOL     OW14022   0.750   2.619   1.811 -0.2646 -0.0387 -0.0132
 3797SOL    HW114023   0.713   2.612   1.899 -0.2638  0.3281  0.0184
 3797SOL    HW214024   0.797   2.702   1.812 -2.1837  1.1384 -1.0685
 3798SOL     OW14025   3.812   6.624   3.747  0.0532 -0.5283  0.5587
 3798SOL    HW114026   3.890   6.680   3.746  0.2647 -0.8183  0.5803
 3798SOL    HW214027   3.780   6.626   3.657 -0.6331  0.5739  0.8012
 3799SOL     OW14028   6.230   7.290   7.458  0.4713  0.1997 -0.1078
 3799SOL    HW114029   6.256   7.377   7.430  1.1440  0.6890  1.8651
 3799SOL    HW214030   6.138   7.298   7.480 -0.0175 -0.1480 -1.8995
 3800SOL     OW14031   3.654   8.956   6.010 -0.0134  0.1551  0.0681
 3800SOL    HW114032   3.741   8.953   5.971 -0.4394 -1.3940 -0.8797
 3800SOL    HW214033   3.669   8.963   6.104  1.1390 -0.3193 -0.0684
 3801SOL     OW14034   5.975   9.999   3.882  0.7395  0.4621 -0.7529
 3801SOL    HW114035   5.928  10.077   3.852  1.3143  1.6972  1.4043
 3801SOL    HW214036   6.017   9.965   3.803 -1.4181  0.9144 -2.2113
 3802SOL     OW14037   1.677   5.454   7.449  0.3634 -0.7657 -0.0014
 3802SOL    HW114038   1.594   5.498   7.431  0.9090  0.2731 -0.0417
 3802SOL    HW214039   1.685   5.457   7.545  0.8589  0.0969 -0.0641
 3803SOL     OW14040   9.080   2.010   8.579  0.2804 -0.5454 -0.0849
 3803SOL    HW114041   9.094   2.005   8.673 -1.5561 -0.2523  0.2373
 3803SOL    HW214042   9.096   2.102   8.557 -0.2650 -0.3940  0.1331
 3804SOL     OW14043   6.972   0.192   5.879  0.1046  0.2160 -0.3289
 3804SOL    HW114044   7.042   0.148   5.831  0.0730  0.6630 -0.7940
 3804SOL    HW214045   6.906   0.124   5.892  1.1611 -0.5544  1.2647
 3805SOL     OW14046   2.997   4.817   6.731 -0.3183  0.2376  0.1391
 3805SOL    HW114047   3.053   4.785   6.802  1.7249  0.2983 -1.3501
 3805SOL    HW214048   2.933   4.873   6.775  0.9206  0.3595  1.9339
 3806SOL     OW14049   2.218   6.100   6.120  0.0035  0.3822 -0.0645
 3806SOL    HW114050   2.135   6.145   6.105 -0.8035 -1.1058 -0.2289
 3806SOL    HW214051   2.209   6.064   6.208  0.5735  0.4109  0.0052
 3807SOL     OW14052   1.394   6.579   1.621 -0.3295 -0.1837 -0.1568
 3807SOL    HW114053   1.429   6.644   1.681 -1.0963 -1.5618  1.9121
 3807SOL    HW214054   1.470   6.539   1.580  0.1465  2.9331 -2.6694
 3808SOL     OW14055   3.665   3.089   2.748 -0.2663 -0.0553  0.2420
 3808SOL    HW114056   3.647   3.157   2.813 -0.9965  0.1940 -0.2144
 3808SOL    HW214057   3.592   3.093   2.687  0.1973 -0.5725 -0.3680
 3809SOL     OW14058   0.186   8.313   3.441  0.2489 -0.1850  0.0051
 3809SOL    HW114059   0.223   8.238   3.488 -0.6288 -0.5122  0.1969
 3809SOL    HW214060   0.243   8.386   3.463  1.7414 -0.9843 -1.0036
 3810SOL     OW14061   3.094   5.067   4.177 -0.9354  0.1673  0.4131
 3810SOL    HW114062   3.086   5.154   4.137 -1.4584  0.1351  0.4309
 3810SOL    HW214063   3.111   5.084   4.270 -1.2384  0.2572  0.4546
 3811SOL     OW14064   5.169   0.051   5.350 -0.1027  0.9192 -0.0441
 3811SOL    HW114065   5.239   0.030   5.412 -0.7031  0.9415  0.6491
 3811SOL    HW214066   5.184  -0.009   5.277 -0.1309  0.0178  0.6690
 3812SOL     OW14067   4.913   6.472   3.522 -0.0192  0.0191 -0.0495
 3812SOL    HW114068   4.923   6.521   3.440 -1.1328 -0.0460 -0.2405
 3812SOL    HW214069   4.865   6.533   3.580 -0.5681 -0.4821  0.0329
 3813SOL     OW14070   3.752   1.804   2.574 -0.4011 -0.1738  0.1405
 3813SOL    HW114071   3.680   1.784   2.634 -0.9047  3.1056  0.7969
 3813SOL    HW214072   3.831   1.799   2.629 -0.8202  2.4059  1.0845
 3814SOL     OW14073   7.432   3.935   8.419 -0.2841  0.2865 -0.3611
 3814SOL    HW114074   7.524   3.917   8.405  0.2308  1.8032  0.8334
 3814SOL    HW214075   7.409   3.997   8.350 -1.5652 -3.1091 -3.2737
 3815SOL     OW14076   5.949   3.952   2.632  0.0578 -0.3152 -0.0205
 3815SOL    HW114077   5.877   4.013   2.641  1.3036  1.4597 -1.4571
 3815SOL    HW214078   5.963   3.944   2.538  1.1570 -1.3459  0.2010
 3816SOL     OW14079   4.021   4.441   7.909  0.1016 -0.6613  0.1472
 3816SOL    HW114080   4.112   4.423   7.934  0.3237  0.4368  0.1772
 3816SOL    HW214081   3.985   4.355   7.887  1.0361 -1.1597  0.4900
 3817SOL     OW14082   4.335   4.569   3.472 -0.7214 -0.0571  0.0476
 3817SOL    HW114083   4.352   4.664   3.468  2.1978 -0.4738 -0.1219
 3817SOL    HW214084   4.344   4.539   3.381 -2.4914 -0.4356 -0.0400
 3818SOL     OW14085   0.330   4.783   6.745  0.2762  0.8542 -0.6254
 3818SOL    HW114086   0.396   4.719   6.716  1.9279  0.6497  2.9698
 3818SOL    HW214087   0.262   4.730   6.787  1.5815  1.2544  2.2403
 3819SOL     OW14088   0.772   9.051   9.390 -0.1051 -0.3400  0.3745
 3819SOL    HW114089   0.757   8.968   9.435  1.6987  0.0535  1.8497
 3819SOL    HW214090   0.686   9.094   9.388 -0.7379 -1.5377  1.0551
 3820SOL     OW14091   7.216   5.413   8.525 -0.4725 -0.4626  0.2006
 3820SOL    HW114092   7.268   5.335   8.509  0.9011  0.5851 -0.7014
 3820SOL    HW214093   7.126   5.385   8.513  0.0253 -1.7431 -0.8090
 3821SOL     OW14094   3.219   4.407   1.736  0.4022  0.0272  0.1014
 3821SOL    HW114095   3.172   4.489   1.752 -0.2310 -0.2941 -0.1046
 3821SOL    HW214096   3.156   4.351   1.690  0.6834 -0.7371  0.6287
 3822SOL     OW14097   7.233   5.413   8.035 -0.2781  0.4725 -0.4759
 3822SOL    HW114098   7.264   5.361   8.109  2.5265  1.4527 -0.8557
 3822SOL    HW214099   7.146   5.442   8.061 -0.4400 -1.4035  1.2639
 3823SOL     OW14100   3.341   7.985   3.477 -0.2375 -0.0787 -0.0408
 3823SOL    HW114101   3.330   7.892   3.454 -1.1991  0.2545 -1.0233
 3823SOL    HW214102   3.433   7.992   3.504  0.1117 -1.1296 -0.8631
 3824SOL     OW14103   1.379   3.464   8.030  0.5856 -0.3692 -0.0400
 3824SOL    HW114104   1.347   3.544   8.071 -0.9420 -1.0129  0.0759
 3824SOL    HW214105   1.451   3.494   7.974  0.8995  0.8910  0.9853
 3825SOL     OW14106   7.499   6.001   1.701  0.1767 -0.2100  0.7241
 3825SOL    HW114107   7.493   6.092   1.732 -2.8149 -0.6324  1.7174
 3825SOL    HW214108   7.409   5.969   1.704  1.1976 -3.3836  0.8603
 3826SOL     OW14109   5.918   6.436   3.593  0.5291  0.0854 -0.2448
 3826SOL    HW114110   5.901   6.376   3.520 -1.1250  0.2719 -0.0475
 3826SOL    HW214111   5.834   6.445   3.637  0.7419  2.4599 -0.1918
 3827SOL     OW14112   5.653   3.681   8.758 -0.3634 -0.0772 -0.4605
 3827SOL    HW114113   5.715   3.725   8.700 -1.7126 -1.1679 -2.8703
 3827SOL    HW214114   5.687   3.592   8.767  1.3050  0.7154  2.8204
 3828SOL     OW14115   8.950   6.451   5.375 -0.0236 -0.9308 -0.3422
 3828SOL    HW114116   8.964   6.359   5.395 -1.2618 -0.6678  2.1280
 3828SOL    HW214117   8.888   6.481   5.441 -0.0312  1.5749 -1.3660
 3829SOL     OW14118   4.795  10.170   6.918 -0.3056  0.8653  0.1509
 3829SOL    HW114119   4.871  10.130   6.876 -1.0679  0.5009 -0.9432
 3829SOL    HW214120   4.823  10.260   6.937  0.3956  0.7353 -0.2250
 3830SOL     OW14121   8.221   6.074   5.533  0.2760  0.2571 -0.2416
 3830SOL    HW114122   8.179   6.132   5.597  2.2435 -0.4702  1.8063
 3830SOL    HW214123   8.150   6.050   5.473 -1.2616  2.3246  0.6332
 3831SOL     OW14124   4.397   4.447   5.656 -0.1637 -0.0916 -0.1506
 3831SOL    HW114125   4.479   4.492   5.638  0.8048 -1.9229 -0.5256
 3831SOL    HW214126   4.391   4.380   5.589 -0.2289 -2.1854  1.8114
 3832SOL     OW14127   3.328   5.355   0.482 -0.1660  0.2126  0.4720
 3832SOL    HW114128   3.312   5.330   0.390  0.0238  1.2216  0.1556
 3832SOL    HW214129   3.417   5.324   0.500 -0.2218 -0.0334  0.3326
 3833SOL     OW14130   5.816   0.859   1.164  0.1169 -0.0705 -0.2182
 3833SOL    HW114131   5.826   0.829   1.073 -0.9591 -0.9985 -0.0493
 3833SOL    HW214132   5.722   0.852   1.181  0.1690  1.0944  0.6413
 3834SOL     OW14133   4.648   6.237   9.104 -0.8098 -0.2617 -0.0016
 3834SOL    HW114134   4.735   6.246   9.142 -0.7271 -2.5251  0.4850
 3834SOL    HW214135   4.588   6.252   9.177 -0.8780  1.2255 -0.3214
 3835SOL     OW14136   8.873   2.520   5.517 -0.1345  0.1600 -0.3928
 3835SOL    HW114137   8.943   2.579   5.542 -0.5756  0.3480  0.4241
 3835SOL    HW214138   8.793   2.561   5.550 -0.5245 -0.5466 -0.4251
 3836SOL     OW14139   1.951   8.679   7.962 -0.2984 -0.4484  0.0167
 3836SOL    HW114140   1.966   8.627   8.041 -0.5627  0.8863  0.9854
 3836SOL    HW214141   1.984   8.766   7.984 -0.1199 -0.1171 -1.4616
 3837SOL     OW14142   6.720   6.406   1.477  0.0664 -0.2129  0.0680
 3837SOL    HW114143   6.754   6.332   1.529  3.2520  1.8372  1.2054
 3837SOL    HW214144   6.756   6.392   1.389  0.4562 -0.1733  0.2177
 3838SOL     OW14145   5.297   5.493   0.254 -0.2328  0.6958  0.0778
 3838SOL    HW114146   5.321   5.402   0.236  0.3105  0.8798 -0.1394
 3838SOL    HW214147   5.202   5.490   0.267  0.0373 -0.2416  2.2135
 3839SOL     OW14148   2.476   6.968   2.404 -0.2975 -0.4996  0.0527
 3839SOL    HW114149   2.401   6.933   2.453 -0.3931  1.8327  1.7683
 3839SOL    HW214150   2.551   6.920   2.439 -0.7169 -1.0973  0.1571
 3840SOL     OW14151   8.587   5.156   1.303  0.1319 -0.0327 -0.7428
 3840SOL    HW114152   8.624   5.244   1.305 -0.8771  0.4900 -2.5086
 3840SOL    HW214153   8.661   5.098   1.321  0.8800  1.1451  0.0841
 3841SOL     OW14154   3.866   1.929   5.783  0.4515 -0.2473 -0.1406
 3841SOL    HW114155   3.817   1.979   5.718 -0.2286  0.5405  0.9455
 3841SOL    HW214156   3.835   1.839   5.773  0.0809 -0.0638 -0.6590
 3842SOL     OW14157   4.736   4.191   8.369  0.4445  0.4027  0.4487
 3842SOL    HW114158   4.680   4.253   8.323  0.1130 -0.2686 -0.0701
 3842SOL    HW214159   4.805   4.245   8.408  1.1899  0.9381 -1.4821
 3843SOL     OW14160   8.381   7.688   7.173 -0.0762  0.5071  0.5220
 3843SOL    HW114161   8.375   7.613   7.113 -0.0400  1.1689 -0.3291
 3843SOL    HW214162   8.292   7.701   7.204 -0.4981  1.3858 -0.9452
 3844SOL     OW14163   5.417   5.304   6.334  0.4053 -0.5482 -0.0193
 3844SOL    HW114164   5.497   5.275   6.290 -0.9505 -3.5833 -0.8299
 3844SOL    HW214165   5.359   5.332   6.263  0.2148  0.1292  0.3977
 3845SOL     OW14166   8.197   4.242   4.841  0.1430  0.2575 -0.8269
 3845SOL    HW114167   8.136   4.306   4.804  0.9913 -0.3353 -3.4778
 3845SOL    HW214168   8.282   4.284   4.835  0.2373  0.5133  1.4969
 3846SOL     OW14169   2.371   5.875   3.715 -0.2771 -0.2369 -0.0298
 3846SOL    HW114170   2.356   5.911   3.803 -1.1719  0.1420 -0.3225
 3846SOL    HW214171   2.358   5.949   3.656 -3.4026 -1.2041 -0.7319
 3847SOL     OW14172   3.635   5.647   8.818 -0.2321  0.2407 -0.1029
 3847SOL    HW114173   3.675   5.680   8.898 -0.0532  0.9566 -0.4728
 3847SOL    HW214174   3.682   5.693   8.748 -0.3727 -0.3881 -0.6138
 3848SOL     OW14175   9.057   1.340   8.392  0.4817 -0.1405  0.1486
 3848SOL    HW114176   9.052   1.295   8.477  2.0160  0.6450  0.6997
 3848SOL    HW214177   9.141   1.386   8.395 -0.0906  1.0534 -1.2443
 3849SOL     OW14178   0.513   1.313   6.380  0.4733 -0.1606  0.7940
 3849SOL    HW114179   0.506   1.221   6.405 -0.5279 -0.1224  0.7063
 3849SOL    HW214180   0.422   1.341   6.368  0.8084  0.6034 -0.0428
 3850SOL     OW14181   4.964   5.322   9.452 -0.2313  0.3062 -0.5335
 3850SOL    HW114182   5.031   5.265   9.416  0.4817  0.4332  0.5298
 3850SOL    HW214183   5.012   5.400   9.482 -0.8484  0.4266  0.1931
 3851SOL     OW14184   4.692   7.209   7.771 -0.4234  0.6095 -0.3175
 3851SOL    HW114185   4.728   7.151   7.704 -0.4719  1.6626 -1.2946
 3851SOL    HW214186   4.752   7.202   7.844 -1.4369 -2.1169  0.3783
 3852SOL     OW14187   0.597   6.477   1.122  0.1589 -0.3452  0.0618
 3852SOL    HW114188   0.692   6.468   1.116  0.0628 -0.4134 -1.6983
 3852SOL    HW214189   0.584   6.547   1.186  1.4066 -0.0729  0.0452
 3853SOL     OW14190   2.229   1.269   8.032  0.0427 -0.3449 -0.0863
 3853SOL    HW114191   2.217   1.176   8.048 -0.4953 -0.2158  0.2688
 3853SOL    HW214192   2.159   1.293   7.971  0.7102 -0.3530 -0.8776
 3854SOL     OW14193   4.462   9.799   2.991  0.0522 -0.7509  0.1113
 3854SOL    HW114194   4.536   9.740   3.008  0.9755  0.2359 -0.3685
 3854SOL    HW214195   4.405   9.790   3.067  2.0202  0.4928  1.8273
 3855SOL     OW14196   3.472   0.903   0.397  0.0396  0.1206  0.0477
 3855SOL    HW114197   3.513   0.828   0.355 -3.1625 -2.5137  1.2863
 3855SOL    HW214198   3.400   0.927   0.339  0.3901  1.6427  0.1967
 3856SOL     OW14199   2.468   0.562   7.294 -0.5954 -0.6949  0.3954
 3856SOL    HW114200   2.561   0.550   7.273 -0.2361  0.5610  1.1375
 3856SOL    HW214201   2.423   0.559   7.209  0.2914 -0.0061 -0.1145
 3857SOL     OW14202   3.190   6.671   0.119 -0.3836 -0.1482 -0.6361
 3857SOL    HW114203   3.170   6.578   0.126 -0.8668 -0.1769 -2.0776
 3857SOL    HW214204   3.260   6.675   0.052 -1.5406  0.6286 -1.8408
 3858SOL     OW14205   7.572  10.248   5.462 -0.2591  0.3112  0.2772
 3858SOL    HW114206   7.620  10.184   5.409 -0.3562  0.1993  0.3258
 3858SOL    HW214207   7.513  10.291   5.400  0.4316  0.9729  0.0626
 3859SOL     OW14208  10.148   3.791   8.355 -0.2348  0.0848 -0.1255
 3859SOL    HW114209  10.134   3.855   8.424 -2.3871  0.6671 -1.0029
 3859SOL    HW214210  10.137   3.706   8.397  0.0512  0.3674  0.5298
 3860SOL     OW14211   8.908   2.855   2.121  0.5236  0.6519 -0.0591
 3860SOL    HW114212   8.838   2.918   2.137 -1.1226 -0.7480 -1.3681
 3860SOL    HW214213   8.965   2.898   2.057 -2.3207 -0.2366 -3.4575
 3861SOL     OW14214  10.057   0.225   2.519  0.4171  0.6695  0.1802
 3861SOL    HW114215  10.020   0.179   2.595  0.0226  0.4422 -0.1471
 3861SOL    HW214216  10.111   0.294   2.557  2.6027 -1.2187  0.7537
 3862SOL     OW14217  10.096   3.210   6.520 -0.4491 -0.4892 -0.3518
 3862SOL    HW114218  10.082   3.116   6.520 -2.2626 -0.3173  1.5761
 3862SOL    HW214219  10.023   3.245   6.571  0.9556  1.8208  0.2714
 3863SOL     OW14220   0.537   1.129   4.079  0.8159  0.9906 -0.5571
 3863SOL    HW114221   0.552   1.215   4.118  0.5103  0.8315 -0.0756
 3863SOL    HW214222   0.548   1.067   4.152 -1.6037  0.8205 -0.2516
 3864SOL     OW14223   3.268   6.853   9.046 -0.1354  0.2034 -0.1360
 3864SOL    HW114224   3.251   6.887   8.959 -2.9891 -0.8620 -0.0836
 3864SOL    HW214225   3.313   6.770   9.031 -0.5877  0.0383 -0.6083
 3865SOL     OW14226   3.649   0.467   6.352 -0.6548 -0.0344 -0.3700
 3865SOL    HW114227   3.573   0.412   6.335 -0.3697 -1.0569  1.4828
 3865SOL    HW214228   3.706   0.414   6.407  0.6148  1.3532 -0.2772
 3866SOL     OW14229   4.318   3.322   3.685 -0.2772  0.5724 -0.5865
 3866SOL    HW114230   4.316   3.265   3.608  0.3693 -0.9737  0.4848
 3866SOL    HW214231   4.360   3.269   3.753 -3.0389  0.9043  1.5904
 3867SOL     OW14232   0.846   7.096   8.043  0.1809 -0.3881 -0.5840
 3867SOL    HW114233   0.829   7.071   7.953  0.0426 -0.5645 -0.5087
 3867SOL    HW214234   0.925   7.048   8.067  0.6457  0.2264 -0.8473
 3868SOL     OW14235   4.817   3.186   0.431 -0.1195 -0.4929 -0.1153
 3868SOL    HW114236   4.743   3.240   0.403  0.5244 -0.1274 -1.1874
 3868SOL    HW214237   4.861   3.162   0.349  0.2027 -1.7954  0.4145
 3869SOL     OW14238   1.845   9.139   6.608 -0.3408 -0.2601 -0.5949
 3869SOL    HW114239   1.838   9.053   6.648 -0.9144 -0.4946 -1.1727
 3869SOL    HW214240   1.863   9.120   6.515  0.3785  0.2561 -0.5685
 3870SOL     OW14241   8.966   1.430   0.171  0.5569 -0.2996 -0.7185
 3870SOL    HW114242   8.974   1.377   0.250  2.0268  0.4004 -0.3554
 3870SOL    HW214243   8.900   1.497   0.194 -1.4068 -1.9553 -1.2273
 3871SOL     OW14244   1.128   7.494   3.043 -0.0255 -0.1511  0.0517
 3871SOL    HW114245   1.154   7.584   3.024  1.1404 -0.4326  0.2373
 3871SOL    HW214246   1.060   7.502   3.110  0.3411  0.5734  0.3463
 3872SOL     OW14247   9.274   6.420   0.714  0.3382 -0.1872  0.6517
 3872SOL    HW114248   9.185   6.390   0.697  0.7864 -0.5863 -1.1373
 3872SOL    HW214249   9.315   6.346   0.760 -0.3636  0.2026  1.9671
 3873SOL     OW14250  10.013   5.115   3.048  0.3390 -0.1433  0.5558
 3873SOL    HW114251   9.986   5.076   2.965  3.0657 -0.0586 -0.4905
 3873SOL    HW214252  10.013   5.042   3.110 -0.8231 -0.3999  0.2775
 3874SOL     OW14253   7.934   9.637   4.718  0.7271  0.3354  0.0848
 3874SOL    HW114254   7.932   9.560   4.774 -0.4843 -0.3604 -0.8671
 3874SOL    HW214255   7.843   9.667   4.715  0.9835  1.1174 -0.4893
 3875SOL     OW14256   0.787   4.872   3.296  0.3449 -0.2502  0.1242
 3875SOL    HW114257   0.870   4.850   3.337  0.2030  1.4779  1.4686
 3875SOL    HW214258   0.731   4.796   3.313  1.1202 -0.6964  0.7650
 3876SOL     OW14259   4.348   6.671   7.851  0.6067 -0.0653 -0.2563
 3876SOL    HW114260   4.362   6.765   7.838  2.1286 -0.1626  0.4386
 3876SOL    HW214261   4.256   6.664   7.876  0.6183  1.3206  0.2880
 3877SOL     OW14262   7.211   5.271   1.036 -0.1380  0.4499  0.0200
 3877SOL    HW114263   7.258   5.312   1.109  1.5510  2.9302 -2.2907
 3877SOL    HW214264   7.219   5.333   0.964 -1.2420 -2.1082 -2.5013
 3878SOL     OW14265  10.254   6.972  10.027  0.2789  0.2116 -0.1071
 3878SOL    HW114266  10.243   7.020  10.109  1.2435  1.9039 -0.9033
 3878SOL    HW214267  10.167   6.972   9.987 -0.6769 -2.3114  1.7000
 3879SOL     OW14268  10.048  10.152   9.451  0.2336 -0.3283 -0.5214
 3879SOL    HW114269  10.099  10.121   9.376  0.7884  1.7640 -1.0729
 3879SOL    HW214270  10.091  10.112   9.527 -0.2692 -2.3894 -1.2557
 3880SOL     OW14271   3.879   4.964   3.202 -0.3738  0.5885 -0.2528
 3880SOL    HW114272   3.881   4.912   3.282 -1.6070 -0.4475 -0.8532
 3880SOL    HW214273   3.931   5.042   3.222 -1.2586  0.7179  1.8150
 3881SOL     OW14274   5.668   5.101   8.813  0.1285 -1.1506  0.0444
 3881SOL    HW114275   5.675   5.163   8.885  1.4369  0.8647 -1.7077
 3881SOL    HW214276   5.574   5.098   8.792 -0.1636 -1.1931  1.3145
 3882SOL     OW14277   6.593   2.889   1.734 -0.0788  0.5284 -0.0989
 3882SOL    HW114278   6.671   2.941   1.753  0.1509 -0.0270  0.5336
 3882SOL    HW214279   6.583   2.894   1.639  0.7153  0.6334 -0.1843
 3883SOL     OW14280   3.017   0.550  10.211  0.3094  0.1712  0.0558
 3883SOL    HW114281   3.067   0.493  10.271 -2.0669  0.0870  2.1039
 3883SOL    HW214282   2.985   0.491  10.143  0.8608 -0.2429  0.1478
 3884SOL     OW14283   3.444   6.905   1.640 -0.2964 -0.4198 -0.0536
 3884SOL    HW114284   3.473   6.990   1.673 -1.5705 -0.2961  0.7999
 3884SOL    HW214285   3.492   6.895   1.557  4.9244 -1.8460  2.6835
 3885SOL     OW14286   0.707   0.491   2.247  0.1339 -0.0124 -0.2977
 3885SOL    HW114287   0.679   0.445   2.326 -0.7565  0.3819 -0.3699
 3885SOL    HW214288   0.678   0.581   2.260  2.1744  0.6384 -0.0065
 3886SOL     OW14289   6.982   8.267   9.284  0.3984 -0.1498  0.1102
 3886SOL    HW114290   6.955   8.271   9.376  0.3978 -0.1928  0.1124
 3886SOL    HW214291   6.900   8.254   9.236  0.2687  0.9580  0.0138
 3887SOL     OW14292   2.107   1.719   9.829 -0.4760  0.1748 -0.1887
 3887SOL    HW114293   2.141   1.790   9.883 -0.3015 -0.9728  1.2975
 3887SOL    HW214294   2.012   1.729   9.834 -0.5202 -0.7108  1.5413
 3888SOL     OW14295   2.071   6.742   1.633 -0.0225 -0.4013  0.2627
 3888SOL    HW114296   2.097   6.718   1.722  0.7337  0.4734  0.2975
 3888SOL    HW214297   1.989   6.790   1.644 -1.3346 -2.5279  0.2268
 3889SOL     OW14298   3.709   4.373   8.374  0.3300  0.5398 -0.0216
 3889SOL    HW114299   3.786   4.403   8.327  0.0604  0.6523 -0.3971
 3889SOL    HW214300   3.711   4.277   8.365  0.7755  0.4915  0.5282
 3890SOL     OW14301   4.028   6.691   3.238  0.4571  0.6103  0.3560
 3890SOL    HW114302   4.009   6.597   3.244  0.4057  0.6548  0.9914
 3890SOL    HW214303   4.045   6.706   3.145  0.1822  0.0269  0.2043
 3891SOL     OW14304   7.023   1.379  10.115  0.1640 -0.0079  0.2779
 3891SOL    HW114305   7.025   1.290  10.151  1.0040  0.0421  0.3760
 3891SOL    HW214306   6.976   1.370  10.032  1.6088 -0.8545 -0.4852
 3892SOL     OW14307   4.582  10.347   3.205 -0.3215  0.0835  0.1657
 3892SOL    HW114308   4.572  10.409   3.278  1.5628  0.6546 -0.0244
 3892SOL    HW214309   4.663  10.300   3.224  1.6727  2.0248 -2.7714
 3893SOL     OW14310   5.638   7.126   4.208 -0.0140 -0.3441 -0.0631
 3893SOL    HW114311   5.646   7.099   4.117  0.8426 -0.5372  0.0591
 3893SOL    HW214312   5.716   7.178   4.225 -0.0638 -0.4709  0.6132
 3894SOL     OW14313   0.105   3.235   5.781 -0.2426  0.1068 -0.1388
 3894SOL    HW114314   0.045   3.228   5.855  0.3774 -1.6771  0.2560
 3894SOL    HW214315   0.058   3.196   5.707  0.4808 -1.6149  0.2517
 3895SOL     OW14316   2.839   6.264   5.630  0.4077  0.9607 -0.3668
 3895SOL    HW114317   2.808   6.174   5.623  0.6166  0.4692  3.0883
 3895SOL    HW214318   2.925   6.264   5.588  0.3983 -0.4560 -0.4151
 3896SOL     OW14319   7.583   1.582   7.952  0.3740 -0.4885  0.0339
 3896SOL    HW114320   7.505   1.548   7.910  1.6728 -1.2221 -1.9279
 3896SOL    HW214321   7.615   1.649   7.891  2.3823 -1.6670 -0.2990
 3897SOL     OW14322   4.647   4.831   1.689  0.3986  0.9526 -0.1766
 3897SOL    HW114323   4.582   4.774   1.647  1.3902  0.1440 -0.6624
 3897SOL    HW214324   4.660   4.794   1.776 -0.1483  1.4072  0.1003
 3898SOL     OW14325   2.082   6.608   8.283 -0.0397  0.4218  0.1891
 3898SOL    HW114326   2.138   6.541   8.321  1.9926  0.9718 -1.6660
 3898SOL    HW214327   1.993   6.584   8.311  0.6085 -2.9405 -0.2160
 3899SOL     OW14328   3.467   7.015   5.605  0.3458 -0.1785 -0.2592
 3899SOL    HW114329   3.512   7.055   5.680  0.2955 -0.2292 -0.2013
 3899SOL    HW214330   3.449   7.088   5.546 -3.2961  0.6622  1.5945
 3900SOL     OW14331   5.242   6.324   1.204  0.6767  0.1266  0.0461
 3900SOL    HW114332   5.208   6.307   1.292  0.4675  0.0140 -0.0560
 3900SOL    HW214333   5.261   6.237   1.168 -1.0702  0.0222 -0.7429
 3901SOL     OW14334   2.647   5.164   5.021 -0.1719 -0.7482  0.6370
 3901SOL    HW114335   2.671   5.146   4.930  1.4896  1.0761  0.6437
 3901SOL    HW214336   2.559   5.202   5.016  0.2643  0.2095 -0.3573
 3902SOL     OW14337   2.794   2.839   8.249  0.0441  0.0006  0.4291
 3902SOL    HW114338   2.802   2.745   8.262 -1.8825 -0.3083 -0.3310
 3902SOL    HW214339   2.702   2.853   8.230 -0.0375  2.2791  2.1118
 3903SOL     OW14340   1.187   9.545   1.448  0.1000  0.0824  0.0171
 3903SOL    HW114341   1.167   9.541   1.354 -2.8228  0.5447  0.5205
 3903SOL    HW214342   1.252   9.615   1.456  0.2439  0.1832 -1.6163
 3904SOL     OW14343   7.251   0.596   6.839 -0.2116 -0.7413 -0.0974
 3904SOL    HW114344   7.177   0.544   6.868 -1.0470  0.2025 -0.4624
 3904SOL    HW214345   7.222   0.636   6.757 -0.0495  1.1669  0.7239
 3905SOL     OW14346   8.658   5.225   0.868 -0.2186  0.4133 -0.0475
 3905SOL    HW114347   8.625   5.305   0.910 -0.4665 -0.1619  0.8977
 3905SOL    HW214348   8.741   5.208   0.913  0.8592  1.2358 -1.6448
 3906SOL     OW14349   0.012   9.150   8.528 -0.1297  0.2851  0.4093
 3906SOL    HW114350   0.081   9.172   8.465 -1.4070  1.6978 -0.5866
 3906SOL    HW214351   0.056   9.098   8.594  2.0764  1.7196  0.2008
 3907SOL     OW14352   0.658   7.215   5.952  0.7105  0.1708 -0.2251
 3907SOL    HW114353   0.701   7.212   6.038  0.5076 -1.3682 -0.1556
 3907SOL    HW214354   0.666   7.126   5.918 -1.4348  0.1141 -0.7034
 3908SOL     OW14355   4.140   2.746   3.718 -0.6838 -0.2902 -0.4115
 3908SOL    HW114356   4.186   2.828   3.734 -0.8178 -0.5049  1.2353
 3908SOL    HW214357   4.076   2.740   3.789 -0.6434 -1.8426 -0.4626
 3909SOL     OW14358   9.174   4.726   1.353  0.3870  0.0096 -0.0915
 3909SOL    HW114359   9.233   4.731   1.428  0.4576 -1.0082 -0.0594
 3909SOL    HW214360   9.105   4.665   1.381  1.0317 -1.3152 -1.2367
 3910SOL     OW14361   0.584   2.187   6.588 -0.2528 -0.4446  0.0879
 3910SOL    HW114362   0.557   2.250   6.522 -0.8532 -0.0588  0.6863
 3910SOL    HW214363   0.642   2.236   6.646  0.1203 -0.7293 -0.0411
 3911SOL     OW14364   1.106   5.696  10.131  0.4223 -0.2849 -0.2706
 3911SOL    HW114365   1.046   5.726  10.062  0.4648 -0.7899 -0.5296
 3911SOL    HW214366   1.147   5.617  10.094  0.3185 -0.6538  0.3990
 3912SOL     OW14367   0.088   3.958   6.430  0.3800 -0.0157 -0.5922
 3912SOL    HW114368   0.058   3.957   6.521  0.8657  0.6773 -0.4160
 3912SOL    HW214369   0.032   4.022   6.387  0.6420  0.2049 -0.6053
 3913SOL     OW14370   5.243   8.066   4.845  0.4764  0.2312 -0.2936
 3913SOL    HW114371   5.274   8.143   4.798  0.5792 -0.1858 -0.9087
 3913SOL    HW214372   5.309   7.999   4.827 -1.1379 -0.9168 -2.2899
 3914SOL     OW14373   7.072   9.465   7.897 -0.2912  1.0348  0.2979
 3914SOL    HW114374   7.141   9.421   7.848  0.6417  0.0752  2.3591
 3914SOL    HW214375   7.118   9.520   7.960 -1.4393  1.4385  0.8228
 3915SOL     OW14376   1.562   0.010   1.899  0.1099 -0.0736 -0.1449
 3915SOL    HW114377   1.474   0.000   1.862 -0.5795  0.4680  1.2859
 3915SOL    HW214378   1.577   0.105   1.899  0.5272 -0.1390 -0.0086
 3916SOL     OW14379   4.597   5.204   6.388  0.2801  0.2861 -0.8014
 3916SOL    HW114380   4.601   5.284   6.440 -0.1844  0.6079 -1.2480
 3916SOL    HW214381   4.504   5.192   6.370  0.1229 -1.4227  0.8811
 3917SOL     OW14382   6.842   8.975   6.636 -0.4451 -0.5316 -0.1228
 3917SOL    HW114383   6.891   8.921   6.699 -2.3143 -1.0903  0.9454
 3917SOL    HW214384   6.904   9.042   6.608  0.4648 -0.2091  2.3991
 3918SOL     OW14385   3.782   4.437   2.997 -0.2014 -0.6854 -0.1854
 3918SOL    HW114386   3.687   4.451   3.005 -0.2784 -1.9103  1.6165
 3918SOL    HW214387   3.819   4.525   3.001 -1.1491 -0.3038  2.0667
 3919SOL     OW14388   3.489   2.657   0.800 -0.0841 -0.0954  0.6233
 3919SOL    HW114389   3.479   2.654   0.895 -0.4923  0.5162  0.6031
 3919SOL    HW214390   3.583   2.671   0.786 -0.2314  1.3016  0.9692
 3920SOL     OW14391   6.059   6.821   7.440  0.3163 -0.2887 -1.0063
 3920SOL    HW114392   5.996   6.892   7.449  0.9534  0.1035  0.5407
 3920SOL    HW214393   6.110   6.844   7.362  2.1119  2.3001  0.7740
 3921SOL     OW14394   2.406   3.470   5.898  0.1564  0.0376  0.0285
 3921SOL    HW114395   2.479   3.510   5.851 -1.8276  1.9627 -1.6446
 3921SOL    HW214396   2.361   3.417   5.832 -2.0716  1.9305 -0.1074
 3922SOL     OW14397   1.862   5.238   6.006  0.0683  0.2492  0.3047
 3922SOL    HW114398   1.946   5.265   6.042  0.9238 -1.7393 -0.0702
 3922SOL    HW214399   1.828   5.175   6.070 -0.1414 -0.5055 -0.5258
 3923SOL     OW14400   1.911   1.108   2.625 -0.2124  0.6254  0.1355
 3923SOL    HW114401   1.993   1.081   2.586 -0.5024  1.3336 -1.0030
 3923SOL    HW214402   1.936   1.148   2.709  0.4798 -0.2098  0.3349
 3924SOL     OW14403   0.571   3.998  10.109 -0.0647  0.1686 -0.7640
 3924SOL    HW114404   0.536   4.046  10.185 -1.7291 -2.2184  0.0893
 3924SOL    HW214405   0.611   3.920  10.147  0.0764 -0.5099 -2.2576
 3925SOL     OW14406   8.761   6.390   1.020  0.4908 -0.1271  0.8282
 3925SOL    HW114407   8.826   6.416   1.085  1.1437 -0.3947  0.2972
 3925SOL    HW214408   8.765   6.294   1.019 -1.0157 -0.2353  1.8855
 3926SOL     OW14409   6.075   6.780   4.904  0.1881  0.5052  0.5693
 3926SOL    HW114410   5.992   6.826   4.891 -0.7687 -1.1520  0.5290
 3926SOL    HW214411   6.090   6.734   4.822  1.2351  0.8959  0.5348
 3927SOL     OW14412   2.887   5.047   6.817 -0.3740  0.2026 -0.2815
 3927SOL    HW114413   2.955   5.100   6.860  2.0768 -2.3190 -0.7416
 3927SOL    HW214414   2.880   5.084   6.729  0.1955  0.6925 -0.1280
 3928SOL     OW14415   3.301   9.326   6.588  0.5874 -0.1538 -1.0564
 3928SOL    HW114416   3.390   9.345   6.559  0.2850  0.2758 -1.7418
 3928SOL    HW214417   3.311   9.282   6.672  1.3671  3.1393  0.7497
 3929SOL     OW14418   6.940   5.011   4.123 -0.3587 -0.2546  0.2429
 3929SOL    HW114419   6.926   4.951   4.196 -0.9213 -1.8667 -1.1298
 3929SOL    HW214420   7.028   4.990   4.091 -0.2249  0.2472  0.2740
 3930SOL     OW14421   7.000   2.476   2.484 -0.3751 -0.5828 -0.8753
 3930SOL    HW114422   7.019   2.405   2.545  1.5449 -0.6385 -1.4808
 3930SOL    HW214423   7.027   2.555   2.531 -1.1124 -0.3891 -0.7699
 3931SOL     OW14424   1.675   1.698   1.592  0.3697  0.5338  0.0726
 3931SOL    HW114425   1.713   1.778   1.629  1.8696  0.3113 -0.9179
 3931SOL    HW214426   1.686   1.632   1.661 -0.3293  1.0202  0.6650
 3932SOL     OW14427   7.884   0.884   8.900 -0.3069 -0.1779 -0.0128
 3932SOL    HW114428   7.850   0.831   8.827  1.2266 -1.6339  0.2754
 3932SOL    HW214429   7.904   0.821   8.968  1.2152  0.8140  0.5017
 3933SOL     OW14430   9.602   7.709   3.210 -0.2910  0.1008  0.3703
 3933SOL    HW114431   9.613   7.659   3.290 -2.3135  0.9613  1.2397
 3933SOL    HW214432   9.691   7.740   3.189  0.2777 -0.1085  2.2888
 3934SOL     OW14433   0.818   1.268   1.338  0.0623 -0.1703 -0.0628
 3934SOL    HW114434   0.782   1.342   1.387  0.1886 -0.9392  1.2339
 3934SOL    HW214435   0.767   1.266   1.257 -1.5913 -0.1309  0.9413
 3935SOL     OW14436   6.023   8.269   0.295  0.2003 -0.1494 -0.5935
 3935SOL    HW114437   5.932   8.290   0.318  0.2173  1.0647 -1.5100
 3935SOL    HW214438   6.033   8.177   0.319 -1.1916 -0.2408 -0.2490
 3936SOL     OW14439   9.094   7.769   7.393 -0.3009  0.6489 -0.4727
 3936SOL    HW114440   9.043   7.698   7.433  0.9933 -2.3359 -3.6694
 3936SOL    HW214441   9.184   7.750   7.418 -0.0635  2.3404  0.1053
 3937SOL     OW14442   8.527   9.567   4.068 -0.6419  0.2593  0.0446
 3937SOL    HW114443   8.479   9.610   3.998 -1.8557  0.6056  1.0453
 3937SOL    HW214444   8.597   9.628   4.091  1.1582 -0.8086 -2.2940
 3938SOL     OW14445   5.974   6.097   6.039 -0.0951  0.4044  0.2189
 3938SOL    HW114446   5.969   6.181   6.084 -0.4018  0.7085 -0.3621
 3938SOL    HW214447   5.886   6.084   6.003 -0.5107 -0.9492  1.6592
 3939SOL     OW14448   6.922   0.252   8.278 -0.3999  0.2449 -0.4278
 3939SOL    HW114449   6.910   0.193   8.352  0.5363  0.1145 -0.3628
 3939SOL    HW214450   6.868   0.328   8.298 -0.2493  0.1546  0.3284
 3940SOL     OW14451   5.501   3.044   7.328 -0.1018 -0.3064 -0.0905
 3940SOL    HW114452   5.578   2.996   7.359  0.1483  0.5321  0.6196
 3940SOL    HW214453   5.428   3.009   7.379  0.0674  0.0146  0.3745
 3941SOL     OW14454   2.564   9.734   1.713  0.0604  0.2526  0.0042
 3941SOL    HW114455   2.509   9.656   1.710  0.0629  0.1905  1.1804
 3941SOL    HW214456   2.591   9.748   1.622 -0.3281 -0.8294 -0.2894
 3942SOL     OW14457   3.939   5.074   7.572  0.2936  0.2745  0.1582
 3942SOL    HW114458   3.999   5.147   7.556  0.2943  0.0300 -1.0344
 3942SOL    HW214459   3.908   5.049   7.485 -0.5827 -0.4121  0.6575
 3943SOL     OW14460   2.567   0.134   6.620 -0.1453 -0.0333 -0.1248
 3943SOL    HW114461   2.590   0.050   6.661 -1.1953 -0.8186 -1.0828
 3943SOL    HW214462   2.599   0.126   6.530 -1.3967  0.0604 -0.5932
 3944SOL     OW14463   8.578   3.434   4.346  0.1256 -0.7370  0.3135
 3944SOL    HW114464   8.597   3.473   4.432  1.3117 -2.6802  1.0182
 3944SOL    HW214465   8.665   3.423   4.306 -0.4971  2.6411 -2.4363
 3945SOL     OW14466   5.359   6.437   3.201  0.3015  0.3093  0.1991
 3945SOL    HW114467   5.361   6.348   3.238 -0.4629  0.4815  0.6795
 3945SOL    HW214468   5.280   6.439   3.148 -1.0720  1.4461  2.1697
 3946SOL     OW14469   7.445   8.512   3.226  0.3987  0.3601 -0.0398
 3946SOL    HW114470   7.454   8.476   3.314 -2.0295 -1.3364 -0.3903
 3946SOL    HW214471   7.369   8.571   3.231  1.8108  2.3358 -0.4623
 3947SOL     OW14472   3.464   7.565   6.654  0.0646 -0.0370 -0.2157
 3947SOL    HW114473   3.457   7.528   6.566  0.5217  1.7683 -1.0627
 3947SOL    HW214474   3.473   7.659   6.640  0.9902  0.2286  1.7307
 3948SOL     OW14475   9.392   4.829   3.033 -0.2635 -0.2566  0.1571
 3948SOL    HW114476   9.389   4.880   2.952  0.0158  1.1893  1.0279
 3948SOL    HW214477   9.338   4.877   3.095 -0.3377 -1.2495  0.8939
 3949SOL     OW14478   7.271   7.410   0.919  0.8075 -0.1427  0.0749
 3949SOL    HW114479   7.204   7.341   0.916 -0.2751  0.7732  1.5781
 3949SOL    HW214480   7.299   7.412   1.010  2.2699  0.1019 -0.3587
 3950SOL     OW14481  10.283   5.664  10.251  0.3932 -0.2884  0.0856
 3950SOL    HW114482  10.340   5.667  10.328  1.4779 -1.1858 -0.6551
 3950SOL    HW214483  10.258   5.755  10.236 -0.2797 -0.1536  1.8025
 3951SOL     OW14484   5.906   6.301   3.362 -0.0125  0.0873 -0.4648
 3951SOL    HW114485   5.984   6.283   3.310 -0.7597  0.5487 -1.8015
 3951SOL    HW214486   5.835   6.307   3.298 -1.1126 -0.1107  0.6956
 3952SOL     OW14487   9.798   3.144   7.206  0.4278 -0.4488 -0.1013
 3952SOL    HW114488   9.736   3.096   7.152 -1.2943 -0.0212  1.4211
 3952SOL    HW214489   9.812   3.226   7.159  0.9757 -1.1199 -1.1508
 3953SOL     OW14490   3.122   2.331   3.691 -0.6611  0.0634  0.8773
 3953SOL    HW114491   3.206   2.362   3.724 -1.0405  2.6172 -0.3326
 3953SOL    HW214492   3.142   2.297   3.604 -0.8279  0.4495  0.6859
 3954SOL     OW14493   7.791   7.331   2.241  0.9482 -0.3303  0.1563
 3954SOL    HW114494   7.735   7.254   2.243 -2.0559  1.6541 -1.1178
 3954SOL    HW214495   7.872   7.301   2.200 -0.1565 -2.7388 -0.4235
 3955SOL     OW14496   9.084   5.924  10.005 -0.0173 -0.0843  0.3403
 3955SOL    HW114497   9.112   5.975  10.081 -1.0779 -0.9081  1.3091
 3955SOL    HW214498   9.063   5.990   9.939  1.4637  0.6334  0.5257
 3956SOL     OW14499   7.085   2.351   5.630  0.1539  0.4300 -0.2745
 3956SOL    HW114500   7.154   2.285   5.620  0.0037  0.3128 -0.5725
 3956SOL    HW214501   7.010   2.303   5.665  0.1414  0.5044 -0.1993
 3957SOL     OW14502   0.985   2.626   6.332  0.0061 -0.2618  0.0516
 3957SOL    HW114503   0.950   2.714   6.319  1.6383  0.2567 -1.1772
 3957SOL    HW214504   1.079   2.639   6.340  0.1995 -1.8387  0.6592
 3958SOL     OW14505   2.825   8.096   9.501  0.0574 -0.5326 -0.3711
 3958SOL    HW114506   2.788   8.018   9.541 -0.5637 -0.0144  0.0746
 3958SOL    HW214507   2.856   8.149   9.574  0.8938 -0.5503 -0.6925
 3959SOL     OW14508   2.720   6.700   7.110 -0.0918  0.3548  0.0261
 3959SOL    HW114509   2.744   6.636   7.178  1.6448  1.4959  0.5716
 3959SOL    HW214510   2.770   6.778   7.134  0.8223  0.7136 -2.7452
 3960SOL     OW14511   8.483   1.784   7.184 -0.1300  0.2266  0.2056
 3960SOL    HW114512   8.458   1.862   7.234 -0.3072 -0.6901  1.6034
 3960SOL    HW214513   8.523   1.726   7.248  0.6912 -0.5353 -0.9666
 3961SOL     OW14514   3.325   2.551   9.367  0.1166  0.0638 -0.0248
 3961SOL    HW114515   3.334   2.492   9.292 -0.5991 -1.9245  1.3607
 3961SOL    HW214516   3.259   2.509   9.423 -1.7444  3.0773  0.2642
 3962SOL     OW14517   2.453   0.810   5.773 -0.7768  0.1128  0.2024
 3962SOL    HW114518   2.434   0.850   5.689  0.5425 -0.0447 -0.1993
 3962SOL    HW214519   2.462   0.883   5.834  0.8334  0.4351 -0.3605
 3963SOL     OW14520   7.629   5.488   6.418  0.4249  0.1248 -0.2426
 3963SOL    HW114521   7.655   5.400   6.390 -0.0830 -0.0838 -0.0742
 3963SOL    HW214522   7.534   5.486   6.416  0.4163  0.8178 -0.6686
 3964SOL     OW14523   2.728   3.525   3.763  0.3175  0.6247  0.2493
 3964SOL    HW114524   2.663   3.537   3.694  1.2016  1.8161 -0.4271
 3964SOL    HW214525   2.792   3.595   3.748  0.6647  0.7658  2.1440
 3965SOL     OW14526   2.877   0.789   9.621  0.1034  0.0084 -0.1637
 3965SOL    HW114527   2.822   0.713   9.600  0.6855 -0.6556  0.6363
 3965SOL    HW214528   2.952   0.752   9.669  0.1209  1.1449  0.7437
 3966SOL     OW14529   6.829   0.213   1.236 -0.4112  0.3793 -0.1428
 3966SOL    HW114530   6.800   0.155   1.306 -0.9189  2.3213  1.3449
 3966SOL    HW214531   6.794   0.173   1.156 -2.0395 -0.5551  0.9709
 3967SOL     OW14532   7.188   6.322   9.650  0.0128  0.1747  0.2034
 3967SOL    HW114533   7.100   6.326   9.687  0.0867  0.6299  0.3431
 3967SOL    HW214534   7.174   6.310   9.556 -0.1875 -0.2705  0.2883
 3968SOL     OW14535   9.078   5.617   6.773 -0.3202 -0.4621 -0.2846
 3968SOL    HW114536   9.030   5.642   6.694 -1.4996  1.1857  0.8913
 3968SOL    HW214537   9.033   5.663   6.844  0.3590 -2.3257  1.4431
 3969SOL     OW14538   4.286   3.690   2.771  0.0001  0.5529 -0.3858
 3969SOL    HW114539   4.222   3.669   2.703 -0.6679  1.4369 -0.0569
 3969SOL    HW214540   4.337   3.610   2.782 -2.7437 -1.1376  1.1823
 3970SOL     OW14541   1.976   1.927   8.840 -0.2842 -0.3073 -0.0089
 3970SOL    HW114542   2.019   2.009   8.816  0.1267 -0.4863  0.1241
 3970SOL    HW214543   1.962   1.934   8.934 -2.5338  0.7033 -0.3502
 3971SOL     OW14544   4.335   0.402   7.953 -0.8058 -0.2259  0.0340
 3971SOL    HW114545   4.284   0.357   8.020  0.1700 -1.6960 -0.1735
 3971SOL    HW214546   4.395   0.336   7.918  0.1005  1.0106 -0.8932
 3972SOL     OW14547   0.581   3.344   4.394 -0.4973  0.1830  0.3266
 3972SOL    HW114548   0.670   3.351   4.359 -0.1484 -0.0907  1.1429
 3972SOL    HW214549   0.575   3.254   4.427 -1.8360 -0.5725 -1.7373
 3973SOL     OW14550   6.432   6.513   1.225 -0.2142 -0.5620  0.8658
 3973SOL    HW114551   6.500   6.452   1.195 -2.0553 -0.9828 -3.2046
 3973SOL    HW214552   6.451   6.595   1.179 -1.2129  0.0045  1.4093
 3974SOL     OW14553   8.820   4.427   7.326 -0.2591 -0.4457  0.4006
 3974SOL    HW114554   8.798   4.411   7.235  2.2093 -0.6484 -0.2235
 3974SOL    HW214555   8.825   4.340   7.365 -1.7978 -0.3412  0.9086
 3975SOL     OW14556   3.609   1.549  10.331 -0.4572 -0.0150  0.0787
 3975SOL    HW114557   3.578   1.506  10.411  0.7042 -0.9049  0.0794
 3975SOL    HW214558   3.619   1.641  10.356 -0.6741 -0.1782  0.7874
 3976SOL     OW14559   9.421   1.545   4.061  0.7641  0.1382  0.4993
 3976SOL    HW114560   9.362   1.578   4.129 -0.8010 -2.5050  0.5672
 3976SOL    HW214561   9.465   1.470   4.101  0.1805 -1.1788 -1.1971
 3977SOL     OW14562   7.980   2.194   1.871 -0.6556  1.0122  0.1413
 3977SOL    HW114563   8.039   2.138   1.921 -0.7766 -0.5686 -1.3931
 3977SOL    HW214564   8.038   2.248   1.817 -0.5624 -0.2969 -1.1106
 3978SOL     OW14565   7.855   9.667  10.060  0.1203  0.3027 -0.1457
 3978SOL    HW114566   7.881   9.582  10.023  0.3432  0.4206 -0.2607
 3978SOL    HW214567   7.873   9.730   9.991 -1.9207  0.2151 -0.8212
 3979SOL     OW14568   0.298   7.948   7.611 -0.0900 -0.5212 -0.3371
 3979SOL    HW114569   0.339   7.863   7.600  2.5380  0.7037 -0.8878
 3979SOL    HW214570   0.347   7.989   7.682 -1.3085  0.5154 -0.0665
 3980SOL     OW14571   2.091   0.755   7.329  0.1360 -0.7157 -0.4662
 3980SOL    HW114572   2.110   0.726   7.418 -1.1517 -2.1622 -0.6113
 3980SOL    HW214573   2.175   0.783   7.294  1.2500 -2.9842  0.2066
 3981SOL     OW14574   8.158   0.034   6.095  0.1089 -0.3480 -0.2352
 3981SOL    HW114575   8.090   0.080   6.145  0.4149 -0.7643  0.5823
 3981SOL    HW214576   8.110  -0.010   6.025 -0.3414  0.1630 -0.2518
 3982SOL     OW14577   6.792   7.279   6.189  0.2950 -0.0348  0.2394
 3982SOL    HW114578   6.784   7.184   6.174 -0.4738  0.0014  0.4021
 3982SOL    HW214579   6.742   7.295   6.269 -1.3533  0.8288 -0.9125
 3983SOL     OW14580   2.308   4.631   1.947 -0.2641 -0.0194  0.6223
 3983SOL    HW114581   2.292   4.570   2.019  0.4338 -1.5581 -0.4571
 3983SOL    HW214582   2.336   4.575   1.875 -2.1833  1.3049 -1.2768
 3984SOL     OW14583   6.632   3.046   4.385  0.0947  0.6136 -0.1222
 3984SOL    HW114584   6.624   3.141   4.384 -0.7327  0.5540 -0.5339
 3984SOL    HW214585   6.651   3.024   4.476 -0.3020  1.1394  0.0943
 3985SOL     OW14586   2.998   3.535   9.995  0.1873  0.3591  0.4988
 3985SOL    HW114587   2.957   3.555  10.079 -1.8772 -0.1044 -0.3289
 3985SOL    HW214588   2.940   3.470   9.955  0.2241  1.7163 -1.9472
 3986SOL     OW14589   4.700   4.823   9.323  0.3891 -0.4186  0.2492
 3986SOL    HW114590   4.643   4.748   9.308 -0.9948  1.0671 -3.0579
 3986SOL    HW214591   4.645   4.887   9.368  0.2168  0.0419 -0.5841
 3987SOL     OW14592   7.339   7.820   3.767 -0.5350 -0.1155  0.0570
 3987SOL    HW114593   7.318   7.909   3.795 -0.2671 -0.2878  0.8507
 3987SOL    HW214594   7.312   7.765   3.841  0.6989 -0.5391  0.2167
 3988SOL     OW14595   1.686   7.847   0.846 -0.5345 -0.0450  0.1777
 3988SOL    HW114596   1.612   7.837   0.786 -0.5360  0.3574  0.1125
 3988SOL    HW214597   1.645   7.867   0.931 -0.4777  1.0232 -0.0342
 3989SOL     OW14598   7.386   5.950   3.947  0.2609  0.1747  0.6177
 3989SOL    HW114599   7.296   5.922   3.930  0.0987 -0.4209  2.2788
 3989SOL    HW214600   7.382   5.996   4.031  1.2121  1.7934 -0.1842
 3990SOL     OW14601   7.969   5.872   1.918 -0.1897 -0.1790  0.4046
 3990SOL    HW114602   7.875   5.870   1.901 -0.0549  1.3413 -0.6513
 3990SOL    HW214603   7.983   5.953   1.968  0.7023  0.2180 -0.4652
 3991SOL     OW14604   5.291   8.792   1.744  0.1737 -0.3720  0.6240
 3991SOL    HW114605   5.285   8.886   1.759 -0.7440 -0.3249  0.0507
 3991SOL    HW214606   5.211   8.770   1.695  1.2205 -1.1258 -0.8526
 3992SOL     OW14607   2.556   7.264   6.450 -0.0118 -0.4454  0.2548
 3992SOL    HW114608   2.524   7.176   6.468  0.0294 -0.1103  2.1359
 3992SOL    HW214609   2.479   7.320   6.457  0.4037 -0.0234  1.7201
 3993SOL     OW14610   5.924   9.245   2.036  0.0948  0.0214 -0.6153
 3993SOL    HW114611   5.838   9.278   2.011  0.2028  0.3293 -0.5863
 3993SOL    HW214612   5.951   9.301   2.109  0.0239 -0.5180 -0.1735
 3994SOL     OW14613   9.449   6.817   2.585  0.3208  0.1340  0.0625
 3994SOL    HW114614   9.448   6.847   2.676  3.7729  3.2676 -0.6786
 3994SOL    HW214615   9.510   6.743   2.586  2.6328  1.8935  0.0885
 3995SOL     OW14616   2.040   7.649   6.932 -0.9097  0.2537 -0.4127
 3995SOL    HW114617   1.957   7.615   6.967 -1.4998  0.4169 -1.5867
 3995SOL    HW214618   2.086   7.572   6.901 -1.2560  0.2942 -1.0411
 3996SOL     OW14619   1.067   2.704   0.066 -0.1871 -0.3191  0.0210
 3996SOL    HW114620   0.995   2.701   0.129  0.5580 -1.1516  0.8573
 3996SOL    HW214621   1.114   2.622   0.079  0.6419  0.0053 -0.8369
 3997SOL     OW14622   1.575   3.064   2.033 -0.4511  0.7031 -0.1408
 3997SOL    HW114623   1.531   2.991   2.077  0.4075  0.5692  0.5084
 3997SOL    HW214624   1.564   3.044   1.939 -2.1757  0.9318 -0.0310
 3998SOL     OW14625   3.239   1.064   3.717 -0.4040 -0.0838  0.3432
 3998SOL    HW114626   3.241   1.141   3.661  2.3231  0.3600  0.8880
 3998SOL    HW214627   3.221   0.991   3.657 -0.3875  0.6788 -0.6140
 3999SOL     OW14628   3.273   8.331   6.346 -0.6228 -0.1192 -0.4617
 3999SOL    HW114629   3.197   8.276   6.324 -0.3274 -1.0005  0.6011
 3999SOL    HW214630   3.345   8.268   6.358 -0.3576  0.4448  1.1428
 4000SOL     OW14631   6.948   0.920   6.511 -0.5745  0.0776 -0.4023
 4000SOL    HW114632   6.853   0.910   6.516 -0.5856  0.3058 -0.1112
 4000SOL    HW214633   6.965   0.947   6.421 -0.7811  0.0123 -0.4620
 4001SOL     OW14634   5.541   1.456   1.656 -0.0244 -0.0818 -0.3627
 4001SOL    HW114635   5.488   1.382   1.625  0.3577 -0.3337 -0.4229
 4001SOL    HW214636   5.482   1.531   1.652 -0.5283 -0.4523  0.0547
 4002SOL     OW14637   3.079   0.920   7.735 -0.3597 -0.2574  0.2582
 4002SOL    HW114638   3.036   0.839   7.708  0.1288 -0.8933  1.3354
 4002SOL    HW214639   3.156   0.892   7.784  1.4016  0.8491 -1.6959
 4003SOL     OW14640   0.070   0.688   1.468 -0.3941 -0.3926  0.2885
 4003SOL    HW114641   0.120   0.634   1.529 -1.0069  0.4514  1.5686
 4003SOL    HW214642   0.134   0.718   1.404 -0.1040 -3.0710 -0.8543
 4004SOL     OW14643   7.206   1.111   6.427  0.2528  0.2118 -0.5720
 4004SOL    HW114644   7.179   1.106   6.336  1.2759 -1.6972 -0.8197
 4004SOL    HW214645   7.160   1.040   6.470  1.7816 -0.6071 -0.1937
 4005SOL     OW14646   8.850   9.165   4.313  0.0066 -0.1452 -0.2745
 4005SOL    HW114647   8.903   9.173   4.393 -0.8602  2.4227  0.1512
 4005SOL    HW214648   8.906   9.118   4.252  0.1096 -3.7097  2.2475
 4006SOL     OW14649   5.629   3.206   4.126  0.2740 -0.7358 -0.2852
 4006SOL    HW114650   5.591   3.224   4.040  0.7972 -0.2256 -0.4158
 4006SOL    HW214651   5.698   3.271   4.136 -1.3799  0.8450  1.5794
 4007SOL     OW14652   2.777   8.551   5.037 -0.3699 -0.6072 -0.6309
 4007SOL    HW114653   2.797   8.473   4.984  0.8705 -0.2732 -0.6991
 4007SOL    HW214654   2.814   8.624   4.986 -0.9360 -0.0438 -0.2506
 4008SOL     OW14655  10.198   2.867   6.782 -0.4508 -0.2329 -0.5465
 4008SOL    HW114656  10.278   2.859   6.731 -0.4847 -1.0413 -0.4914
 4008SOL    HW214657  10.218   2.931   6.850  0.3339 -0.8429 -0.1940
 4009SOL     OW14658   7.568   8.734   8.627 -0.4963  0.4380  0.1994
 4009SOL    HW114659   7.555   8.662   8.689 -1.4734 -0.7746 -1.3509
 4009SOL    HW214660   7.641   8.783   8.663 -1.4668  0.2122  2.6908
 4010SOL     OW14661   3.140   6.409   8.521 -0.1544  0.0209 -0.4868
 4010SOL    HW114662   3.067   6.463   8.552 -2.0532 -1.0510 -2.7835
 4010SOL    HW214663   3.141   6.421   8.426 -0.0596 -3.1444 -1.0173
 4011SOL     OW14664   8.346   4.279   2.779  0.3568 -0.0935 -0.3933
 4011SOL    HW114665   8.357   4.374   2.776 -2.6955  0.3501 -2.6170
 4011SOL    HW214666   8.297   4.263   2.859 -1.4473  0.6533 -1.2770
 4012SOL     OW14667   2.462   2.338   4.352  0.1559 -0.3475 -0.1904
 4012SOL    HW114668   2.468   2.288   4.434  0.8955 -2.7532 -1.6047
 4012SOL    HW214669   2.503   2.422   4.373  0.8807 -1.1036  1.7525
 4013SOL     OW14670   7.056   1.151   8.417 -0.1696  0.0439  0.0306
 4013SOL    HW114671   7.097   1.204   8.485  2.1518  1.1335 -2.0748
 4013SOL    HW214672   6.992   1.210   8.377  0.0344  0.1290 -0.1664
 4014SOL     OW14673   5.493   4.474   7.852  0.3104 -0.0340  0.6092
 4014SOL    HW114674   5.513   4.451   7.943  0.3245  2.2437  1.2299
 4014SOL    HW214675   5.402   4.505   7.854 -0.5424 -2.1922 -0.6410
 4015SOL     OW14676   4.100   7.377   6.096 -0.0750  0.0114 -0.3697
 4015SOL    HW114677   4.050   7.459   6.100  0.1825  0.2223 -1.2513
 4015SOL    HW214678   4.053   7.317   6.154 -1.0636  0.3660 -0.7826
 4016SOL     OW14679   4.759   7.657   0.726 -0.7703  0.3495 -0.2056
 4016SOL    HW114680   4.728   7.739   0.689  0.1891  2.2133  2.8085
 4016SOL    HW214681   4.852   7.654   0.703 -0.8845 -0.1288 -0.6352
 4017SOL     OW14682   0.850   0.024   4.959 -0.4285 -0.3218 -0.5371
 4017SOL    HW114683   0.839   0.119   4.973 -0.5200 -0.1820 -1.5018
 4017SOL    HW214684   0.760  -0.009   4.952 -0.3921 -0.4509 -0.3883
 4018SOL     OW14685   6.394   3.970   5.231  0.1824  0.3758  0.4408
 4018SOL    HW114686   6.406   3.886   5.275  0.8926  0.5733  0.6450
 4018SOL    HW214687   6.465   3.974   5.166  1.8719  1.9435  2.2231
 4019SOL     OW14688   5.067   8.478   2.274 -0.0621  0.4911  0.1446
 4019SOL    HW114689   5.073   8.500   2.367  0.3574 -0.4366  0.3479
 4019SOL    HW214690   4.977   8.448   2.263  0.4769 -1.4910  0.7530
 4020SOL     OW14691   0.317   8.138   3.620  0.1444 -0.9767 -0.5186
 4020SOL    HW114692   0.395   8.171   3.577 -0.1674 -1.7960 -1.8094
 4020SOL    HW214693   0.341   8.127   3.712  1.3882 -0.7667 -0.8111
 4021SOL     OW14694   3.902   4.312   2.792  1.1163  0.1411  0.0667
 4021SOL    HW114695   3.846   4.347   2.862  0.6562 -1.0668  0.3355
 4021SOL    HW214696   3.946   4.238   2.833  0.1922 -1.1190 -1.1322
 4022SOL     OW14697   1.159   7.346   6.195 -0.0329 -0.0653 -0.2947
 4022SOL    HW114698   1.201   7.272   6.239  0.2204  1.3414  1.9831
 4022SOL    HW214699   1.088   7.372   6.254 -1.6204  0.0799 -2.1805
 4023SOL     OW14700   9.206   8.151   4.771 -0.4854 -0.1383 -0.2127
 4023SOL    HW114701   9.137   8.197   4.820 -0.4136  0.1888 -0.4126
 4023SOL    HW214702   9.233   8.080   4.828 -0.3404  0.2900  0.2605
 4024SOL     OW14703   7.088   9.244   0.175  0.8652  0.0301  0.3582
 4024SOL    HW114704   7.047   9.259   0.090 -0.8301  0.9005  1.3003
 4024SOL    HW214705   7.041   9.169   0.211  0.3935  0.7543  1.2614
 4025SOL     OW14706   6.170   6.865   1.675  0.2182  0.0858 -0.1737
 4025SOL    HW114707   6.197   6.777   1.701 -0.0411 -0.1749 -0.7864
 4025SOL    HW214708   6.252   6.912   1.658  0.3224 -0.5242 -1.4526
 4026SOL     OW14709   9.505   8.172   4.524  0.3112  0.6685  0.2562
 4026SOL    HW114710   9.445   8.117   4.474 -0.6373  0.7055  1.3099
 4026SOL    HW214711   9.539   8.235   4.461 -0.7045  0.5934 -0.3784
 4027SOL     OW14712   6.685   7.361   0.684 -0.2924  0.2115  0.2801
 4027SOL    HW114713   6.597   7.374   0.649  0.7984  1.8205 -2.1298
 4027SOL    HW214714   6.675   7.373   0.779 -2.6673  0.1901  0.0924
 4028SOL     OW14715   3.971   3.270   9.949  0.7928  0.2258 -0.2614
 4028SOL    HW114716   4.032   3.342   9.934  1.1759  0.0302  0.3216
 4028SOL    HW214717   3.950   3.275  10.042  0.1315  0.1180 -0.3995
 4029SOL     OW14718   7.951   5.106   7.287  0.2589  0.1789 -0.1756
 4029SOL    HW114719   7.857   5.119   7.280  0.0366 -0.0876  1.7402
 4029SOL    HW214720   7.981   5.175   7.346  0.4604 -2.3248  2.9219
 4030SOL     OW14721   3.384   5.025   8.424  0.2650 -0.6401 -0.0340
 4030SOL    HW114722   3.320   4.990   8.485 -0.7595 -0.8039 -1.1523
 4030SOL    HW214723   3.464   5.035   8.475 -0.3762 -1.3797  1.1505
 4031SOL     OW14724   2.185   9.227   1.360  0.6162 -0.2158  0.3191
 4031SOL    HW114725   2.270   9.200   1.326  0.9577  0.2233  0.8159
 4031SOL    HW214726   2.145   9.276   1.288  0.0875 -1.7834 -0.5064
 4032SOL     OW14727   3.680  10.143   2.803  0.5264  0.7413 -0.0429
 4032SOL    HW114728   3.771  10.168   2.817  0.8174 -0.4936  0.3910
 4032SOL    HW214729   3.670  10.061   2.851 -1.2049  1.5634  1.1100
 4033SOL     OW14730  10.041   2.153   2.843  0.2395 -0.0627  0.1173
 4033SOL    HW114731  10.021   2.191   2.758  0.6239 -0.3229 -0.0941
 4033SOL    HW214732   9.991   2.205   2.905 -0.4666 -0.2109 -0.3194
 4034SOL     OW14733   5.019   7.677   6.023  0.7620 -0.4014  0.3990
 4034SOL    HW114734   4.987   7.681   5.933  0.9982 -2.3194  0.1782
 4034SOL    HW214735   4.970   7.745   6.069 -0.9483 -0.8196 -0.7094
 4035SOL     OW14736   9.635   6.546   3.452 -0.3168  0.0374  0.0224
 4035SOL    HW114737   9.592   6.630   3.434  0.5394  1.2454  2.9482
 4035SOL    HW214738   9.728   6.564   3.438 -0.1820 -0.5800  0.1162
 4036SOL     OW14739   0.644   4.933   3.048  0.8651  0.1102 -0.4337
 4036SOL    HW114740   0.614   4.860   3.102 -0.2813 -0.2092 -1.4628
 4036SOL    HW214741   0.734   4.911   3.027  0.8210 -0.5483  0.0184
 4037SOL     OW14742   7.008   5.192   3.300 -0.2548 -0.2061  0.0323
 4037SOL    HW114743   7.008   5.166   3.393  0.3600  1.3851  0.5099
 4037SOL    HW214744   6.916   5.213   3.282 -0.0711  1.7639  1.0191
 4038SOL     OW14745   2.550   3.956   1.211 -0.0160  0.0352  0.1354
 4038SOL    HW114746   2.457   3.975   1.211 -0.5762 -2.4686  0.0503
 4038SOL    HW214747   2.587   4.016   1.145 -1.7038  0.3847 -0.5270
 4039SOL     OW14748   1.348   8.340   1.327  0.6451 -0.1953 -0.0459
 4039SOL    HW114749   1.383   8.348   1.416  1.4257  0.5757 -0.4114
 4039SOL    HW214750   1.336   8.430   1.297 -1.1708 -0.4439 -0.1418
 4040SOL     OW14751   5.861   6.576   3.920 -0.6996  0.0160 -0.3141
 4040SOL    HW114752   5.787   6.612   3.968  0.3338  0.6179  0.8748
 4040SOL    HW214753   5.826   6.498   3.876 -1.4621 -1.1696  2.2450
 4041SOL     OW14754   8.426   7.633   9.351  0.5225 -0.4179 -0.1894
 4041SOL    HW114755   8.420   7.724   9.322  2.7947 -0.4845 -1.0622
 4041SOL    HW214756   8.411   7.637   9.446 -3.8445  0.1983 -0.7146
 4042SOL     OW14757   9.246   6.375   6.086  0.4427  0.5193 -0.2174
 4042SOL    HW114758   9.295   6.406   6.009  1.3024 -0.8219 -0.2481
 4042SOL    HW214759   9.188   6.448   6.108 -1.0707  0.3775 -3.1516
 4043SOL     OW14760   5.705   8.705   9.572  0.4532 -0.0203  0.0673
 4043SOL    HW114761   5.611   8.697   9.588  0.4835 -1.0674 -0.2013
 4043SOL    HW214762   5.746   8.651   9.640  0.7396 -1.5003 -1.2162
 4044SOL     OW14763   1.931   7.111   6.211  0.0718 -0.0952  0.4005
 4044SOL    HW114764   1.906   7.028   6.171 -0.4730  1.0211 -1.6723
 4044SOL    HW214765   1.848   7.151   6.237  0.2742  0.1663  0.6467
 4045SOL     OW14766   2.817   7.551   9.710  0.0564 -0.0105  0.3074
 4045SOL    HW114767   2.747   7.569   9.648 -0.8314  0.7931  1.5116
 4045SOL    HW214768   2.798   7.464   9.744 -1.1297  0.7135  1.5842
 4046SOL     OW14769   0.531   9.023   6.998  0.5450 -0.6682 -0.4094
 4046SOL    HW114770   0.464   8.960   7.022  1.4239 -1.5507 -0.2138
 4046SOL    HW214771   0.482   9.099   6.966 -0.5050 -1.8647 -1.7525
 4047SOL     OW14772   1.097   6.118   9.464  0.1438  0.0375  0.2022
 4047SOL    HW114773   1.036   6.092   9.533  1.8674  0.4689  1.9905
 4047SOL    HW214774   1.057   6.088   9.383 -1.7090 -0.9897  1.4389
 4048SOL     OW14775   4.110  10.213   3.857  0.2706 -0.3844 -0.2761
 4048SOL    HW114776   4.135  10.291   3.806  1.4368 -0.6349 -0.1059
 4048SOL    HW214777   4.192  10.179   3.892 -0.4726 -0.3203  1.6625
 4049SOL     OW14778   5.458   6.745   0.209  0.1728 -0.0110 -0.2806
 4049SOL    HW114779   5.542   6.786   0.189  0.7749 -1.2145 -0.3183
 4049SOL    HW214780   5.459   6.731   0.304 -0.2017  0.4078 -0.2090
 4050SOL     OW14781   0.695   2.910   3.646 -0.1389 -0.2945 -0.4014
 4050SOL    HW114782   0.603   2.913   3.618 -0.4561 -0.5421  0.5829
 4050SOL    HW214783   0.722   3.002   3.648 -1.1740  0.0385  1.8065
 4051SOL     OW14784   6.445   3.939   8.144  0.1455  0.0639 -0.0539
 4051SOL    HW114785   6.421   3.868   8.203  0.3333  0.6471  0.7483
 4051SOL    HW214786   6.477   4.008   8.202  2.6210 -0.2191 -0.9597
 4052SOL     OW14787   8.348   4.254   9.802 -0.3339 -0.0521  0.4689
 4052SOL    HW114788   8.430   4.216   9.769 -0.3496 -0.6401  1.0773
 4052SOL    HW214789   8.280   4.214   9.749 -0.3643 -1.0479  1.2285
 4053SOL     OW14790   2.027   6.399   4.139  0.0836  0.4932  0.1414
 4053SOL    HW114791   2.093   6.409   4.070  3.0049 -0.1486  2.6702
 4053SOL    HW214792   2.003   6.307   4.136  0.5668  0.3636  0.3119
 4054SOL     OW14793   5.256   3.597   4.881  0.1669  0.4628  0.8630
 4054SOL    HW114794   5.290   3.587   4.970 -1.1182  0.1736  1.3458
 4054SOL    HW214795   5.169   3.636   4.893 -0.0847  0.2705 -0.2598
 4055SOL     OW14796   0.000   5.006   6.673  0.1059  0.8863  0.0574
 4055SOL    HW114797   0.065   5.048   6.617 -0.3029  0.7222 -0.5500
 4055SOL    HW214798   0.046   4.990   6.755  1.7883 -1.8882 -1.2816
 4056SOL     OW14799   6.028   6.253   1.446 -0.6366  0.0731 -0.3217
 4056SOL    HW114800   6.049   6.285   1.534 -0.2535 -1.9845  0.3886
 4056SOL    HW214801   6.113   6.247   1.401 -0.4222 -1.7389  0.2373
 4057SOL     OW14802  10.069   3.563   6.321  0.3589 -0.5778  0.7105
 4057SOL    HW114803  10.051   3.545   6.229  1.4842 -1.8302  0.6941
 4057SOL    HW214804  10.132   3.635   6.319 -0.3725  0.0675  0.5542
 4058SOL     OW14805   5.899   8.445   6.752 -0.6444  0.1545  0.0790
 4058SOL    HW114806   5.908   8.431   6.658 -0.4159  2.0385 -0.2039
 4058SOL    HW214807   5.920   8.537   6.765  0.9753 -0.4484  2.2018
 4059SOL     OW14808   6.143   5.706   8.794  0.3931  0.1076 -0.3237
 4059SOL    HW114809   6.199   5.641   8.836  0.6673  0.5360 -0.0112
 4059SOL    HW214810   6.087   5.738   8.864 -0.0460 -0.1117 -0.5746
 4060SOL     OW14811   1.020   5.480   0.169  0.2049  1.1257  0.5751
 4060SOL    HW114812   0.991   5.406   0.222  0.8239  0.3864 -0.0868
 4060SOL    HW214813   1.114   5.464   0.155  0.5153  2.4116  1.0149
 4061SOL     OW14814   4.057   9.433   9.921 -0.3490 -0.4184 -0.0335
 4061SOL    HW114815   4.007   9.354   9.937 -0.7727 -0.2236 -0.3808
 4061SOL    HW214816   4.049   9.484  10.002 -0.6218 -0.4357 -0.0501
 4062SOL     OW14817   6.111   1.926   4.229  0.7296 -0.2331 -0.1917
 4062SOL    HW114818   6.037   1.977   4.263  0.6201 -0.7338  0.3321
 4062SOL    HW214819   6.174   1.924   4.301 -0.0355 -2.3600  0.4736
 4063SOL     OW14820   4.660   6.276   7.815  0.0605 -0.1638  0.5956
 4063SOL    HW114821   4.567   6.291   7.795  0.2310  1.1231  0.6985
 4063SOL    HW214822   4.685   6.202   7.759 -0.9154 -0.2428  0.2524
 4064SOL     OW14823   6.828   0.243   8.735 -0.3336 -0.2112 -0.6014
 4064SOL    HW114824   6.758   0.183   8.762 -1.2293 -0.0061 -2.3474
 4064SOL    HW214825   6.909   0.195   8.753 -0.9691 -1.1238 -0.0921
 4065SOL     OW14826   9.260  10.107   2.527  0.1718 -0.3101 -0.7185
 4065SOL    HW114827   9.198  10.047   2.485  1.5424 -0.8931 -1.9742
 4065SOL    HW214828   9.283  10.169   2.458  0.1520  0.5791  0.0573
 4066SOL     OW14829   1.374   0.247   6.992 -0.5234 -0.7490 -0.2442
 4066SOL    HW114830   1.349   0.337   7.015 -1.4297 -0.9893 -0.2881
 4066SOL    HW214831   1.318   0.224   6.918 -2.0963 -2.2521  1.3440
 4067SOL     OW14832   7.516   9.661   3.735 -0.2348 -0.0840  0.0677
 4067SOL    HW114833   7.551   9.739   3.779  0.4622 -0.2752 -0.1391
 4067SOL    HW214834   7.428   9.687   3.707 -0.4747  0.2310  1.0654
 4068SOL     OW14835   5.257   9.915   3.056  0.0634  0.1901  0.0419
 4068SOL    HW114836   5.246   9.899   3.150  2.2289 -2.0418  0.0334
 4068SOL    HW214837   5.179   9.964   3.030 -0.7345  0.6396  2.9231
 4069SOL     OW14838   6.385   0.537   4.833 -0.2208  0.6114 -0.0068
 4069SOL    HW114839   6.424   0.623   4.816 -0.6172  1.1278  1.5639
 4069SOL    HW214840   6.296   0.543   4.799  0.3203  0.1639 -1.5968
 4070SOL     OW14841  10.088   4.022   7.563  0.0099  0.3389  0.0251
 4070SOL    HW114842  10.026   4.071   7.509 -0.1792 -0.2331 -0.2874
 4070SOL    HW214843  10.034   3.967   7.619  0.2262  0.0783 -0.0172
 4071SOL     OW14844   1.680   5.113   3.055  0.5215  0.5910  0.3694
 4071SOL    HW114845   1.597   5.139   3.096  0.7950  0.1631  1.2314
 4071SOL    HW214846   1.655   5.077   2.970 -0.2842 -0.4492  1.0177
 4072SOL     OW14847   1.546   0.154   7.598  0.4863 -0.1538 -0.4514
 4072SOL    HW114848   1.515   0.065   7.583 -0.6568  0.1086  0.2158
 4072SOL    HW214849   1.477   0.195   7.652  1.5027  0.7896  0.1831
 4073SOL     OW14850   8.678   1.998   7.028 -0.6810 -0.1671  0.1069
 4073SOL    HW114851   8.634   1.926   6.982 -2.6388  0.6160  0.6340
 4073SOL    HW214852   8.632   2.077   6.998  1.5771  0.9391 -0.6642
 4074SOL     OW14853   8.384   3.454   5.565  0.2009  0.4190  0.1000
 4074SOL    HW114854   8.369   3.476   5.657  0.8249  1.3585 -0.0022
 4074SOL    HW214855   8.422   3.534   5.528  1.5098 -0.4866 -0.5791
 4075SOL     OW14856   4.112   5.270   6.927  0.8418 -0.2666  0.0653
 4075SOL    HW114857   4.076   5.288   7.014  0.4929  1.8263 -0.4627
 4075SOL    HW214858   4.185   5.332   6.918  0.0499  0.4905 -1.6130
 4076SOL     OW14859   3.991   1.320   0.345 -0.1968  0.4824 -0.2583
 4076SOL    HW114860   3.940   1.245   0.374  1.4274 -0.0311  1.5017
 4076SOL    HW214861   3.938   1.396   0.370 -0.7945 -0.0536  0.1343
 4077SOL     OW14862   9.016   0.560   6.142 -0.2979  0.2948  0.2568
 4077SOL    HW114863   9.036   0.641   6.095  1.1218  0.7387  1.5370
 4077SOL    HW214864   9.095   0.507   6.133 -0.4516 -0.1008  1.1003
 4078SOL     OW14865   0.711   4.878   9.403  0.3278  0.1982  0.1542
 4078SOL    HW114866   0.784   4.819   9.388  1.6748  1.7843  0.1408
 4078SOL    HW214867   0.689   4.867   9.495  1.0741  0.2320  0.3378
 4079SOL     OW14868   1.852   2.132   9.921  0.0326  0.0189 -0.1045
 4079SOL    HW114869   1.760   2.137   9.947 -0.0976  0.9189 -0.6943
 4079SOL    HW214870   1.871   2.217   9.882  1.6006  0.4490  1.4804
 4080SOL     OW14871   4.234   6.267   4.151  0.2290 -0.0082  0.2520
 4080SOL    HW114872   4.244   6.336   4.216 -1.5317  1.4578 -0.9031
 4080SOL    HW214873   4.164   6.211   4.186 -0.5141  0.6138 -0.1963
 4081SOL     OW14874   2.580   7.097   4.278  0.3313 -0.0212 -0.2938
 4081SOL    HW114875   2.600   7.072   4.369 -0.6786  2.2754  0.6340
 4081SOL    HW214876   2.495   7.140   4.284  1.9594  3.7377 -1.6111
 4082SOL     OW14877   7.875   2.871  10.097 -0.7131 -0.3290  0.5289
 4082SOL    HW114878   7.803   2.823  10.056 -2.4255  2.2561  0.2915
 4082SOL    HW214879   7.923   2.804  10.147 -1.1071 -2.8049 -2.1141
 4083SOL     OW14880   3.351   4.400   4.167  0.1994  0.3022  0.0745
 4083SOL    HW114881   3.426   4.397   4.227  2.1315  1.5400 -2.1254
 4083SOL    HW214882   3.340   4.493   4.147 -2.0227  0.1600  0.3882
 4084SOL     OW14883   5.540   8.774   0.165 -0.1339 -0.2344  0.3749
 4084SOL    HW114884   5.461   8.817   0.133 -0.6054 -0.2169  1.5335
 4084SOL    HW214885   5.599   8.845   0.189  0.6083 -0.2368 -1.3106
 4085SOL     OW14886   7.642   4.643   6.873  0.0308  0.3338  0.0883
 4085SOL    HW114887   7.573   4.593   6.917  1.5180  0.8629  3.3176
 4085SOL    HW214888   7.622   4.734   6.894  0.3694  0.6856 -1.0794
 4086SOL     OW14889   5.903   2.347   9.170 -0.1030 -0.2710 -0.0438
 4086SOL    HW114890   5.898   2.309   9.258 -1.0587  2.4919  1.1970
 4086SOL    HW214891   5.874   2.277   9.112 -0.8664 -1.7118  1.9649
 4087SOL     OW14892   0.427   5.241   1.994 -0.1124  0.0145  0.1925
 4087SOL    HW114893   0.507   5.204   1.956 -0.9632 -0.5279 -1.1651
 4087SOL    HW214894   0.356   5.203   1.941 -1.2340  0.8930  1.0224
 4088SOL     OW14895   2.413   1.967   5.085  0.1216 -0.4682 -0.8396
 4088SOL    HW114896   2.411   2.034   5.154 -0.3051 -0.7190 -0.6054
 4088SOL    HW214897   2.326   1.973   5.045  1.0586  1.1918 -2.8239
 4089SOL     OW14898   7.034   4.539   2.349 -0.4467  0.4180 -0.1994
 4089SOL    HW114899   7.098   4.563   2.282 -0.1498  0.8945  0.2460
 4089SOL    HW214900   7.061   4.452   2.378 -1.9461 -0.8532 -2.3312
 4090SOL     OW14901   4.117   7.634   4.690 -0.5328  0.3890  0.2869
 4090SOL    HW114902   4.173   7.556   4.691  0.6679  1.1992 -0.4930
 4090SOL    HW214903   4.052   7.617   4.621 -0.2272  0.1064  0.0664
 4091SOL     OW14904   1.873   8.159   1.095  0.5301 -0.4987 -0.0648
 4091SOL    HW114905   1.879   8.111   1.013  1.5014 -0.6492  0.0880
 4091SOL    HW214906   1.801   8.220   1.081 -1.3409 -2.5612  0.0419
 4092SOL     OW14907   1.001   2.288   6.616 -0.0544 -0.2270  0.9117
 4092SOL    HW114908   0.945   2.321   6.546  0.0353  0.6106  1.2223
 4092SOL    HW214909   0.945   2.289   6.694  0.2550  0.1803  1.1308
 4093SOL     OW14910   6.657   2.530   7.194  0.2441 -0.2604 -0.4828
 4093SOL    HW114911   6.616   2.482   7.122 -1.3022 -0.1298  0.2691
 4093SOL    HW214912   6.665   2.466   7.265 -1.9912  0.5093  0.5890
 4094SOL     OW14913   6.170   3.940   5.728  0.3296  0.5898 -0.3000
 4094SOL    HW114914   6.233   3.910   5.662  0.6380  1.8543 -0.6135
 4094SOL    HW214915   6.221   3.945   5.809  0.5943  1.3923 -0.5049
 4095SOL     OW14916   0.980   9.576   5.958 -0.3268 -0.4925  0.4443
 4095SOL    HW114917   1.053   9.565   5.896 -0.7631 -1.8578  0.1502
 4095SOL    HW214918   0.903   9.546   5.910 -0.7379 -1.1990  1.5160
 4096SOL     OW14919   0.377   4.594   1.933  0.2852  0.2462  0.1234
 4096SOL    HW114920   0.361   4.527   1.867  2.7426  1.7241 -2.1831
 4096SOL    HW214921   0.297   4.647   1.933 -0.8182 -1.3547  0.3851
 4097SOL     OW14922   3.422   7.842   6.654 -0.0341 -0.1034  0.1280
 4097SOL    HW114923   3.422   7.913   6.590  0.6054 -0.8016 -0.6786
 4097SOL    HW214924   3.377   7.878   6.730  1.3066  1.5772  0.1946
 4098SOL     OW14925  10.082   9.759   2.637 -0.2201  0.0968  0.4876
 4098SOL    HW114926  10.096   9.717   2.552 -0.4328  0.9696  0.0011
 4098SOL    HW214927  10.155   9.820   2.645  1.8865 -2.4918  2.6140
 4099SOL     OW14928   8.542   5.823   8.016  0.0498  0.1397 -0.0976
 4099SOL    HW114929   8.607   5.872   8.067 -1.6477  1.3058  1.0553
 4099SOL    HW214930   8.466   5.815   8.074 -1.0071 -0.8163 -1.5249
 4100SOL     OW14931   5.273   6.569   9.758 -0.3916 -0.5629 -0.6271
 4100SOL    HW114932   5.299   6.647   9.808  0.5668 -1.7313  0.7612
 4100SOL    HW214933   5.179   6.582   9.743 -0.6491  0.0272  1.1647
 4101SOL     OW14934   7.643   0.236   4.317 -0.3656  0.3380 -0.2900
 4101SOL    HW114935   7.618   0.270   4.231  2.8293  3.3239 -0.2423
 4101SOL    HW214936   7.681   0.150   4.299  1.0430  1.2709 -2.0521
 4102SOL     OW14937   5.354   4.490   4.961 -0.6283 -0.2034 -0.7545
 4102SOL    HW114938   5.304   4.506   4.881 -3.1184 -0.1041  0.7116
 4102SOL    HW214939   5.296   4.518   5.031  1.3020 -0.6815  1.1294
 4103SOL     OW14940   6.175   0.793   7.071 -0.0898  0.4108 -0.8416
 4103SOL    HW114941   6.165   0.776   7.165 -2.9491  1.0637 -0.9160
 4103SOL    HW214942   6.166   0.708   7.030  0.4352  0.2132 -0.5480
 4104SOL     OW14943   7.639   6.250   7.589  0.4145  0.6900  0.0377
 4104SOL    HW114944   7.732   6.273   7.588  0.0901  2.3080  1.6323
 4104SOL    HW214945   7.602   6.303   7.660 -1.4774 -0.9315  0.3391
 4105SOL     OW14946   7.380   0.141   9.528 -0.3527 -0.1338 -0.4081
 4105SOL    HW114947   7.351   0.212   9.470  1.7046  2.1496  1.1038
 4105SOL    HW214948   7.302   0.118   9.578 -0.8413  2.1061  0.0022
 4106SOL     OW14949   7.804   0.031   8.122  0.0935 -0.4655  0.3938
 4106SOL    HW114950   7.899   0.016   8.126  0.0738 -0.4544  0.9807
 4106SOL    HW214951   7.796   0.124   8.098  0.2130 -0.9336 -1.6940
 4107SOL     OW14952   2.758   0.525   1.195 -0.1689  0.0859  0.1008
 4107SOL    HW114953   2.699   0.516   1.270 -0.8895  0.0240 -0.4594
 4107SOL    HW214954   2.838   0.562   1.231 -1.1903  1.9354  0.5967
 4108SOL     OW14955   8.319   7.902   9.711 -0.4061 -0.2068 -0.2904
 4108SOL    HW114956   8.334   7.967   9.642 -1.0257  0.3133  0.0638
 4108SOL    HW214957   8.235   7.863   9.690 -0.3785 -0.3810 -0.0852
 4109SOL     OW14958   3.833   8.263   6.434  0.8767 -0.3883  0.4272
 4109SOL    HW114959   3.788   8.290   6.515 -0.0096 -0.5409  0.0021
 4109SOL    HW214960   3.824   8.168   6.432 -1.8069 -0.2266 -1.3098
 4110SOL     OW14961   2.152   6.614   3.177  0.1111 -0.1704  0.4757
 4110SOL    HW114962   2.124   6.625   3.086  0.5632 -0.1134  0.3440
 4110SOL    HW214963   2.080   6.650   3.229 -0.5009 -0.9131  0.1636
 4111SOL     OW14964   7.920   6.813   2.605 -0.5729  0.2777  0.0897
 4111SOL    HW114965   8.002   6.769   2.628 -0.4121  1.1214  1.2140
 4111SOL    HW214966   7.915   6.806   2.510 -0.6544 -2.2996  0.2202
 4112SOL     OW14967   7.601   6.638   8.587 -0.3094 -0.2303  0.1738
 4112SOL    HW114968   7.571   6.564   8.641 -2.0646 -0.2922 -0.8217
 4112SOL    HW214969   7.521   6.677   8.553  0.6864  0.8521 -1.0265
 4113SOL     OW14970   9.578   2.583   6.378  0.3451  0.3393 -0.4288
 4113SOL    HW114971   9.598   2.541   6.462  0.0255  0.3144 -0.3628
 4113SOL    HW214972   9.490   2.620   6.391 -0.4738 -1.1619 -1.3023
 4114SOL     OW14973   5.241   0.505   8.997  0.3344  0.0575  0.3092
 4114SOL    HW114974   5.332   0.480   9.011  0.4391  0.1979 -0.1106
 4114SOL    HW214975   5.240   0.543   8.910  0.2671  1.9626  1.0897
 4115SOL     OW14976   6.568   6.589   8.500  0.6890 -0.0282  0.2072
 4115SOL    HW114977   6.653   6.597   8.544  1.6215 -0.8295 -1.3609
 4115SOL    HW214978   6.587   6.610   8.408 -0.7324 -0.6464 -0.2489
 4116SOL     OW14979   3.782   5.408   5.246  0.2647 -0.0182 -0.1252
 4116SOL    HW114980   3.708   5.466   5.265 -0.1314 -0.9374  1.2296
 4116SOL    HW214981   3.795   5.417   5.151 -0.2265  1.7463 -0.0605
 4117SOL     OW14982   6.519  10.033   6.563 -0.3076 -0.0416 -0.1206
 4117SOL    HW114983   6.519  10.071   6.651  0.6540 -0.4974  0.0863
 4117SOL    HW214984   6.462   9.956   6.570 -1.0786  0.5086 -0.1757
 4118SOL     OW14985   7.238   2.836   1.337 -0.0602  0.1540 -0.5204
 4118SOL    HW114986   7.170   2.882   1.288 -0.4345 -1.1320 -1.2754
 4118SOL    HW214987   7.319   2.854   1.289 -0.0335  0.8600 -0.2114
 4119SOL     OW14988   1.848   0.555   5.780 -0.6558  0.6012  0.1089
 4119SOL    HW114989   1.872   0.608   5.857  0.5562  0.2932 -0.0342
 4119SOL    HW214990   1.843   0.617   5.708  0.4154  0.5968  0.0123
 4120SOL     OW14991   8.968   3.070   0.386 -0.2266  0.4183 -0.2315
 4120SOL    HW114992   8.960   3.110   0.299 -0.5500 -0.0921 -0.4388
 4120SOL    HW214993   8.886   3.022   0.398  1.0182 -2.0782 -0.9569
 4121SOL     OW14994   1.357   1.122   8.594  0.3593  0.3202  0.5760
 4121SOL    HW114995   1.413   1.191   8.559 -0.6165  0.5288 -0.6932
 4121SOL    HW214996   1.382   1.044   8.544  0.2058  0.1890  0.7047
 4122SOL     OW14997   9.333   0.605   3.809  0.0762 -0.2644 -0.0269
 4122SOL    HW114998   9.360   0.537   3.872  1.4664 -0.2351 -0.5596
 4122SOL    HW214999   9.352   0.687   3.854  1.1066 -0.2433 -0.4815
 4123SOL     OW15000   3.557   3.929   6.549  0.0991  0.2485  0.1453
 4123SOL    HW115001   3.539   3.858   6.611 -0.9522 -1.0942 -1.5964
 4123SOL    HW215002   3.485   3.991   6.561 -0.7001 -0.5383 -0.4202
 4124SOL     OW15003   6.601   0.809   0.711  0.2676  0.0208 -0.5087
 4124SOL    HW115004   6.635   0.754   0.783  0.2075  0.5289 -0.0874
 4124SOL    HW215005   6.528   0.758   0.676 -0.4022  0.2434  0.5060
 4125SOL     OW15006   3.102   6.451   4.344  0.4746  0.1649 -0.1189
 4125SOL    HW115007   3.112   6.400   4.264  2.4660  0.3822 -0.0543
 4125SOL    HW215008   3.108   6.387   4.414  2.3857  0.3753 -0.0566
 4126SOL     OW15009   0.313   8.476   2.330  0.0837  0.5844 -0.1288
 4126SOL    HW115010   0.396   8.470   2.284 -0.8704 -1.1526 -1.7224
 4126SOL    HW215011   0.317   8.407   2.396 -0.5542 -0.3114 -1.0139
 4127SOL     OW15012   9.532   3.978   4.162  0.3066  0.1160  0.0089
 4127SOL    HW115013   9.509   3.897   4.208  0.8277  0.6544  1.2623
 4127SOL    HW215014   9.501   3.964   4.072  1.1351 -1.8036 -0.0273
 4128SOL     OW15015   7.642   0.719   8.285  0.0597 -0.2305 -0.2024
 4128SOL    HW115016   7.570   0.665   8.253  0.0873  0.4830 -1.5302
 4128SOL    HW215017   7.601   0.802   8.310  0.4778  0.5021 -1.7821
 4129SOL     OW15018   0.176   8.890   0.935  0.0190 -0.3175 -0.0452
 4129SOL    HW115019   0.227   8.952   0.883 -0.0016  0.0239  0.3418
 4129SOL    HW215020   0.091   8.931   0.946 -1.4037 -2.1110 -3.1415
 4130SOL     OW15021   5.559   9.372   5.404  0.9931  0.3162 -0.5392
 4130SOL    HW115022   5.560   9.337   5.315  1.0231  0.6566 -0.6761
 4130SOL    HW215023   5.532   9.299   5.459 -0.5759  0.5049 -1.0152
 4131SOL     OW15024   4.430   0.662   1.344 -0.2149 -0.0479  0.4999
 4131SOL    HW115025   4.477   0.579   1.354  0.7766  0.6062  1.5770
 4131SOL    HW215026   4.492   0.728   1.376 -0.3625  1.3097 -1.7569
 4132SOL     OW15027   2.491   4.737   6.056  0.0869 -0.2546  0.1766
 4132SOL    HW115028   2.578   4.770   6.033  0.4162 -1.4956 -0.3871
 4132SOL    HW215029   2.489   4.648   6.023 -1.6496 -0.0312 -0.4068
 4133SOL     OW15030   6.882   9.198   8.066 -0.2895 -0.1666  0.2092
 4133SOL    HW115031   6.973   9.173   8.050  0.2261  0.5901  1.7013
 4133SOL    HW215032   6.876   9.204   8.162 -2.3204 -1.6510  0.2440
 4134SOL     OW15033   6.747   5.928   2.021  0.0432 -0.2900  0.4539
 4134SOL    HW115034   6.717   6.000   1.965  1.6132 -0.8458 -1.1725
 4134SOL    HW215035   6.679   5.862   2.014 -0.7965  0.4976  0.9385
 4135SOL     OW15036   9.357   8.886   9.543  0.0251 -1.0422 -0.0992
 4135SOL    HW115037   9.325   8.948   9.609  1.0293 -0.0687 -0.4892
 4135SOL    HW215038   9.372   8.805   9.592 -2.4491 -1.4050  0.1870
 4136SOL     OW15039   1.721   8.011   4.187 -0.9454 -0.6821  0.1094
 4136SOL    HW115040   1.689   8.088   4.140 -0.6620 -0.4843  0.2370
 4136SOL    HW215041   1.756   7.954   4.119 -1.8107 -1.0265 -0.0618
 4137SOL     OW15042   1.995   6.282   4.513  0.6416 -0.1724 -0.2482
 4137SOL    HW115043   2.075   6.245   4.552  0.8333  0.5441  0.0537
 4137SOL    HW215044   2.017   6.373   4.494  0.2372 -0.2590 -1.1662
 4138SOL     OW15045   1.394   5.311   9.740 -0.0117  0.2095 -0.0017
 4138SOL    HW115046   1.337   5.237   9.721  0.6891 -0.4182  0.3035
 4138SOL    HW215047   1.475   5.272   9.774 -0.1816  1.1486  1.6203
 4139SOL     OW15048   4.415   4.952   8.397 -0.0627  0.4304  0.0453
 4139SOL    HW115049   4.357   4.938   8.322 -0.6837  1.9895  0.1817
 4139SOL    HW215050   4.375   4.902   8.468 -0.6593  0.6257 -0.1426
 4140SOL     OW15051   7.677   5.160   7.297 -0.4287  0.0442  0.1883
 4140SOL    HW115052   7.582   5.149   7.292 -0.4601  0.3176  0.1545
 4140SOL    HW215053   7.692   5.250   7.268 -0.1054 -0.1975 -0.4015
 4141SOL     OW15054   6.832   5.008   0.129 -0.0844  0.1999 -0.3852
 4141SOL    HW115055   6.861   4.918   0.114  0.4516  0.6541 -2.2684
 4141SOL    HW215056   6.899   5.062   0.088 -1.1017  1.4323 -0.4770
 4142SOL     OW15057   8.455  10.179   1.093  0.0916 -0.1735  0.4061
 4142SOL    HW115058   8.433  10.105   1.037  0.2419 -0.2892  0.4998
 4142SOL    HW215059   8.550  10.189   1.084 -0.1830  1.4234 -1.3653
 4143SOL     OW15060   8.970   4.159   4.111 -0.4514 -0.4071  0.7227
 4143SOL    HW115061   9.039   4.220   4.136  0.4168 -0.7902 -0.6453
 4143SOL    HW215062   8.896   4.216   4.088  0.1746  0.1324 -0.0204
 4144SOL     OW15063   6.387   5.546   5.472 -0.3003 -0.4151 -0.0896
 4144SOL    HW115064   6.407   5.474   5.531 -0.6181  0.9488  1.7621
 4144SOL    HW215065   6.469   5.595   5.465 -0.3940 -0.2979 -0.3809
 4145SOL     OW15066   0.184   9.174   2.066 -0.2124 -0.1877  0.9317
 4145SOL    HW115067   0.242   9.247   2.086  0.3321 -0.5868  0.8291
 4145SOL    HW215068   0.141   9.154   2.149 -0.0695 -0.0055  1.0493
 4146SOL     OW15069   8.818   1.039   0.306 -0.1532  0.5193 -0.0813
 4146SOL    HW115070   8.732   0.996   0.309 -0.1216  0.4946  0.6773
 4146SOL    HW215071   8.860   1.014   0.388  0.8701 -0.0399 -0.7701
 4147SOL     OW15072   8.218   0.510   4.009 -0.1332  0.2521 -0.2162
 4147SOL    HW115073   8.200   0.528   3.917  0.7894 -1.6736 -0.8214
 4147SOL    HW215074   8.291   0.569   4.031  1.2374 -0.9154 -1.4426
 4148SOL     OW15075   2.676   6.543   7.885 -0.0994 -0.7372 -0.1359
 4148SOL    HW115076   2.713   6.625   7.917 -1.5802 -0.0039 -0.2060
 4148SOL    HW215077   2.740   6.476   7.910  0.9974  0.3844  0.1839
 4149SOL     OW15078   0.729   4.431   1.869 -0.1504 -0.2795  0.1248
 4149SOL    HW115079   0.788   4.477   1.929 -0.1253  2.1718 -1.6305
 4149SOL    HW215080   0.641   4.454   1.901 -0.1699 -1.2257  0.7907
 4150SOL     OW15081   9.855   7.649   4.469  0.3083  0.1177 -0.3144
 4150SOL    HW115082   9.895   7.699   4.398 -0.0371 -0.5449 -0.9876
 4150SOL    HW215083   9.763   7.640   4.444  0.2569 -0.4198  0.0393
 4151SOL     OW15084   1.893   0.051   0.899 -0.5309 -0.1522 -0.3321
 4151SOL    HW115085   1.975   0.089   0.867 -0.0131 -1.8820 -1.2016
 4151SOL    HW215086   1.859   0.115   0.961  1.3720  0.7093 -0.1186
 4152SOL     OW15087   6.706   7.268   7.956 -0.1138 -0.2193  0.1528
 4152SOL    HW115088   6.637   7.321   7.916  0.1941 -0.0272 -0.1209
 4152SOL    HW215089   6.784   7.287   7.904  0.5484  0.8387  1.4852
 4153SOL     OW15090  10.210   4.523   1.135 -0.3416 -0.1752  0.4554
 4153SOL    HW115091  10.191   4.616   1.127  0.1484  0.1881  2.7828
 4153SOL    HW215092  10.287   4.510   1.079  0.0690  0.9926  0.7231
 4154SOL     OW15093   1.965   8.717   8.377  0.3871 -0.2778  0.4889
 4154SOL    HW115094   1.933   8.738   8.464  0.9412  0.5648  0.4972
 4154SOL    HW215095   1.997   8.800   8.342  1.1665 -0.8068 -0.0974
 4155SOL     OW15096   0.574   2.862   2.077 -0.2613  0.1771  0.0928
 4155SOL    HW115097   0.536   2.905   2.000 -0.3083  0.4254  0.2517
 4155SOL    HW215098   0.660   2.833   2.048 -0.3423  0.1264 -0.1005
 4156SOL     OW15099   5.238   8.362   1.449 -0.4565  0.6733  0.0173
 4156SOL    HW115100   5.185   8.282   1.456 -0.3437  0.3437 -2.1672
 4156SOL    HW215101   5.215   8.399   1.363  0.3146  2.4029  0.5081
 4157SOL     OW15102   5.077   7.790   1.110  0.2096 -0.0311 -0.1751
 4157SOL    HW115103   5.068   7.882   1.136  1.3710  0.1816 -0.4550
 4157SOL    HW215104   4.989   7.763   1.085 -0.0665  1.1535 -0.5335
 4158SOL     OW15105   3.311   8.876   9.829 -0.7465 -0.4036 -0.2873
 4158SOL    HW115106   3.309   8.971   9.842 -2.6675 -0.7281  3.3693
 4158SOL    HW215107   3.392   8.848   9.870 -1.7122 -0.4980  1.7031
 4159SOL     OW15108   3.522   3.898   5.270 -0.3814  0.0842  0.1273
 4159SOL    HW115109   3.543   3.985   5.302 -0.9469  0.1022  0.4749
 4159SOL    HW215110   3.605   3.861   5.242 -0.2831  1.1627 -1.1159
 4160SOL     OW15111   8.112  10.261   3.711  0.0001  0.0745  0.5299
 4160SOL    HW115112   8.199  10.285   3.681 -0.0340 -2.1217 -1.6148
 4160SOL    HW215113   8.125  10.236   3.803  1.1706  1.7706  0.8799
 4161SOL     OW15114   7.502   5.458   2.251  0.1834  0.2246  0.4503
 4161SOL    HW115115   7.426   5.400   2.256  0.8208 -0.6713 -0.0112
 4161SOL    HW215116   7.509   5.479   2.158  0.6628  0.0724  0.4523
 4162SOL     OW15117   3.904   1.385   7.085 -0.5392  0.1260 -0.8976
 4162SOL    HW115118   3.972   1.449   7.065 -0.7570  0.5747 -0.2392
 4162SOL    HW215119   3.827   1.437   7.106  0.3510  0.0029  4.0019
 4163SOL     OW15120   4.875   9.177   8.318  0.0559 -0.0477  0.1033
 4163SOL    HW115121   4.794   9.219   8.287  0.5340  1.1215  0.3973
 4163SOL    HW215122   4.906   9.128   8.242 -0.6455 -0.0817 -0.1754
 4164SOL     OW15123   2.065   5.422   9.043  0.7910  0.3252 -0.2214
 4164SOL    HW115124   2.150   5.463   9.060  1.2975  0.4805 -2.7333
 4164SOL    HW215125   2.057   5.355   9.111  3.1771 -0.0170 -0.1854
 4165SOL     OW15126   5.001   1.022   3.513 -0.7300 -0.0526  0.1129
 4165SOL    HW115127   5.020   1.075   3.591 -1.2719 -1.1765  1.0400
 4165SOL    HW215128   4.909   0.998   3.522 -2.0823  3.1321 -2.9722
 4166SOL     OW15129   6.952   7.048   5.157 -0.4960  0.1165 -0.0894
 4166SOL    HW115130   6.936   7.007   5.242 -0.0297 -0.0613 -0.0840
 4166SOL    HW215131   7.047   7.059   5.153 -0.6312  1.6305  0.1216
 4167SOL     OW15132   3.044   7.006   2.724  0.5163  0.1574  0.0005
 4167SOL    HW115133   3.006   6.938   2.780 -0.1283 -0.4172 -1.1110
 4167SOL    HW215134   2.981   7.018   2.653  2.0212 -0.2544 -1.4770
 4168SOL     OW15135   7.052   8.301   1.169 -0.4065 -0.0231 -0.0643
 4168SOL    HW115136   6.971   8.330   1.211 -0.1744 -0.7727  0.9472
 4168SOL    HW215137   7.067   8.213   1.204 -0.5035 -0.9380 -2.2035
 4169SOL     OW15138   4.381   5.846   5.656  0.2776  0.1024  0.6310
 4169SOL    HW115139   4.381   5.779   5.588  0.8218  1.0630 -0.3466
 4169SOL    HW215140   4.423   5.804   5.731  3.8249  0.3131 -1.0370
 4170SOL     OW15141   0.019   5.906   8.955  0.3364 -0.3889 -0.9805
 4170SOL    HW115142   0.061   5.840   9.010  0.5203 -0.1326 -0.8094
 4170SOL    HW215143   0.083   5.977   8.949 -0.7290  0.7756  0.7242
 4171SOL     OW15144   5.542   9.242   9.555  0.1646 -0.1184  0.2773
 4171SOL    HW115145   5.631   9.219   9.529  0.0748  0.6617 -0.7927
 4171SOL    HW215146   5.552   9.284   9.641  0.6705 -1.1510  0.7442
 4172SOL     OW15147  10.102   6.007  10.011  0.3452  0.4013  0.0554
 4172SOL    HW115148  10.020   6.051  10.035 -0.8669 -1.4311 -0.4505
 4172SOL    HW215149  10.136   5.974  10.094 -0.6392 -0.7261  0.0407
 4173SOL     OW15150   2.035   1.263   6.394  0.2258 -0.2281 -0.3527
 4173SOL    HW115151   2.045   1.357   6.413 -0.5140 -0.3194  0.5618
 4173SOL    HW215152   2.031   1.221   6.480 -2.7234 -0.7180 -0.5942
 4174SOL     OW15153   3.991   9.525   2.892  0.6499  0.0038  0.3717
 4174SOL    HW115154   3.927   9.469   2.849  0.1080  0.8890 -0.0001
 4174SOL    HW215155   4.071   9.471   2.897 -0.2527 -1.3144  1.3462
 4175SOL     OW15156   7.025   2.510   6.435 -0.0887  0.1512 -0.3512
 4175SOL    HW115157   7.052   2.461   6.513  0.6571  1.3670  0.1875
 4175SOL    HW215158   7.042   2.450   6.362  1.1253 -0.2766  0.2544
 4176SOL     OW15159   8.378   1.140   4.257  0.3406  0.3743 -0.6942
 4176SOL    HW115160   8.308   1.179   4.204 -2.7653 -3.2639  0.2654
 4176SOL    HW215161   8.432   1.092   4.194  1.8927  2.8947 -1.4012
 4177SOL     OW15162   2.909   9.135   1.353  0.2763 -0.4769 -0.3023
 4177SOL    HW115163   2.996   9.105   1.325  0.4861  0.2322 -0.4121
 4177SOL    HW215164   2.865   9.159   1.272  0.0078 -0.7384 -0.2358
 4178SOL     OW15165   0.003   5.192   3.173 -0.0402 -0.0342  0.2354
 4178SOL    HW115166   0.062   5.241   3.230 -0.6360  0.4908  0.4143
 4178SOL    HW215167  -0.085   5.213   3.206 -0.3062 -1.2388  0.3194
 4179SOL     OW15168   2.233   1.851   0.841 -0.5245  0.2000 -0.0387
 4179SOL    HW115169   2.185   1.921   0.796 -0.2176  1.0294  0.8924
 4179SOL    HW215170   2.208   1.861   0.933  1.0445  0.3548  0.3994
 4180SOL     OW15171   0.861   1.159   3.454  0.1282  0.1132  0.2866
 4180SOL    HW115172   0.895   1.176   3.541 -1.9829 -2.8379  1.8344
 4180SOL    HW215173   0.913   1.086   3.421 -0.1902  0.1083 -0.2265
 4181SOL     OW15174   8.777   7.003   5.715  0.0501 -0.1624 -0.0017
 4181SOL    HW115175   8.742   7.014   5.804  1.7946 -2.2079  1.0272
 4181SOL    HW215176   8.803   7.091   5.689 -0.1253  0.4241  1.6805
 4182SOL     OW15177   4.160   3.125   7.189  0.2912 -0.4951  0.1783
 4182SOL    HW115178   4.086   3.103   7.245  0.5267  1.7357  1.5130
 4182SOL    HW215179   4.236   3.122   7.247  0.4716  2.4182  0.2502
 4183SOL     OW15180   2.929   1.906   2.485  0.2246  0.2205  0.1604
 4183SOL    HW115181   2.995   1.969   2.455 -0.8824  1.4698  0.3005
 4183SOL    HW215182   2.953   1.889   2.576  2.8271 -2.6030 -0.8608
 4184SOL     OW15183   2.342   4.308   5.581 -0.1922  0.0594  0.3459
 4184SOL    HW115184   2.334   4.277   5.491  0.1626  0.4252  0.1904
 4184SOL    HW215185   2.286   4.386   5.585  1.2123  1.1227 -0.0593
 4185SOL     OW15186   1.631  10.040   2.986  0.1993  0.1757  0.5973
 4185SOL    HW115187   1.646   9.974   2.918 -1.3476  0.2307  0.1718
 4185SOL    HW215188   1.681  10.008   3.061  2.1280  0.2339 -0.5974
 4186SOL     OW15189   4.830   3.998   3.665  0.3443  0.3244 -0.0759
 4186SOL    HW115190   4.746   3.994   3.620  0.2558  2.0191 -0.1096
 4186SOL    HW215191   4.872   3.914   3.645 -2.9196 -2.4263  3.2199
 4187SOL     OW15192   1.219   3.068   5.811 -0.0999 -0.5739  0.0494
 4187SOL    HW115193   1.292   3.079   5.871  0.4182  0.2604 -0.7004
 4187SOL    HW215194   1.250   3.005   5.746 -0.0393 -0.1985 -0.2863
 4188SOL     OW15195   4.741   1.100   3.191  0.1756 -0.0702 -0.3954
 4188SOL    HW115196   4.661   1.149   3.174 -0.3560 -1.1627 -1.1819
 4188SOL    HW215197   4.783   1.093   3.105 -0.3162 -1.8722 -0.5395
 4189SOL     OW15198   4.498   9.115   8.738  0.3447  0.0745 -0.1840
 4189SOL    HW115199   4.553   9.039   8.719 -1.2215 -1.2169  0.2241
 4189SOL    HW215200   4.559   9.182   8.768  1.9542 -0.4573 -2.0700
 4190SOL     OW15201   3.270   5.918   9.692 -0.1306 -0.1934  0.6807
 4190SOL    HW115202   3.188   5.869   9.683 -0.7177  1.0575 -1.8046
 4190SOL    HW215203   3.242   6.007   9.716  0.6899 -0.2517  1.9678
 4191SOL     OW15204   6.560   1.022   9.027  0.3219 -0.8964  0.4607
 4191SOL    HW115205   6.549   1.111   9.062 -1.9533 -0.7066 -0.5630
 4191SOL    HW215206   6.586   1.036   8.936  0.9844 -1.3254  0.5765
 4192SOL     OW15207   4.763   3.424   9.912  0.6675  0.0696  0.1267
 4192SOL    HW115208   4.703   3.498   9.901  1.4363  0.6450 -0.2823
 4192SOL    HW215209   4.722   3.353   9.862  0.3370  0.4675 -0.1805
 4193SOL     OW15210   9.874  10.154   0.031 -0.0217  0.0697 -0.1754
 4193SOL    HW115211   9.830  10.139  -0.053 -1.3465 -0.9502  0.6652
 4193SOL    HW215212   9.818  10.216   0.077  0.1233 -0.2151  0.3907
 4194SOL     OW15213   1.028   0.306   0.159  0.2669  0.3447 -0.2290
 4194SOL    HW115214   1.043   0.220   0.119  0.3977  0.1043  0.3330
 4194SOL    HW215215   1.078   0.304   0.241  0.1779  0.9144 -0.1537
 4195SOL     OW15216   3.922   5.166   4.675  0.7558  0.5886 -0.1386
 4195SOL    HW115217   3.918   5.088   4.620 -2.0566 -0.0789  0.8351
 4195SOL    HW215218   3.889   5.137   4.760 -0.8355  2.9047  0.1253
 4196SOL     OW15219   8.228   3.751   3.461 -0.3477  0.3771 -0.7899
 4196SOL    HW115220   8.201   3.715   3.376  2.8981  0.6916 -2.1027
 4196SOL    HW215221   8.201   3.843   3.458 -1.7297 -0.0133 -0.7484
 4197SOL     OW15222   4.478   9.877   4.916 -0.0689 -0.4692  0.0839
 4197SOL    HW115223   4.406   9.890   4.854  0.4891  1.9226 -0.1620
 4197SOL    HW215224   4.555   9.868   4.860  0.1991 -0.0791  0.3888
 4198SOL     OW15225   0.533   2.849   1.760  0.2921  0.1709 -0.5020
 4198SOL    HW115226   0.565   2.859   1.670  0.6619  0.3432 -0.3535
 4198SOL    HW215227   0.530   2.754   1.773 -0.7106  0.1228 -1.0237
 4199SOL     OW15228   6.841   5.632   8.316 -0.0818  0.0969  0.5972
 4199SOL    HW115229   6.881   5.717   8.332 -0.9636  0.6267  0.0808
 4199SOL    HW215230   6.865   5.579   8.392  0.2834  0.8742  1.0331
 4200SOL     OW15231   0.776   3.785   5.523 -0.3358 -0.0828 -0.1336
 4200SOL    HW115232   0.785   3.715   5.588 -0.7495 -0.1744 -0.1764
 4200SOL    HW215233   0.682   3.789   5.504 -0.3635  0.7361  0.1485
 4201SOL     OW15234   2.351   5.045   3.379  0.0143 -0.4235  0.0527
 4201SOL    HW115235   2.373   4.984   3.308 -0.9479 -0.7911  0.0543
 4201SOL    HW215236   2.435   5.065   3.420  0.2718 -2.5465  0.6871
 4202SOL     OW15237   9.710   7.291   4.356 -0.1567  0.1684 -0.2293
 4202SOL    HW115238   9.797   7.327   4.337 -0.4657  0.0758 -2.0384
 4202SOL    HW215239   9.716   7.199   4.331 -0.3491 -0.2388  1.1451
 4203SOL     OW15240   0.273   2.882   4.533 -0.3120 -0.4604  0.1265
 4203SOL    HW115241   0.216   2.840   4.597  0.7666 -1.8611  0.2237
 4203SOL    HW215242   0.331   2.938   4.585 -0.1221 -0.7942  0.2788
 4204SOL     OW15243   2.527   5.374   2.618 -0.1708  0.1770 -0.0523
 4204SOL    HW115244   2.494   5.405   2.703 -1.2020 -0.9615 -0.0088
 4204SOL    HW215245   2.529   5.279   2.627  1.7368  0.1309 -0.6036
 4205SOL     OW15246   5.136   9.589   1.675 -0.0407 -0.3002  0.0517
 4205SOL    HW115247   5.150   9.649   1.749  0.5128 -0.0127 -0.2817
 4205SOL    HW215248   5.107   9.646   1.603 -1.2373 -0.6597  0.2173
 4206SOL     OW15249   9.281   0.606   2.327  0.1753  0.2063  0.7958
 4206SOL    HW115250   9.195   0.563   2.326 -1.4146  3.0609 -0.5748
 4206SOL    HW215251   9.312   0.597   2.417 -2.2686  0.2395  1.7180
 4207SOL     OW15252   6.559   1.221   6.067  0.1342 -0.6232  0.4023
 4207SOL    HW115253   6.507   1.301   6.066 -1.4270 -1.5755  1.1012
 4207SOL    HW215254   6.583   1.206   5.976  2.1075  1.6123  0.4526
 4208SOL     OW15255   7.033   2.785   8.154  0.0575  0.3265 -0.5511
 4208SOL    HW115256   7.118   2.829   8.155 -0.1251  0.7552  1.4349
 4208SOL    HW215257   6.980   2.833   8.218 -1.0725 -1.0311 -0.4110
 4209SOL     OW15258   6.838   6.490   2.593 -0.1384  0.4526 -0.3838
 4209SOL    HW115259   6.920   6.479   2.641 -0.5752  0.3409  0.3453
 4209SOL    HW215260   6.859   6.462   2.504  0.3452 -0.5749  0.0388
 4210SOL     OW15261   8.431   6.870   6.421  0.0253  0.2547 -0.8508
 4210SOL    HW115262   8.505   6.897   6.368  2.0506 -2.3095  0.4135
 4210SOL    HW215263   8.417   6.778   6.399 -1.8290  0.2662  0.0222
 4211SOL     OW15264   9.675   6.411   2.057  0.1846  0.4601  0.0160
 4211SOL    HW115265   9.748   6.375   2.107 -0.2100 -0.4086 -0.0210
 4211SOL    HW215266   9.677   6.505   2.076  1.1995  0.4192  0.1549
 4212SOL     OW15267   5.580   5.183   4.722 -0.1704 -0.0282 -0.1229
 4212SOL    HW115268   5.631   5.218   4.795  0.1937 -0.9199  0.0600
 4212SOL    HW215269   5.495   5.161   4.761 -0.4007  0.6266 -0.2385
 4213SOL     OW15270   4.948   9.582   3.576 -0.4865 -1.1744 -0.4128
 4213SOL    HW115271   4.903   9.660   3.544  0.0094 -0.0336  1.5241
 4213SOL    HW215272   4.909   9.510   3.525 -1.3823  0.2343 -1.8279
 4214SOL     OW15273   4.048   9.302   5.435  0.4060 -0.6153 -0.3449
 4214SOL    HW115274   4.072   9.226   5.488  1.6586 -0.2577 -0.3486
 4214SOL    HW215275   4.066   9.275   5.345  1.5175 -0.1036 -0.2907
 4215SOL     OW15276   9.839   4.339   1.399  0.5043 -0.1562 -0.0364
 4215SOL    HW115277   9.884   4.387   1.330  2.4049  0.3784  1.4564
 4215SOL    HW215278   9.833   4.249   1.366 -0.1170  0.4124 -1.5346
 4216SOL     OW15279   9.110   2.577   1.886  0.4384  0.2789  0.1005
 4216SOL    HW115280   9.141   2.519   1.817 -1.9174  0.9528 -1.6374
 4216SOL    HW215281   9.039   2.529   1.929  1.3380  0.1949  1.5903
 4217SOL     OW15282   6.337   9.223   4.903  0.0515 -0.3186 -0.1368
 4217SOL    HW115283   6.321   9.171   4.825 -2.1234 -0.8514  0.6008
 4217SOL    HW215284   6.266   9.200   4.963  2.2238 -0.7675  2.4671
 4218SOL     OW15285   4.634   3.947   9.243  0.6610  0.4650 -0.1758
 4218SOL    HW115286   4.645   4.039   9.219  0.2053  0.4467 -0.4756
 4218SOL    HW215287   4.655   3.899   9.163 -2.3828  0.4664 -1.1141
 4219SOL     OW15288   4.212   5.819   1.991  0.4461 -0.2265  0.2136
 4219SOL    HW115289   4.206   5.913   1.976 -2.1237 -0.4742 -0.8211
 4219SOL    HW215290   4.152   5.803   2.064  0.2093 -1.1698 -0.1770
 4220SOL     OW15291   2.729   1.510   3.762 -0.2609  0.6990  0.0062
 4220SOL    HW115292   2.763   1.587   3.716 -0.5334  1.4015  0.9564
 4220SOL    HW215293   2.721   1.537   3.853 -1.0895 -0.2174  0.2270
 4221SOL     OW15294   1.855   3.331   6.379 -0.1868  0.2530 -0.5344
 4221SOL    HW115295   1.824   3.274   6.449  0.0963  1.7643  0.8728
 4221SOL    HW215296   1.937   3.368   6.412 -0.0974  1.0772 -1.6159
 4222SOL     OW15297   5.696   6.861   4.286 -0.3810  0.1934  0.1711
 4222SOL    HW115298   5.671   6.948   4.254 -0.4974  0.8202  1.8625
 4222SOL    HW215299   5.791   6.857   4.271 -0.3059  0.7898  0.4488
 4223SOL     OW15300   9.503   5.693   5.399  0.7765  0.4097 -0.0796
 4223SOL    HW115301   9.411   5.717   5.387 -0.0758 -2.0793  0.8389
 4223SOL    HW215302   9.536   5.756   5.464 -0.3578  1.1524 -0.2022
 4224SOL     OW15303   5.350   5.940   6.489  0.2600 -0.3367  0.9505
 4224SOL    HW115304   5.368   6.028   6.458 -0.9519 -0.6378 -0.7190
 4224SOL    HW215305   5.431   5.913   6.533  0.6716  1.5520  1.4524
 4225SOL     OW15306   8.782   6.399   0.251 -0.0350  0.0704 -0.4627
 4225SOL    HW115307   8.749   6.461   0.316 -0.7988  0.1223 -0.8931
 4225SOL    HW215308   8.871   6.429   0.232  0.6005 -0.5599  1.3265
 4226SOL     OW15309   8.655   2.763   6.280 -0.2107 -0.1076  0.0798
 4226SOL    HW115310   8.726   2.809   6.325  0.5682 -0.9111 -0.2841
 4226SOL    HW215311   8.669   2.671   6.302 -1.8710 -0.1697  0.9750
 4227SOL     OW15312   6.049   6.619   3.750 -0.1273 -0.4804 -0.2698
 4227SOL    HW115313   5.986   6.615   3.821 -0.8500 -0.1451 -0.8673
 4227SOL    HW215314   6.012   6.563   3.682  0.2186 -0.2820 -0.6280
 4228SOL     OW15315   3.089   6.626   7.395  0.0823 -0.0793  0.9098
 4228SOL    HW115316   3.129   6.540   7.407  2.1822  0.4909 -1.0362
 4228SOL    HW215317   3.131   6.682   7.460 -1.2976 -0.4776  2.1881
 4229SOL     OW15318   8.531   1.601   2.324 -0.2929 -0.5656  0.7470
 4229SOL    HW115319   8.604   1.659   2.301 -0.5303 -1.0236 -1.2901
 4229SOL    HW215320   8.523   1.611   2.419  2.3591 -0.4356  1.0471
 4230SOL     OW15321  10.201   9.890   8.253  0.3531  0.4300 -0.5676
 4230SOL    HW115322  10.274   9.931   8.206  1.1918 -1.3049 -0.8457
 4230SOL    HW215323  10.239   9.860   8.335 -1.0847  3.3699  1.3447
 4231SOL     OW15324   1.729   4.191   0.223  0.0938 -0.0780 -0.0540
 4231SOL    HW115325   1.655   4.252   0.226  0.0512 -0.0202 -1.5365
 4231SOL    HW215326   1.769   4.206   0.137  1.2781 -0.7575  0.3591
 4232SOL     OW15327   8.988   7.974   6.808 -0.0358 -0.0463 -0.5116
 4232SOL    HW115328   9.067   7.931   6.776 -0.2505 -0.1550 -0.9045
 4232SOL    HW215329   8.924   7.962   6.738 -0.2016  0.6199 -0.4794
 4233SOL     OW15330   0.576   1.599   3.750  0.2359 -0.4410  0.0446
 4233SOL    HW115331   0.588   1.582   3.657 -1.1877 -0.1860 -0.2070
 4233SOL    HW215332   0.498   1.654   3.755  0.1799 -0.6001  1.4055
 4234SOL     OW15333   0.347   8.897   7.979 -0.0078  0.0090 -0.6421
 4234SOL    HW115334   0.370   8.840   8.053 -0.2940  1.1986  0.3992
 4234SOL    HW215335   0.430   8.936   7.952 -0.1604  1.0940  0.3798
 4235SOL     OW15336   5.480   8.309   1.810 -0.3286 -0.6270 -0.0378
 4235SOL    HW115337   5.555   8.261   1.776 -1.8051 -1.7290 -1.9454
 4235SOL    HW215338   5.462   8.376   1.744  0.0152  0.8489  1.2771
 4236SOL     OW15339   6.886   1.185   2.861  0.1222  0.2626  0.0193
 4236SOL    HW115340   6.815   1.198   2.923  0.8209  0.4215  0.7946
 4236SOL    HW215341   6.957   1.145   2.912  0.7640  0.5448 -0.6253
 4237SOL     OW15342   2.466   5.470   8.701  0.0146 -0.2343 -0.3534
 4237SOL    HW115343   2.544   5.485   8.754 -0.1896 -2.6895  0.7711
 4237SOL    HW215344   2.480   5.385   8.661 -1.0628  0.3633 -2.1294
 4238SOL     OW15345   4.980   1.055   4.212 -0.2284 -0.3358 -0.5807
 4238SOL    HW115346   4.984   1.077   4.118  0.2618 -1.2780 -0.7945
 4238SOL    HW215347   5.003   1.137   4.256 -1.6909  0.4767 -1.2222
 4239SOL     OW15348   0.481   4.962   9.256  0.2572  0.1589  0.1350
 4239SOL    HW115349   0.429   4.882   9.268  0.6193 -0.1375 -0.2451
 4239SOL    HW215350   0.557   4.950   9.313  1.0629 -0.4402 -1.0354
 4240SOL     OW15351   7.742   5.000   1.355 -0.1626 -0.0137  0.3624
 4240SOL    HW115352   7.730   4.926   1.415 -0.3422  1.0077  1.6415
 4240SOL    HW215353   7.815   4.974   1.299 -1.0349 -1.6704 -0.0750
 4241SOL     OW15354   2.247   9.969   2.541  0.6464 -0.0172 -0.0769
 4241SOL    HW115355   2.244   9.874   2.552 -1.1976 -0.0057 -0.2337
 4241SOL    HW215356   2.298   9.982   2.461 -1.1641 -1.0332 -1.4529
 4242SOL     OW15357   2.230   8.754   9.872 -0.0825  0.0527  0.4934
 4242SOL    HW115358   2.282   8.833   9.862 -0.2094  0.1963  0.9390
 4242SOL    HW215359   2.176   8.770   9.949 -0.6462 -0.1736  0.1509
 4243SOL     OW15360   7.852   2.388   9.526  0.3239 -0.0125 -0.0171
 4243SOL    HW115361   7.847   2.378   9.621 -0.2033 -0.6723 -0.1061
 4243SOL    HW215362   7.940   2.421   9.510  1.1113 -1.7058  0.5595
 4244SOL     OW15363   6.026  10.310   8.050 -0.0907 -0.2619 -0.3953
 4244SOL    HW115364   6.053  10.401   8.058  1.3967 -0.8295  1.8474
 4244SOL    HW215365   6.090  10.271   7.990  1.0764 -0.4316  0.9043
 4245SOL     OW15366   9.636   0.469   3.600  0.8537 -0.7363  0.3844
 4245SOL    HW115367   9.653   0.500   3.689 -1.1392 -1.3554  1.0416
 4245SOL    HW215368   9.663   0.377   3.600  0.4339 -0.8644  0.5108
 4246SOL     OW15369   1.279   0.160   1.509  0.6927  0.2857 -0.1970
 4246SOL    HW115370   1.313   0.194   1.426 -2.0092  2.4418 -0.5638
 4246SOL    HW215371   1.198   0.114   1.485 -1.7461  3.3719  1.3068
 4247SOL     OW15372   2.395   9.709   3.611  0.1314 -0.2181 -0.5204
 4247SOL    HW115373   2.392   9.614   3.610 -0.5881 -0.3458 -4.8348
 4247SOL    HW215374   2.483   9.731   3.582  0.1355  0.4458 -0.0332
 4248SOL     OW15375   6.785   9.761   8.398 -0.4240  0.1030 -0.1345
 4248SOL    HW115376   6.708   9.732   8.447 -0.9424  0.6803 -0.5883
 4248SOL    HW215377   6.799   9.852   8.426 -0.0033  0.0518 -0.1706
 4249SOL     OW15378   8.021   0.680   0.889  0.3823 -0.2262 -0.1213
 4249SOL    HW115379   8.064   0.751   0.938  0.5557 -0.2151 -0.2898
 4249SOL    HW215380   8.091   0.617   0.872  0.3879 -0.0802 -0.6338
 4250SOL     OW15381   3.893   1.695   3.131  0.2765  0.0217 -0.0725
 4250SOL    HW115382   3.879   1.611   3.174 -2.6134  0.1923 -0.4951
 4250SOL    HW215383   3.822   1.750   3.162  0.3489  1.3607 -2.1116
 4251SOL     OW15384   5.875   3.489   5.272 -0.7557  0.2648 -0.1214
 4251SOL    HW115385   5.904   3.574   5.238 -1.9760  0.8258  0.1959
 4251SOL    HW215386   5.859   3.436   5.194 -0.8959  0.6454 -0.3560
 4252SOL     OW15387   0.565  10.011   9.599  0.4290  0.0648  0.2220
 4252SOL    HW115388   0.612  10.054   9.528  1.9147 -0.6273  0.7465
 4252SOL    HW215389   0.630  10.003   9.669 -0.8300  0.1893  1.4364
 4253SOL     OW15390   9.115   4.080   0.522 -0.2934  0.0304  0.0754
 4253SOL    HW115391   9.036   4.092   0.468  0.1492  1.0424 -0.3648
 4253SOL    HW215392   9.178   4.143   0.488  0.7316 -0.7670  0.4122
 4254SOL     OW15393   3.599   7.652   6.899 -0.2047 -0.0256 -0.3684
 4254SOL    HW115394   3.548   7.622   6.824  0.7015  0.1919 -1.0820
 4254SOL    HW215395   3.545   7.629   6.975 -0.5471 -1.4010 -1.0011
 4255SOL     OW15396   3.046   2.394   2.775  0.4400  0.1079  0.3243
 4255SOL    HW115397   3.055   2.467   2.836 -0.4675  0.7638 -0.3020
 4255SOL    HW215398   2.987   2.333   2.821 -0.6722  0.8415 -0.0754
 4256SOL     OW15399   2.568   0.910   8.893 -0.2316 -0.3461  0.1787
 4256SOL    HW115400   2.503   0.978   8.907 -2.0111 -2.0995  0.8992
 4256SOL    HW215401   2.647   0.943   8.936 -0.6424  1.7640 -0.5983
 4257SOL     OW15402   7.385   4.017   7.195  0.3177 -0.7034 -0.0687
 4257SOL    HW115403   7.421   4.105   7.197  0.2431 -0.6847  0.7082
 4257SOL    HW215404   7.458   3.960   7.219 -0.0431 -0.6990  1.1112
 4258SOL     OW15405   9.743   6.048   5.417 -0.6057 -0.2054  0.3190
 4258SOL    HW115406   9.760   6.102   5.495 -0.0313  1.2311 -0.7430
 4258SOL    HW215407   9.827   6.048   5.370 -1.6084  1.1896 -1.5960
 4259SOL     OW15408   8.396   4.505   9.866 -0.0961  0.2311  0.1099
 4259SOL    HW115409   8.479   4.479   9.907  0.0381  1.5288  0.7066
 4259SOL    HW215410   8.349   4.422   9.852  1.0498 -0.4718  0.2894
 4260SOL     OW15411   9.387   7.294   2.802 -0.3618  0.5140  0.1769
 4260SOL    HW115412   9.378   7.272   2.710  0.7630 -1.9992  0.6094
 4260SOL    HW215413   9.481   7.305   2.816 -0.4559  0.1837  1.1643
 4261SOL     OW15414   6.364   5.284   6.339  0.2460 -0.4798  0.0371
 4261SOL    HW115415   6.301   5.216   6.362  1.2689 -1.7969 -0.8948
 4261SOL    HW215416   6.443   5.237   6.314  0.6247  0.9768 -1.8096
 4262SOL     OW15417   5.973   4.934   7.800  0.9415  0.3527 -0.1333
 4262SOL    HW115418   6.018   4.943   7.884  0.1902  3.6784  0.0462
 4262SOL    HW215419   6.018   4.995   7.742 -1.9256  2.2703 -0.5310
 4263SOL     OW15420   6.930   0.494  10.144 -0.9453 -0.4797  0.0334
 4263SOL    HW115421   6.975   0.427  10.195 -0.1251 -1.3094 -1.6975
 4263SOL    HW215422   6.985   0.572  10.151  0.5642 -1.3380 -1.6402
 4264SOL     OW15423   9.703   5.380   6.894  0.1554  0.5639  0.1618
 4264SOL    HW115424   9.650   5.317   6.943  0.5515  0.9616  1.1482
 4264SOL    HW215425   9.787   5.380   6.940  1.3636 -0.7295 -1.8964
 4265SOL     OW15426   1.469   6.400   4.686 -0.2252  0.2765  0.0959
 4265SOL    HW115427   1.565   6.402   4.678  0.1800 -3.5612  1.6691
 4265SOL    HW215428   1.454   6.385   4.780 -2.2953 -0.5424 -0.3278
 4266SOL     OW15429   6.826   7.052   6.545  0.0785 -0.8393  0.2579
 4266SOL    HW115430   6.739   7.017   6.522  0.7824 -2.7433  0.3221
 4266SOL    HW215431   6.811   7.146   6.556 -1.8455 -1.0141 -0.3691
 4267SOL     OW15432   3.582   3.113   6.506 -0.4168 -0.1095  0.1123
 4267SOL    HW115433   3.630   3.181   6.553 -1.1165 -0.1434  0.9009
 4267SOL    HW215434   3.631   3.101   6.425 -0.9561  2.2195 -0.6387
 4268SOL     OW15435   1.321   6.119   5.839  0.7802 -0.8379  0.3441
 4268SOL    HW115436   1.258   6.174   5.792  0.1302 -0.9957  1.0172
 4268SOL    HW215437   1.403   6.130   5.790 -0.0344 -1.5886 -1.2677
 4269SOL     OW15438   2.059  10.069   1.579  0.3763  0.5128  0.5109
 4269SOL    HW115439   2.138  10.019   1.597  0.5770  1.1778  1.5364
 4269SOL    HW215440   2.073  10.154   1.621 -1.4218  0.1849  1.9309
 4270SOL     OW15441   0.669   5.459   7.902 -0.4115 -0.3228 -0.1115
 4270SOL    HW115442   0.675   5.364   7.901 -2.7294 -0.5422  1.4201
 4270SOL    HW215443   0.712   5.485   7.983 -2.6800 -0.3952  1.1797
 4271SOL     OW15444   9.286   6.036   5.602  0.5603 -0.0624  0.3200
 4271SOL    HW115445   9.330   6.006   5.522 -1.5314  1.5644 -1.5559
 4271SOL    HW215446   9.336   5.995   5.672  3.3309 -0.5290 -1.7209
 4272SOL     OW15447   7.428   6.213   9.919  0.4573 -0.2272  0.0314
 4272SOL    HW115448   7.419   6.290   9.863 -1.2987  0.4217  1.1211
 4272SOL    HW215449   7.393   6.141   9.866 -1.1682  0.3729  0.2411
 4273SOL     OW15450   3.038   3.100   5.671 -0.2433 -0.5459 -0.1230
 4273SOL    HW115451   2.954   3.139   5.647 -0.4171 -0.1058  1.1146
 4273SOL    HW215452   3.039   3.104   5.767  2.0592  1.3159 -0.1463
 4274SOL     OW15453   0.173   2.814   8.104  0.0254 -0.2423  0.4256
 4274SOL    HW115454   0.168   2.861   8.021  0.2315 -0.9112  0.0234
 4274SOL    HW215455   0.246   2.753   8.093 -0.7465 -1.2273  0.6219
 4275SOL     OW15456   5.338   2.190   9.157 -0.0274 -0.4550  0.2600
 4275SOL    HW115457   5.432   2.175   9.156  0.5304  2.2567  1.7558
 4275SOL    HW215458   5.311   2.161   9.245 -0.5273 -0.7829  0.0039
 4276SOL     OW15459   8.966   2.480   7.768 -0.4246 -0.2228 -0.4998
 4276SOL    HW115460   8.922   2.476   7.683 -1.0288 -1.0520 -0.1619
 4276SOL    HW215461   9.035   2.414   7.763 -0.6580 -0.4887 -0.2397
 4277SOL     OW15462   4.070   3.790   9.897 -0.0206 -0.0472  0.1223
 4277SOL    HW115463   4.006   3.761   9.963 -0.1494  0.9685  0.4647
 4277SOL    HW215464   4.153   3.793   9.944  0.0828 -0.3496 -0.0432
 4278SOL     OW15465   6.418   1.036   2.805  0.4531  0.4202 -0.1494
 4278SOL    HW115466   6.500   1.069   2.767 -0.9638  2.2420 -1.8221
 4278SOL    HW215467   6.443   1.005   2.892  3.1197 -0.2282 -1.0405
 4279SOL     OW15468   5.270   2.884   6.602 -0.3364 -0.4128  0.6826
 4279SOL    HW115469   5.203   2.878   6.534  0.7911  1.4565 -0.6971
 4279SOL    HW215470   5.324   2.806   6.589 -0.6493 -0.5253 -0.0117
 4280SOL     OW15471   3.670   4.482  10.294  0.5681 -0.0586 -0.4701
 4280SOL    HW115472   3.757   4.447  10.274 -0.2305 -1.7443 -1.2240
 4280SOL    HW215473   3.611   4.408  10.282 -0.8400  0.6769  1.4243
 4281SOL     OW15474   2.555   5.726   0.964  0.3386 -0.3088 -0.5404
 4281SOL    HW115475   2.615   5.652   0.966  0.5538 -0.1241 -0.2419
 4281SOL    HW215476   2.482   5.699   1.020  0.8477  0.0713  0.3352
 4282SOL     OW15477   9.854   9.548   2.388  0.6473  0.7325 -0.4986
 4282SOL    HW115478   9.774   9.598   2.371  0.7827  1.0342 -0.2588
 4282SOL    HW215479   9.914   9.575   2.318  0.2732 -0.1042 -1.1635
 4283SOL     OW15480   6.463   9.506   7.442 -0.2928 -0.2058 -0.1020
 4283SOL    HW115481   6.486   9.413   7.437 -3.1984 -0.9918 -0.7367
 4283SOL    HW215482   6.470   9.528   7.535  0.6546 -0.9769  0.0187
 4284SOL     OW15483   3.254   9.407   0.619  0.1112 -0.8633  0.1677
 4284SOL    HW115484   3.297   9.434   0.537 -0.3801 -0.4841  0.0292
 4284SOL    HW215485   3.193   9.478   0.638  0.0554 -1.0626  0.7450
 4285SOL     OW15486   4.636   8.186   9.028 -0.5957 -0.5668 -0.1066
 4285SOL    HW115487   4.583   8.243   9.084  1.7502  2.9476 -1.1395
 4285SOL    HW215488   4.573   8.148   8.966 -2.2818  1.2520  0.3832
 4286SOL     OW15489   1.188   1.154   8.120 -0.5405  0.2815 -0.1400
 4286SOL    HW115490   1.242   1.086   8.080 -1.2748 -0.6769  0.4361
 4286SOL    HW215491   1.103   1.111   8.134 -0.7540  1.0499  1.0478
 4287SOL     OW15492  10.281   2.603   6.833 -0.0114  0.3207 -0.0664
 4287SOL    HW115493  10.304   2.640   6.918 -0.1995 -0.1454  0.1940
 4287SOL    HW215494  10.185   2.596   6.836  0.0080 -0.0027 -0.1832
 4288SOL     OW15495   2.338   2.115   8.527  0.1830  0.0161 -0.0427
 4288SOL    HW115496   2.277   2.078   8.463 -0.2115 -0.2560  0.4831
 4288SOL    HW215497   2.356   2.044   8.588  0.4743  0.3025  0.2139
 4289SOL     OW15498   8.485   1.264   7.046 -0.1251 -0.0312  0.0371
 4289SOL    HW115499   8.432   1.200   7.093  1.5472 -1.6777 -0.2013
 4289SOL    HW215500   8.564   1.274   7.100 -0.2272  1.6557 -0.0729
 4290SOL     OW15501   4.936   1.659   8.958 -0.4918  0.2872 -0.3750
 4290SOL    HW115502   4.913   1.664   8.865  0.4250 -2.2422 -0.8108
 4290SOL    HW215503   5.027   1.630   8.959 -0.8234 -0.8306  1.2889
 4291SOL     OW15504   2.518   1.627   9.187  0.0583  0.0956 -0.2705
 4291SOL    HW115505   2.585   1.634   9.254 -0.0282  0.2120 -0.1960
 4291SOL    HW215506   2.435   1.627   9.235  0.0414 -2.5260 -0.1365
 4292SOL     OW15507   1.931   2.073   6.387  0.0087  0.0015 -0.0813
 4292SOL    HW115508   1.879   2.116   6.454 -0.0075  2.8493 -1.7415
 4292SOL    HW215509   1.879   1.997   6.361 -1.7453  0.9013  0.6132
 4293SOL     OW15510   5.299   2.189   1.399 -0.0040 -0.2432 -0.1122
 4293SOL    HW115511   5.273   2.222   1.313 -0.6354  0.5211  0.3546
 4293SOL    HW215512   5.373   2.245   1.425  0.4280 -0.7152 -0.3130
 4294SOL     OW15513   0.761   0.197   8.981  0.1263 -0.3064 -0.3824
 4294SOL    HW115514   0.794   0.271   8.929 -0.2310 -1.0487 -1.7279
 4294SOL    HW215515   0.669   0.190   8.957 -0.2551 -0.1768  0.9878
 4295SOL     OW15516   9.786   5.631   4.282 -0.1771 -0.3040 -0.2905
 4295SOL    HW115517   9.861   5.638   4.223 -1.1722 -0.8995 -1.6781
 4295SOL    HW215518   9.809   5.561   4.342  1.1003  0.6964  0.4411
 4296SOL     OW15519   3.835   7.533   8.140 -0.6587 -0.0792 -0.0740
 4296SOL    HW115520   3.781   7.602   8.179  0.2957  0.5509  0.1492
 4296SOL    HW215521   3.921   7.544   8.180 -0.0426 -0.3345 -1.2978
 4297SOL     OW15522   0.759   9.686   1.329 -0.4158  0.4161  0.6863
 4297SOL    HW115523   0.846   9.721   1.311 -0.6578 -0.1824 -2.2086
 4297SOL    HW215524   0.700   9.760   1.316 -0.5079  0.2184 -0.1149
 4298SOL     OW15525   7.082   7.075   7.738  0.0973  0.2308 -0.4635
 4298SOL    HW115526   6.987   7.087   7.735 -0.1295 -1.2074  0.1310
 4298SOL    HW215527   7.098   6.996   7.687  1.1008  0.9549 -1.3256
 4299SOL     OW15528   8.992   0.872   0.177 -0.5424 -0.3716  0.6625
 4299SOL    HW115529   9.070   0.876   0.232 -1.3560 -0.2051  1.8473
 4299SOL    HW215530   8.924   0.916   0.228 -1.2507  0.1013 -0.6344
 4300SOL     OW15531   1.850   0.638   3.389  0.0800 -0.0590  0.1330
 4300SOL    HW115532   1.904   0.688   3.327 -0.5266  1.4728  0.7853
 4300SOL    HW215533   1.820   0.703   3.453 -0.4929 -1.3355  1.2149
 4301SOL     OW15534   8.917   5.701   1.892 -0.4338  0.6304  0.4302
 4301SOL    HW115535   8.886   5.673   1.805  0.1541  0.3121  0.3153
 4301SOL    HW215536   8.898   5.626   1.949  1.9763 -0.4402 -0.0631
 4302SOL     OW15537   8.014   9.338   2.169  0.4357 -0.0545  0.3933
 4302SOL    HW115538   8.094   9.340   2.116 -0.4891  0.2735 -1.0583
 4302SOL    HW215539   7.955   9.399   2.125 -0.7732 -0.6340  1.1691
 4303SOL     OW15540   5.951   1.237   7.426  0.4809 -0.4721 -0.6355
 4303SOL    HW115541   5.968   1.329   7.447 -1.4845 -0.0342 -0.7829
 4303SOL    HW215542   5.946   1.194   7.511  0.0417 -0.1553 -0.4934
 4304SOL     OW15543   5.455   3.593   5.811 -0.2590 -0.1680  0.0622
 4304SOL    HW115544   5.468   3.611   5.718 -0.7060 -0.1001  0.0103
 4304SOL    HW215545   5.509   3.516   5.829 -3.8168 -3.3103 -1.4036
 4305SOL     OW15546   2.235   5.149  10.299 -0.8843  0.7009  0.6989
 4305SOL    HW115547   2.153   5.115  10.336 -0.5813  0.2897  1.0079
 4305SOL    HW215548   2.283   5.184  10.375 -0.0401 -0.5986  0.7956
 4306SOL     OW15549   8.971   7.424  10.259  0.0354  0.4203  0.2703
 4306SOL    HW115550   8.881   7.412  10.288 -0.2329  0.9652 -0.3081
 4306SOL    HW215551   8.971   7.509  10.216  0.0010 -0.9676 -2.7573
 4307SOL     OW15552   0.487   5.657   4.861  0.0433 -0.3425 -0.5612
 4307SOL    HW115553   0.556   5.640   4.926 -1.3247 -0.0718  1.0412
 4307SOL    HW215554   0.533   5.665   4.778  2.1548  1.4145  0.6633
 4308SOL     OW15555   3.788  10.309   6.671  0.0249 -0.6326 -0.0158
 4308SOL    HW115556   3.761  10.221   6.696  0.5794 -1.2491 -1.4346
 4308SOL    HW215557   3.875  10.319   6.710 -0.7835  0.0227  1.6806
 4309SOL     OW15558   6.087   2.405   9.954  0.8281 -0.2257 -0.1983
 4309SOL    HW115559   6.182   2.411   9.969  0.6268 -1.0381  1.6818
 4309SOL    HW215560   6.057   2.339  10.017 -1.3464  1.8360  1.0840
 4310SOL     OW15561   5.315   3.017   2.423 -0.3987 -0.5171  0.5252
 4310SOL    HW115562   5.360   3.054   2.499 -1.8036  0.4637  0.9141
 4310SOL    HW215563   5.377   3.031   2.351 -0.0369  0.7833  1.0466
 4311SOL     OW15564   3.517   8.167   2.611 -0.0035  0.1467  0.5149
 4311SOL    HW115565   3.436   8.130   2.576 -0.8228 -0.2890  2.7070
 4311SOL    HW215566   3.494   8.195   2.700  2.4500 -0.7849  1.5269
 4312SOL     OW15567   1.054   0.114   6.524 -0.3812 -0.3972 -0.8865
 4312SOL    HW115568   0.969   0.078   6.548 -0.1568 -0.2926  0.1169
 4312SOL    HW215569   1.083   0.061   6.451 -0.8501 -1.0985 -0.5702
 4313SOL     OW15570   9.789   6.610   9.556 -0.1696  0.0822 -0.4092
 4313SOL    HW115571   9.698   6.614   9.526  0.0123 -0.7699 -1.1107
 4313SOL    HW215572   9.806   6.697   9.592 -1.6353 -0.1047  0.8351
 4314SOL     OW15573   7.474   6.422   3.149 -0.8708 -0.0120 -0.0499
 4314SOL    HW115574   7.526   6.465   3.081 -0.7661  1.6140  1.0053
 4314SOL    HW215575   7.383   6.442   3.127 -1.0399 -1.7697 -1.1705
 4315SOL     OW15576   0.701   5.989   6.047 -0.4051  0.0393 -0.0168
 4315SOL    HW115577   0.777   6.047   6.042 -0.7704  0.4118 -2.3437
 4315SOL    HW215578   0.626   6.048   6.050 -0.6918 -0.3174 -0.1515
 4316SOL     OW15579   4.359   0.596   0.793  0.0910 -0.0353 -0.5392
 4316SOL    HW115580   4.441   0.610   0.745  0.4267  0.3970  0.1371
 4316SOL    HW215581   4.367   0.508   0.829 -0.8762 -1.0578 -2.5973
 4317SOL     OW15582   1.230   6.671   2.763 -0.0254 -0.0770  0.1827
 4317SOL    HW115583   1.278   6.606   2.712  0.1709  0.1015  0.1413
 4317SOL    HW215584   1.296   6.735   2.790 -0.2414  0.1761  0.1130
 4318SOL     OW15585   2.728   2.089   9.189  0.0793  0.0516  0.4764
 4318SOL    HW115586   2.785   2.118   9.118  0.5766 -0.8807  0.4812
 4318SOL    HW215587   2.788   2.058   9.257 -0.4116 -0.1732  0.8166
 4319SOL     OW15588   4.365   4.045   1.048 -0.0578 -0.0902  0.2524
 4319SOL    HW115589   4.425   4.084   0.985 -0.9322 -0.3158 -0.7460
 4319SOL    HW215590   4.319   4.119   1.087  0.2615  0.0333  0.3950
 4320SOL     OW15591   5.104   6.207   7.092 -0.6403  0.0486  0.0133
 4320SOL    HW115592   5.032   6.172   7.144 -0.8960 -1.0358 -1.0189
 4320SOL    HW215593   5.181   6.195   7.147 -0.9741 -0.5907  0.3589
 4321SOL     OW15594   6.227   2.625   8.345  0.8043 -0.4430  0.4363
 4321SOL    HW115595   6.161   2.591   8.405 -0.2072  1.2949  0.3645
 4321SOL    HW215596   6.178   2.681   8.285  2.3003  0.6947  0.2199
 4322SOL     OW15597   4.185   6.991   2.463  0.4794 -0.3612  0.0602
 4322SOL    HW115598   4.210   7.071   2.416  1.1673 -0.4400  0.2800
 4322SOL    HW215599   4.227   7.000   2.548 -2.1483  0.6163  1.3766
 4323SOL     OW15600   9.021   9.014   9.322 -0.6308 -0.7562 -0.2326
 4323SOL    HW115601   8.944   8.986   9.274 -0.7598  1.4754 -1.4016
 4323SOL    HW215602   9.000   9.101   9.355  1.2883 -0.1817 -0.3898
 4324SOL     OW15603   4.491   2.111   1.619 -0.0869 -0.0796  0.6430
 4324SOL    HW115604   4.458   2.197   1.592 -0.9794 -0.2109  1.2784
 4324SOL    HW215605   4.420   2.050   1.596  0.3926 -0.6058  0.5232
 4325SOL     OW15606   6.475   8.873   5.173 -0.6847  0.4670 -0.4170
 4325SOL    HW115607   6.435   8.954   5.206  2.2014  2.3493 -1.1272
 4325SOL    HW215608   6.511   8.831   5.251  2.3382  2.6836 -0.4294
 4326SOL     OW15609   6.567   1.941   0.822  0.8812 -0.3191  0.4298
 4326SOL    HW115610   6.577   2.018   0.767  1.8395 -0.7707 -0.0477
 4326SOL    HW215611   6.475   1.942   0.849  0.6837  0.5196 -0.2528
 4327SOL     OW15612   3.474   4.862   3.394  0.3987  0.2049 -0.1272
 4327SOL    HW115613   3.552   4.880   3.446  0.5365  0.3559 -0.3826
 4327SOL    HW215614   3.406   4.845   3.458  1.2763 -2.8128  0.1486
 4328SOL     OW15615   6.130   1.834  10.074  0.1058  0.1566  0.0221
 4328SOL    HW115616   6.195   1.835  10.004 -2.0298  2.0815 -2.1180
 4328SOL    HW215617   6.099   1.744  10.077  0.4117 -0.0067 -1.3526
 4329SOL     OW15618   2.710   7.765   4.350  0.0255  0.0355 -0.2687
 4329SOL    HW115619   2.743   7.696   4.408  0.3101 -0.6423 -1.2141
 4329SOL    HW215620   2.784   7.785   4.293 -0.8677 -0.7912 -1.7572
 4330SOL     OW15621   5.007   4.411   5.387 -0.5279 -0.3259 -0.2872
 4330SOL    HW115622   4.917   4.436   5.403 -0.7382 -0.3912 -1.3096
 4330SOL    HW215623   5.033   4.364   5.466 -0.8799  1.0248  0.6543
 4331SOL     OW15624   5.844   5.029   2.060 -0.3582  0.1590  0.3190
 4331SOL    HW115625   5.761   4.985   2.081 -0.9625  0.6046 -0.9865
 4331SOL    HW215626   5.876   5.062   2.144 -1.2495 -0.4631  0.9195
 4332SOL     OW15627   1.189   8.889   3.360  0.4147 -0.1664  0.3964
 4332SOL    HW115628   1.202   8.813   3.418 -0.1435 -1.3685 -0.9910
 4332SOL    HW215629   1.177   8.851   3.273  1.3552  1.5948 -0.5591
 4333SOL     OW15630   7.988   0.041   5.609  0.2181  0.3254 -0.8249
 4333SOL    HW115631   7.973  -0.052   5.589 -1.7643  1.0317 -3.2590
 4333SOL    HW215632   8.056   0.068   5.546  1.2088  0.4362  0.2635
 4334SOL     OW15633   4.710   4.090   7.571 -0.4320 -0.0488  0.0922
 4334SOL    HW115634   4.794   4.057   7.603 -0.1926 -0.5641 -1.0142
 4334SOL    HW215635   4.724   4.183   7.557 -0.0058 -0.1541 -0.1977
 4335SOL     OW15636   5.038   2.854   8.123 -0.0976 -0.4529  0.3606
 4335SOL    HW115637   4.998   2.768   8.119  1.2802 -1.1007  0.0552
 4335SOL    HW215638   5.114   2.844   8.179  0.8875  0.2026 -0.7886
 4336SOL     OW15639   7.380   6.693   5.714 -0.0171 -0.0349 -0.2941
 4336SOL    HW115640   7.401   6.615   5.663  1.7746 -0.7621  1.4557
 4336SOL    HW215641   7.414   6.766   5.662  1.4177 -0.7247 -0.3506
 4337SOL     OW15642   0.876   1.330   8.113 -0.1885  0.2301 -0.1742
 4337SOL    HW115643   0.932   1.368   8.181 -2.1199 -0.8572  2.1744
 4337SOL    HW215644   0.794   1.378   8.120 -0.3376  0.3133 -2.0446
 4338SOL     OW15645   6.821   6.183  10.186  0.4746 -0.2481 -0.4807
 4338SOL    HW115646   6.755   6.223  10.129 -0.5650  0.2811  1.0281
 4338SOL    HW215647   6.879   6.136  10.126 -1.0289 -0.3913 -1.9017
 4339SOL     OW15648   5.628   2.789   1.052 -0.4787  0.0405  0.2521
 4339SOL    HW115649   5.627   2.861   0.988 -1.6097 -0.2852 -0.1256
 4339SOL    HW215650   5.685   2.723   1.012  1.8847  1.2924  1.3173
 4340SOL     OW15651   0.428   0.773   4.363 -0.7831 -0.3216  0.6206
 4340SOL    HW115652   0.357   0.721   4.325 -0.5049 -1.2748  1.3360
 4340SOL    HW215653   0.417   0.760   4.458  0.4137 -0.5891  0.7320
 4341SOL     OW15654   3.611   9.837   1.667 -0.1156 -0.2529 -0.4625
 4341SOL    HW115655   3.696   9.872   1.693  0.5114 -1.4166 -0.8734
 4341SOL    HW215656   3.570   9.909   1.619  0.8507  0.1675 -0.6990
 4342SOL     OW15657   0.122   3.249   8.505 -0.3792  0.2623  0.1427
 4342SOL    HW115658   0.167   3.197   8.572 -0.1582 -1.3242 -1.1674
 4342SOL    HW215659   0.033   3.259   8.539 -0.2500 -0.4541  0.7315
 4343SOL     OW15660   8.597   1.100   5.337  0.0650 -0.2817 -0.5379
 4343SOL    HW115661   8.621   1.014   5.372 -0.7043 -0.8798 -1.4174
 4343SOL    HW215662   8.520   1.125   5.388  0.4690  0.0468 -0.0720
 4344SOL     OW15663   2.746   3.734   8.770  0.3532 -0.0191 -0.5003
 4344SOL    HW115664   2.775   3.644   8.756 -1.1285 -0.3920 -1.3091
 4344SOL    HW215665   2.806   3.787   8.716 -0.9677 -0.8677 -2.9701
 4345SOL     OW15666   2.409   8.431  10.173 -0.2005 -0.2847 -0.4966
 4345SOL    HW115667   2.437   8.340  10.185 -0.4330 -0.2934 -0.0151
 4345SOL    HW215668   2.433   8.451  10.082 -0.6715 -1.0143 -0.7902
 4346SOL     OW15669   3.129   9.637   0.889  0.0538 -0.4602 -0.3002
 4346SOL    HW115670   3.072   9.602   0.957  1.9571 -1.2079  0.9843
 4346SOL    HW215671   3.102   9.728   0.880 -0.6995 -0.5341  0.9729
 4347SOL     OW15672   6.342   9.323  10.014  0.3928  0.0844  0.2160
 4347SOL    HW115673   6.335   9.231  10.042 -0.1075  0.8903  3.0560
 4347SOL    HW215674   6.398   9.364  10.080 -0.1496  2.0105 -0.4647
 4348SOL     OW15675   1.708   9.215   6.015 -0.8300 -0.5760  0.2765
 4348SOL    HW115676   1.706   9.157   6.091 -1.1107  0.3844  1.0208
 4348SOL    HW215677   1.746   9.297   6.048 -0.4548 -0.3134 -0.7480
 4349SOL     OW15678   7.923   3.862   1.385 -0.0722  0.6032  0.1835
 4349SOL    HW115679   8.000   3.870   1.441  0.5911 -1.6211 -0.3188
 4349SOL    HW215680   7.912   3.949   1.347  1.9447  1.0840  0.5922
 4350SOL     OW15681   1.811   4.521   4.756 -0.2578  0.0450 -0.0791
 4350SOL    HW115682   1.850   4.446   4.710 -0.4890  0.1932 -0.5195
 4350SOL    HW215683   1.743   4.552   4.697  0.9993  1.7206 -0.7069
 4351SOL     OW15684   5.383   2.509   8.892  0.0461 -0.1932  0.1029
 4351SOL    HW115685   5.318   2.454   8.936  0.1083  0.5591  1.1783
 4351SOL    HW215686   5.410   2.573   8.958 -0.6616  1.6998 -1.3315
 4352SOL     OW15687   1.387   2.633   8.962 -0.4373 -0.0917  0.5561
 4352SOL    HW115688   1.449   2.676   9.022  0.8308 -0.2100 -0.6304
 4352SOL    HW215689   1.338   2.705   8.923 -0.0996  0.1025  0.4836
 4353SOL     OW15690   1.769   7.334   6.812 -0.3384  0.0127  0.3151
 4353SOL    HW115691   1.851   7.292   6.838  0.2930  0.6808 -0.5367
 4353SOL    HW215692   1.745   7.388   6.888 -1.0375 -1.6456  1.3287
 4354SOL     OW15693   8.522   6.113   7.322 -0.4512 -0.9818 -0.3090
 4354SOL    HW115694   8.513   6.207   7.339 -3.4288 -1.4181  1.1550
 4354SOL    HW215695   8.588   6.084   7.384  1.3699  0.2616 -1.5585
 4355SOL     OW15696   1.478   3.868   4.659 -0.2719  0.0421 -0.1335
 4355SOL    HW115697   1.446   3.779   4.670  0.0343 -0.2451 -1.4636
 4355SOL    HW215698   1.425   3.920   4.720 -2.4389 -0.6228 -1.3218
 4356SOL     OW15699   2.088   1.073   8.520  0.0103  0.2364  0.2596
 4356SOL    HW115700   2.123   0.997   8.566 -1.3232 -0.2702  0.4747
 4356SOL    HW215701   2.020   1.037   8.463 -1.8644  1.4253  1.6462
 4357SOL     OW15702  10.339   7.925   4.466 -0.0729 -0.4136 -0.8756
 4357SOL    HW115703  10.278   7.859   4.498 -0.3599 -0.2105 -1.0032
 4357SOL    HW215704  10.313   7.941   4.375  1.0686 -1.3770 -1.4050
 4358SOL     OW15705   3.470   7.400   8.684 -0.0066  0.1786  0.2890
 4358SOL    HW115706   3.473   7.324   8.625 -0.0336 -1.6076  2.4808
 4358SOL    HW215707   3.552   7.446   8.668  0.6031 -1.0383 -0.1782
 4359SOL     OW15708   6.150   0.534   2.807 -0.1677 -0.4222 -0.2507
 4359SOL    HW115709   6.191   0.475   2.743  0.0548  1.8166 -2.3142
 4359SOL    HW215710   6.203   0.524   2.886  2.0563 -0.4476 -1.6523
 4360SOL     OW15711   0.155   4.361   5.574 -0.0333  0.2355 -0.3191
 4360SOL    HW115712   0.143   4.454   5.593 -0.2971  0.7086 -2.5721
 4360SOL    HW215713   0.145   4.353   5.479 -0.8562 -2.2317 -0.1197
 4361SOL     OW15714   8.365   1.239   5.370 -0.1748 -0.3784 -0.6404
 4361SOL    HW115715   8.273   1.214   5.374  0.1423 -1.6179 -0.5955
 4361SOL    HW215716   8.376   1.281   5.285 -0.8690  0.1956 -0.4533
 4362SOL     OW15717   8.342   4.481  10.232  0.5152 -0.5173 -0.1631
 4362SOL    HW115718   8.432   4.461  10.256 -0.4990 -2.5341  2.3977
 4362SOL    HW215719   8.318   4.413  10.169 -0.0308 -1.7375  1.3173
 4363SOL     OW15720   1.471   4.632   8.024 -0.1505  0.4151 -0.1999
 4363SOL    HW115721   1.504   4.644   8.113  1.7255 -0.3224 -0.7407
 4363SOL    HW215722   1.518   4.698   7.973 -1.6196  1.1944 -0.5740
 4364SOL     OW15723   8.585   6.431   5.425  0.1924 -0.4028 -0.3911
 4364SOL    HW115724   8.493   6.427   5.454  0.4017 -0.4882  0.2811
 4364SOL    HW215725   8.632   6.465   5.500  1.1505 -3.2147  0.3917
 4365SOL     OW15726   6.287   9.069  10.044 -0.3306 -0.3247 -0.8947
 4365SOL    HW115727   6.339   8.990  10.029  0.2884 -0.0144 -0.4462
 4365SOL    HW215728   6.234   9.048  10.121  0.9345  0.2014  0.1650
 4366SOL     OW15729   0.026   0.123   4.420 -0.8609  0.5895 -0.4176
 4366SOL    HW115730   0.052   0.048   4.475 -1.4059  1.3462  0.9300
 4366SOL    HW215731   0.109   0.165   4.397 -0.6637  1.3627  1.4878
 4367SOL     OW15732   5.559   1.192   5.432 -0.5927  0.1935 -0.4328
 4367SOL    HW115733   5.589   1.221   5.346  0.1949  1.2526  0.1727
 4367SOL    HW215734   5.533   1.100   5.419  0.9431 -0.1294 -1.4704
 4368SOL     OW15735   7.172   5.613   1.869 -0.0335  0.0689  0.2195
 4368SOL    HW115736   7.239   5.648   1.811 -1.0093  0.8610 -0.4671
 4368SOL    HW215737   7.102   5.679   1.869 -0.9015 -0.8048  0.7599
 4369SOL     OW15738   5.262   9.443   2.969 -0.0752 -0.1630 -0.0598
 4369SOL    HW115739   5.252   9.533   3.002 -2.4394 -0.7855  1.1488
 4369SOL    HW215740   5.338   9.448   2.910  1.9909  1.8872  2.4820
 4370SOL     OW15741   4.154   3.119   0.810 -0.2011  0.4165 -0.5286
 4370SOL    HW115742   4.209   3.121   0.888 -1.1988 -1.4579  0.2985
 4370SOL    HW215743   4.068   3.147   0.840 -0.9167 -1.5549 -0.5959
 4371SOL     OW15744   8.029   8.778   6.525  0.0828 -0.1316 -0.3247
 4371SOL    HW115745   8.102   8.834   6.552 -1.0073  0.2960  1.9694
 4371SOL    HW215746   8.071   8.709   6.473  2.6548 -1.5275  3.1696
 4372SOL     OW15747   2.599   4.108   2.738  0.1491 -0.1016 -0.2015
 4372SOL    HW115748   2.554   4.030   2.707 -1.9167  1.7854 -2.3638
 4372SOL    HW215749   2.569   4.120   2.828 -0.0170 -1.4049 -0.0728
 4373SOL     OW15750   8.013   8.213   4.163 -0.3271  0.3962  0.1909
 4373SOL    HW115751   8.028   8.303   4.136  0.4414 -0.2052 -1.5691
 4373SOL    HW215752   7.958   8.176   4.093 -0.5847 -0.5144  0.8584
 4374SOL     OW15753   2.449   0.619   2.846  0.6952  0.1291  0.1886
 4374SOL    HW115754   2.464   0.669   2.926  0.6549  0.4838 -0.0238
 4374SOL    HW215755   2.479   0.677   2.776  1.8475 -0.6368  0.0192
 4375SOL     OW15756   0.010   0.136   2.580  0.1407 -0.4712  0.1040
 4375SOL    HW115757   0.062   0.214   2.563  0.0556 -0.6588 -1.1130
 4375SOL    HW215758  -0.080   0.168   2.590  0.0613 -0.4321 -0.6840
 4376SOL     OW15759   7.540   0.152   2.349  0.0464 -0.2337 -0.0239
 4376SOL    HW115760   7.472   0.089   2.328  0.8278 -1.7178  1.6315
 4376SOL    HW215761   7.493   0.235   2.360 -1.9116 -1.5514  2.9662
 4377SOL     OW15762   8.250   9.196   4.362 -0.1184 -0.0728 -0.3272
 4377SOL    HW115763   8.200   9.155   4.291 -1.7842 -0.1798  0.8362
 4377SOL    HW215764   8.194   9.267   4.393  1.3184  1.0480 -0.1970
 4378SOL     OW15765   2.373   0.039   0.939  0.0920 -0.4309  0.5567
 4378SOL    HW115766   2.377  -0.008   1.022  0.2282  1.0981  1.4616
 4378SOL    HW215767   2.455   0.017   0.894 -0.4923 -2.1816  0.2623
 4379SOL     OW15768   8.680   5.829   6.654  0.0293 -0.8150  0.1644
 4379SOL    HW115769   8.613   5.873   6.707  0.5998 -0.0954  0.3044
 4379SOL    HW215770   8.690   5.743   6.695  1.6271  0.2866  2.3287
 4380SOL     OW15771   8.177   9.261   1.489 -0.5739  0.6400 -0.0333
 4380SOL    HW115772   8.083   9.243   1.495 -1.3212  3.5958 -1.2021
 4380SOL    HW215773   8.206   9.266   1.579 -1.4687 -0.4634  0.3458
 4381SOL     OW15774   8.874   7.935   4.982  0.3808 -0.4308  0.0149
 4381SOL    HW115775   8.857   7.998   4.913  1.5625 -1.4044 -1.2270
 4381SOL    HW215776   8.798   7.877   4.981 -1.1257  1.3632  1.7373
 4382SOL     OW15777   9.425   4.010   2.798  0.3165 -0.1442 -0.0902
 4382SOL    HW115778   9.395   3.920   2.815  0.1790  0.3676  3.0540
 4382SOL    HW215779   9.404   4.025   2.706  3.4094 -4.4453 -1.8784
 4383SOL     OW15780   0.586   1.207   0.887  0.6629  0.0095 -0.8130
 4383SOL    HW115781   0.666   1.186   0.840  0.1510 -0.3009 -1.5597
 4383SOL    HW215782   0.526   1.239   0.820 -0.2989 -1.0568 -0.4890
 4384SOL     OW15783   9.640   4.303   4.402 -0.0869 -0.1366 -0.0439
 4384SOL    HW115784   9.680   4.385   4.374  1.8931 -0.8053  0.6657
 4384SOL    HW215785   9.683   4.283   4.485  1.2603 -3.0737 -1.3091
 4385SOL     OW15786   9.194   6.552   1.755 -0.0585  0.2271  0.6116
 4385SOL    HW115787   9.127   6.619   1.743  0.5273  0.4302 -2.2105
 4385SOL    HW215788   9.276   6.600   1.762  0.0136 -0.0888  2.5918
 4386SOL     OW15789   7.735  10.199   0.852 -0.3452 -0.6354 -0.1551
 4386SOL    HW115790   7.792  10.150   0.793  1.8169  2.6719 -1.0374
 4386SOL    HW215791   7.658  10.220   0.798  0.2654 -0.1926 -0.8818
 4387SOL     OW15792   0.180   8.835   3.565  0.3011  0.4086  1.1821
 4387SOL    HW115793   0.216   8.899   3.627  0.7610 -0.1719  1.5318
 4387SOL    HW215794   0.188   8.751   3.610 -1.4614  0.2381  1.2347
 4388SOL     OW15795   2.705   0.514   6.402 -0.1006 -0.4056 -0.0234
 4388SOL    HW115796   2.680   0.463   6.325  0.0853  0.5130 -0.7138
 4388SOL    HW215797   2.720   0.602   6.368  0.0161  0.0081  1.0675
 4389SOL     OW15798   7.368   9.768   0.422 -0.3377  0.1392 -0.1904
 4389SOL    HW115799   7.445   9.824   0.423 -0.6332  0.5452  0.6373
 4389SOL    HW215800   7.396   9.689   0.469 -0.3220  0.1475 -0.1852
 4390SOL     OW15801   6.321   0.565   8.793 -0.3570 -0.2331 -0.4161
 4390SOL    HW115802   6.239   0.536   8.831  0.2101 -0.9304  0.3127
 4390SOL    HW215803   6.359   0.624   8.859 -0.3929  0.3043 -0.8638
 4391SOL     OW15804   8.886   4.404   0.747 -0.2793 -0.0548  0.1277
 4391SOL    HW115805   8.969   4.358   0.756 -0.9645 -2.1366 -2.6117
 4391SOL    HW215806   8.908   4.497   0.753  2.0844 -0.5683  0.3607
 4392SOL     OW15807   4.049   3.344   3.629 -0.5665 -0.0662 -0.0115
 4392SOL    HW115808   4.137   3.331   3.663 -1.3395 -2.3282  1.3546
 4392SOL    HW215809   4.043   3.285   3.554 -0.6113  0.8641 -0.7573
 4393SOL     OW15810   8.516   4.277   7.499 -0.0022  0.1686  0.0082
 4393SOL    HW115811   8.470   4.277   7.583 -0.6511 -0.9073 -0.3338
 4393SOL    HW215812   8.496   4.363   7.462  1.3013  1.1582  1.4645
 4394SOL     OW15813   1.099   9.426   7.281 -0.6068  0.5054 -0.0139
 4394SOL    HW115814   1.010   9.414   7.250 -0.6662  1.6287 -0.2913
 4394SOL    HW215815   1.138   9.490   7.222  0.2703  0.3126  0.3290
 4395SOL     OW15816   5.573   0.931   7.635 -0.1367  0.0147  0.5704
 4395SOL    HW115817   5.500   0.921   7.573  1.8955  0.3025 -2.0354
 4395SOL    HW215818   5.560   1.017   7.674 -0.6610  0.4983 -0.6217
 4396SOL     OW15819   2.443   3.995   6.070 -0.9528 -0.4920  0.1988
 4396SOL    HW115820   2.502   3.943   6.126 -1.5167  0.1395  1.4158
 4396SOL    HW215821   2.365   3.940   6.060 -1.1371 -0.3142  0.6348
 4397SOL     OW15822   3.494   7.649   6.307 -0.1012  0.3927 -0.0309
 4397SOL    HW115823   3.488   7.627   6.214 -0.1133  0.2715 -0.0009
 4397SOL    HW215824   3.414   7.612   6.345  0.1968 -0.0801  0.1373
 4398SOL     OW15825   0.605   2.843  10.055 -0.2250  0.0387  0.6502
 4398SOL    HW115826   0.557   2.829   9.973  0.7936 -0.9872  0.1918
 4398SOL    HW215827   0.548   2.806  10.122 -0.8010  0.3326  0.3293
 4399SOL     OW15828   7.917   9.255   1.174  0.2782 -0.4177  0.0631
 4399SOL    HW115829   7.845   9.280   1.232  0.9742  1.0350  0.3454
 4399SOL    HW215830   7.919   9.160   1.179 -2.9384 -0.7253 -1.5761
 4400SOL     OW15831   9.241   8.444   0.597  0.8157 -0.0750 -0.1152
 4400SOL    HW115832   9.266   8.466   0.507  0.0882 -2.1081 -0.8589
 4400SOL    HW215833   9.145   8.448   0.597  0.8303  0.5141  0.7549
 4401SOL     OW15834   8.591   8.284   9.656  0.4464  0.3667 -0.0695
 4401SOL    HW115835   8.604   8.202   9.608  0.7635 -0.4572  1.3581
 4401SOL    HW215836   8.500   8.280   9.687  0.7053  0.1515  0.6927
 4402SOL     OW15837   7.958   1.682   4.531 -0.0592  0.5233 -0.5042
 4402SOL    HW115838   8.003   1.743   4.589 -1.3017  0.2684  0.7653
 4402SOL    HW215839   7.906   1.627   4.589 -0.9297 -0.0945 -1.8218
 4403SOL     OW15840   3.534   9.974   3.433 -0.3384 -0.6756 -0.2789
 4403SOL    HW115841   3.574  10.040   3.376 -1.0942 -0.7113 -0.8808
 4403SOL    HW215842   3.446  10.009   3.450  0.0714 -0.3793  1.3695
 4404SOL     OW15843   7.243   1.415   6.280  0.3252  0.6669 -0.0246
 4404SOL    HW115844   7.313   1.433   6.218  3.7737 -3.2742  2.2259
 4404SOL    HW215845   7.219   1.324   6.264 -2.0568  0.9534  1.4048
 4405SOL     OW15846   5.366   0.372   5.776 -0.1314  0.0881 -0.7262
 4405SOL    HW115847   5.449   0.330   5.757  0.7472  1.5562 -0.2681
 4405SOL    HW215848   5.387   0.465   5.786 -1.5856  0.3127  0.7950
 4406SOL     OW15849   0.687   6.713   1.344 -0.4353  0.0885  0.5439
 4406SOL    HW115850   0.747   6.781   1.313  0.2337 -0.2640  1.0370
 4406SOL    HW215851   0.622   6.761   1.395 -0.9032  0.5364 -0.4513
 4407SOL     OW15852   1.908   8.207   8.233 -0.8908  0.0634  0.4844
 4407SOL    HW115853   1.992   8.211   8.277 -1.0363 -0.2183  0.7939
 4407SOL    HW215854   1.926   8.233   8.143 -0.0934 -1.8220  0.0401
 4408SOL     OW15855   6.748   6.700   2.113  0.2703 -0.0440 -0.6441
 4408SOL    HW115856   6.679   6.764   2.131 -0.4286 -0.6669 -1.0467
 4408SOL    HW215857   6.730   6.629   2.174  0.6115 -0.1693 -0.6929
 4409SOL     OW15858   6.730   9.448   5.751 -0.1643  0.1601 -0.2076
 4409SOL    HW115859   6.774   9.364   5.738  1.0914  0.3665  2.1387
 4409SOL    HW215860   6.647   9.439   5.704  0.8216 -1.5848 -1.7575
 4410SOL     OW15861   2.202   6.172   5.611 -0.2094 -0.0790 -0.6421
 4410SOL    HW115862   2.212   6.144   5.702 -1.8918  0.0811 -0.3854
 4410SOL    HW215863   2.250   6.106   5.561  0.4077 -0.3889  0.3225
 4411SOL     OW15864   8.916   8.364   9.480  0.1114 -0.8435  0.0715
 4411SOL    HW115865   8.877   8.447   9.508 -0.2463 -1.5103  1.6520
 4411SOL    HW215866   9.009   8.384   9.469 -0.1004 -0.0545 -0.3461
 4412SOL     OW15867   1.062   8.045   3.909  0.7733  0.7318  0.2172
 4412SOL    HW115868   1.118   8.063   3.834  1.0239  1.6251  0.6018
 4412SOL    HW215869   0.993   8.111   3.904  1.9760  2.2162  1.9301
 4413SOL     OW15870   1.222   4.631   0.219 -0.1689 -0.0870 -0.2727
 4413SOL    HW115871   1.132   4.606   0.241 -0.3700  0.4321 -0.4946
 4413SOL    HW215872   1.213   4.714   0.172  0.4689  0.3041  0.2797
 4414SOL     OW15873   7.915   4.663   0.522  0.3036  0.4719 -0.2240
 4414SOL    HW115874   7.989   4.663   0.461  1.2969  1.3347  0.9280
 4414SOL    HW215875   7.926   4.583   0.573 -1.6251 -1.2989 -2.3499
 4415SOL     OW15876   6.128   9.692   7.343 -0.1677  0.3133  0.3902
 4415SOL    HW115877   6.099   9.607   7.310 -3.3702  0.8056  1.5538
 4415SOL    HW215878   6.167   9.735   7.267 -2.2712 -0.6557 -1.3299
 4416SOL     OW15879  10.119   8.965   8.594 -0.1730 -0.4550  0.3049
 4416SOL    HW115880  10.051   8.899   8.602 -0.3291 -0.3441 -0.0672
 4416SOL    HW215881  10.173   8.955   8.672  0.2146 -1.4828 -0.0848
 4417SOL     OW15882   5.327   8.916   7.449 -0.5892 -0.5557  1.0034
 4417SOL    HW115883   5.362   8.949   7.531  0.9533 -0.1019  0.1965
 4417SOL    HW215884   5.239   8.953   7.444 -0.6077 -0.3867  2.3193
 4418SOL     OW15885   0.217   2.506   8.291 -0.0748 -0.1346  0.0438
 4418SOL    HW115886   0.221   2.552   8.375  0.3244 -0.2628  0.0958
 4418SOL    HW215887   0.290   2.542   8.240 -0.7749  0.5115 -0.5424
 4419SOL     OW15888   5.085   4.373   8.483 -0.5087 -0.3742 -0.3171
 4419SOL    HW115889   5.010   4.355   8.540 -0.1449 -0.5288  0.1173
 4419SOL    HW215890   5.162   4.358   8.538 -0.1545 -0.2024 -0.7535
 4420SOL     OW15891   1.562   5.882   1.006  0.1119  0.2036 -0.0878
 4420SOL    HW115892   1.590   5.799   1.045 -0.1643  0.1284 -0.0474
 4420SOL    HW215893   1.530   5.858   0.919  0.3745  0.3200 -0.2179
 4421SOL     OW15894   1.135   4.446   8.706 -0.9114  0.3279  0.5435
 4421SOL    HW115895   1.107   4.367   8.753  1.7233 -0.8699  0.2777
 4421SOL    HW215896   1.200   4.487   8.764 -0.5287  1.0141 -0.3346
 4422SOL     OW15897   3.400   1.414   9.945 -0.5969  0.3278  0.9161
 4422SOL    HW115898   3.447   1.395   9.863 -0.5735  0.9610  0.7767
 4422SOL    HW215899   3.469   1.423  10.011 -0.6450 -0.7502  1.1353
 4423SOL     OW15900   7.995   6.551   0.913 -0.0767  0.1980  0.4262
 4423SOL    HW115901   8.056   6.624   0.905  0.4165 -0.0326  1.8416
 4423SOL    HW215902   8.043   6.486   0.965 -0.1735 -1.4932 -1.4713
 4424SOL     OW15903   3.559   8.852   1.820  0.2900  0.4557 -0.3519
 4424SOL    HW115904   3.538   8.761   1.798 -0.1276  0.5840 -0.4876
 4424SOL    HW215905   3.486   8.881   1.874  1.7949 -0.2131  2.2097
 4425SOL     OW15906   7.850   6.539   5.816  0.0075 -0.5211  0.1100
 4425SOL    HW115907   7.813   6.554   5.903 -2.0154 -1.4845 -0.5068
 4425SOL    HW215908   7.799   6.595   5.758 -0.0431 -1.3625 -0.6898
 4426SOL     OW15909   7.220   0.731   8.205  0.2143  0.1762 -0.4501
 4426SOL    HW115910   7.191   0.769   8.288 -3.6855 -0.5184 -1.2870
 4426SOL    HW215911   7.183   0.789   8.139 -0.0896 -1.3646 -1.6870
 4427SOL     OW15912   5.690   2.979   1.491  0.2331  0.5020 -0.4334
 4427SOL    HW115913   5.705   2.940   1.577 -0.4568  2.2291  0.5311
 4427SOL    HW215914   5.694   3.074   1.507  1.0502  0.8789 -2.4925
 4428SOL     OW15915   0.656   2.431   9.724  0.1005 -0.4803 -0.3227
 4428SOL    HW115916   0.592   2.363   9.741 -1.1173  0.5358 -0.6942
 4428SOL    HW215917   0.659   2.482   9.805 -0.1132 -0.1043 -0.5452
 4429SOL     OW15918   8.789   9.806   5.695  0.6805 -0.6874  0.7285
 4429SOL    HW115919   8.814   9.864   5.623  1.1477  0.0049  1.4455
 4429SOL    HW215920   8.788   9.719   5.655  0.8952 -0.3072 -0.1322
 4430SOL     OW15921   1.639   1.060   3.820  0.3515  0.0167  0.4017
 4430SOL    HW115922   1.608   1.084   3.733  1.7073  0.1344 -0.0692
 4430SOL    HW215923   1.614   1.134   3.876  1.8717  1.2468 -0.4487
 4431SOL     OW15924   6.067   0.696   0.179 -0.4724  0.4252  0.0329
 4431SOL    HW115925   6.099   0.689   0.269 -1.4094 -0.1353  0.3381
 4431SOL    HW215926   6.066   0.606   0.147 -0.0018  0.6378 -0.5986
 4432SOL     OW15927   3.318   7.334   2.657  0.2364  0.1671 -0.5346
 4432SOL    HW115928   3.262   7.309   2.731  2.6082 -2.8735  0.4073
 4432SOL    HW215929   3.364   7.413   2.688  0.0364 -0.1458  0.6208
 4433SOL     OW15930   1.195   8.523   3.635 -0.1292  0.3063  0.2458
 4433SOL    HW115931   1.174   8.547   3.544  1.4168  0.0288 -0.2262
 4433SOL    HW215932   1.129   8.458   3.658 -2.7577  2.8869  0.6256
 4434SOL     OW15933   0.036   7.296   0.758 -0.2440  0.2109 -0.2644
 4434SOL    HW115934   0.083   7.376   0.780 -1.9716  1.0305  0.6804
 4434SOL    HW215935   0.089   7.226   0.795  0.6941  1.0062 -0.0518
 4435SOL     OW15936   1.831   0.091   3.002  0.1380 -0.1988 -0.4339
 4435SOL    HW115937   1.894   0.129   3.063 -0.5947 -0.1847  0.3149
 4435SOL    HW215938   1.865   0.004   2.984 -0.5402 -0.8489  1.3323
 4436SOL     OW15939   3.177   5.479   4.410 -0.3169  0.5636 -0.2851
 4436SOL    HW115940   3.180   5.496   4.504 -1.9366 -1.7058  0.2653
 4436SOL    HW215941   3.217   5.392   4.401 -1.8656 -0.0686 -1.4137
 4437SOL     OW15942   5.671   6.500   1.887  0.1693  0.2508 -0.1011
 4437SOL    HW115943   5.653   6.568   1.951  1.1188  1.2082 -0.8089
 4437SOL    HW215944   5.629   6.421   1.923  0.4756  0.8027  1.5696
 4438SOL     OW15945   6.411   5.628   7.152 -0.1194  0.0422 -0.2851
 4438SOL    HW115946   6.466   5.619   7.074  0.7386 -1.0232  0.4105
 4438SOL    HW215947   6.389   5.538   7.176 -1.0051  0.3949  0.2696
 4439SOL     OW15948   2.942   2.687   0.978  0.3669  0.1298  0.2042
 4439SOL    HW115949   2.922   2.686   0.884  0.0196 -1.7639  0.2729
 4439SOL    HW215950   2.937   2.596   1.005  0.8800  0.5959  1.9981
 4440SOL     OW15951   8.500   6.852   2.761 -0.3779  0.1708 -0.2694
 4440SOL    HW115952   8.537   6.920   2.705 -0.2535  0.2460 -0.0993
 4440SOL    HW215953   8.444   6.900   2.823  1.1848  0.3577  1.0797
 4441SOL     OW15954   0.096   5.709   0.543  0.5656  0.7076 -0.3752
 4441SOL    HW115955   0.142   5.738   0.622  1.3755  0.2092 -0.6584
 4441SOL    HW215956   0.044   5.786   0.517  1.1105  1.2275  0.0390
 4442SOL     OW15957   6.249   7.116   5.651  0.5158 -0.5197 -0.0055
 4442SOL    HW115958   6.173   7.166   5.681  1.1955 -0.0703  1.0051
 4442SOL    HW215959   6.254   7.135   5.557 -0.6162 -0.5728 -0.0924
 4443SOL     OW15960   3.201   9.709   2.722 -0.2889 -0.3579  0.2245
 4443SOL    HW115961   3.155   9.737   2.644 -1.4346 -0.4677  0.8412
 4443SOL    HW215962   3.264   9.644   2.691  0.2840  0.6604 -0.7865
 4444SOL     OW15963   9.267   4.353   2.961 -0.3382 -0.1339 -0.1771
 4444SOL    HW115964   9.339   4.377   3.019 -1.3563 -0.8748  1.4648
 4444SOL    HW215965   9.252   4.260   2.979 -1.3272 -0.1296 -0.9156
 4445SOL     OW15966   0.744   7.835   3.906 -0.2468 -0.4227  0.4279
 4445SOL    HW115967   0.830   7.797   3.928  0.0921 -0.2190 -0.5148
 4445SOL    HW215968   0.685   7.759   3.904 -0.0443 -0.5971  0.8335
 4446SOL     OW15969   6.106   4.952   2.482 -0.5624 -0.2993 -0.0079
 4446SOL    HW115970   6.168   4.912   2.543 -0.0885 -0.4289 -0.5629
 4446SOL    HW215971   6.045   5.001   2.538 -0.7814 -1.2733  0.6452
 4447SOL     OW15972   8.091   7.707   9.684  0.1217  0.1493  0.2190
 4447SOL    HW115973   7.996   7.714   9.687 -0.0956 -1.8437  3.8732
 4447SOL    HW215974   8.109   7.656   9.605 -1.9749 -0.5818  0.1562
 4448SOL     OW15975   0.967   9.486   2.400 -0.0189 -0.4974 -0.1312
 4448SOL    HW115976   0.966   9.516   2.491  0.0740  1.4248 -0.7299
 4448SOL    HW215977   0.926   9.557   2.350 -0.0753 -1.5162 -1.6058
 4449SOL     OW15978   7.833  10.203   9.960  0.6662 -0.1081 -0.4047
 4449SOL    HW115979   7.921  10.190   9.923  0.4886  1.0357 -1.2757
 4449SOL    HW215980   7.814  10.295   9.944 -1.3880 -0.7084 -1.7481
 4450SOL     OW15981   5.873   2.981   8.207  0.0001 -0.2910 -0.3151
 4450SOL    HW115982   5.871   2.939   8.121 -1.6488  0.0320 -0.4752
 4450SOL    HW215983   5.818   2.925   8.262 -0.8896  0.7398 -0.1147
 4451SOL     OW15984   1.112   5.061   3.528 -0.2008  1.2151 -0.1906
 4451SOL    HW115985   1.098   5.103   3.443  0.9158 -0.7741 -1.4166
 4451SOL    HW215986   1.207   5.052   3.536 -0.2484  1.6824  1.4743
 4452SOL     OW15987   4.936   7.877   1.455 -0.4405 -0.7511  0.0361
 4452SOL    HW115988   4.898   7.794   1.484  1.2840 -1.1998  1.2256
 4452SOL    HW215989   4.872   7.943   1.480 -0.2306 -1.4052  2.5976
 4453SOL     OW15990   1.492   8.019   5.845 -0.1957 -0.0560  0.1300
 4453SOL    HW115991   1.405   7.983   5.861 -0.1764 -0.2071 -0.0950
 4453SOL    HW215992   1.552   7.946   5.860 -0.1654 -0.1527 -0.4412
 4454SOL     OW15993   2.476   8.288   3.516  0.0129 -0.1915 -0.3915
 4454SOL    HW115994   2.452   8.252   3.601 -3.7508  0.3692 -1.0465
 4454SOL    HW215995   2.427   8.236   3.452 -1.3197  2.4438 -1.7431
 4455SOL     OW15996   7.230   7.827   0.580  0.1059 -0.0260 -0.0485
 4455SOL    HW115997   7.202   7.888   0.648  1.6686 -0.2299  0.8288
 4455SOL    HW215998   7.233   7.742   0.625  1.5216 -0.0998 -0.2449
 4456SOL     OW15999   3.364   3.791   2.091  0.1234 -0.3835 -0.1401
 4456SOL    HW116000   3.320   3.737   2.025 -0.0997 -1.5639  0.9300
 4456SOL    HW216001   3.307   3.786   2.168 -0.3142  2.0678 -0.2428
 4457SOL     OW16002   6.884   7.867   1.406 -0.1951  0.4840  0.2488
 4457SOL    HW116003   6.823   7.884   1.478  0.9511  2.2950  0.8687
 4457SOL    HW216004   6.894   7.772   1.405 -2.7400  0.1498  0.3177
 4458SOL     OW16005   8.065   4.242   6.338  0.2282 -0.0727  0.4694
 4458SOL    HW116006   8.149   4.269   6.300  0.4437  0.4630  1.3013
 4458SOL    HW216007   8.014   4.211   6.263  0.9203  0.2409 -0.1481
 4459SOL     OW16008   9.163   7.093   0.975  0.0166 -0.0488 -0.3130
 4459SOL    HW116009   9.169   7.184   1.006 -0.5762  0.1078 -0.6520
 4459SOL    HW216010   9.127   7.100   0.887  1.5962 -0.4997 -1.0399
 4460SOL     OW16011   2.256   1.383   9.150  0.4787  0.3828 -0.3398
 4460SOL    HW116012   2.235   1.365   9.058 -2.9487  0.2604  0.3350
 4460SOL    HW216013   2.269   1.478   9.153  1.1829  0.3199 -0.9976
 4461SOL     OW16014   8.294   8.914   6.546 -0.0644  0.2511 -0.2752
 4461SOL    HW116015   8.346   8.979   6.497 -1.1491  0.6196 -0.9716
 4461SOL    HW216016   8.308   8.832   6.498  1.1265 -0.0156  0.4755
 4462SOL     OW16017   0.821   1.922   6.853  0.5433  0.1827  0.4508
 4462SOL    HW116018   0.874   1.947   6.929  0.8475 -1.7365  0.8985
 4462SOL    HW216019   0.731   1.925   6.885  0.6758 -0.6816  0.9167
 4463SOL     OW16020   5.047   9.672   3.007  0.6377  0.1460  0.5923
 4463SOL    HW116021   4.993   9.751   3.002  1.0036  0.4468  1.2369
 4463SOL    HW216022   4.998   9.605   2.960  1.1613  1.2308 -1.6008
 4464SOL     OW16023   2.609   2.921   5.101  0.0073  0.3042  0.4602
 4464SOL    HW116024   2.651   2.868   5.033 -0.5142 -1.1889  1.2524
 4464SOL    HW216025   2.618   3.011   5.070 -0.6704 -0.3565 -1.8386
 4465SOL     OW16026   9.006   5.901   7.474  0.3424  0.3971 -0.2397
 4465SOL    HW116027   8.926   5.941   7.441 -1.8041 -2.2122  1.3796
 4465SOL    HW216028   9.004   5.917   7.569  2.0433  0.7189 -0.2252
 4466SOL     OW16029   3.130   9.101   9.192  0.4666 -0.2171  0.1514
 4466SOL    HW116030   3.093   9.190   9.196  0.6547 -0.1400  0.1415
 4466SOL    HW216031   3.105   9.062   9.276  1.9871  0.4712  0.9591
 4467SOL     OW16032   9.953   7.018   3.197  0.0924  0.6760  0.5152
 4467SOL    HW116033   9.960   6.992   3.105  1.5717  3.0635 -0.1329
 4467SOL    HW216034   9.956   6.935   3.245 -0.1378 -0.6078 -1.5488
 4468SOL     OW16035   4.711   2.407   7.120 -0.2333  0.3412 -0.7780
 4468SOL    HW116036   4.731   2.438   7.032 -0.8862  0.0106 -1.0455
 4468SOL    HW216037   4.784   2.348   7.141 -0.6371 -0.4542 -1.5436
 4469SOL     OW16038   2.781   3.954   0.038 -0.0316  0.4239  0.1582
 4469SOL    HW116039   2.768   3.876  -0.016 -1.0320 -1.1932  2.5248
 4469SOL    HW216040   2.699   4.002   0.031  0.1835  0.7142 -0.4477
 4470SOL     OW16041   0.923   1.669   8.381  0.0379  0.1083  0.2661
 4470SOL    HW116042   0.873   1.718   8.446 -2.5562 -0.9907 -0.7723
 4470SOL    HW216043   0.868   1.670   8.302  1.1346 -2.1157 -0.6190
 4471SOL     OW16044   0.797   1.509   2.969  0.1796 -0.0120  0.0848
 4471SOL    HW116045   0.889   1.528   2.950  0.1690 -0.3078 -0.2762
 4471SOL    HW216046   0.798   1.470   3.056  0.4431 -0.3688 -0.0745
 4472SOL     OW16047   3.814   1.148   1.798 -0.9523 -0.2413 -0.3679
 4472SOL    HW116048   3.869   1.118   1.726 -0.0716 -1.5096  0.7835
 4472SOL    HW216049   3.763   1.220   1.761 -1.2824 -1.5198 -2.5502
 4473SOL     OW16050   2.158  10.011   3.414  0.1287  0.0762  0.4312
 4473SOL    HW116051   2.172   9.941   3.477  0.8016  1.4596  1.8872
 4473SOL    HW216052   2.244  10.050   3.401 -0.4081  1.3507  0.5380
 4474SOL     OW16053   6.233   8.062   3.585  0.0783  0.1671 -0.1849
 4474SOL    HW116054   6.142   8.039   3.564  0.6102 -0.0386 -2.5091
 4474SOL    HW216055   6.263   8.114   3.511  1.8259  0.3581  0.6056
 4475SOL     OW16056   6.180   4.258   8.555  0.8343 -0.2967 -0.4029
 4475SOL    HW116057   6.202   4.270   8.463  1.0960 -1.3827 -0.4937
 4475SOL    HW216058   6.241   4.313   8.603  0.2139  0.8540 -0.9040
 4476SOL     OW16059   2.081   4.166   2.557  0.4323 -0.4335  0.7455
 4476SOL    HW116060   2.028   4.201   2.629  0.7736  0.1971  0.6939
 4476SOL    HW216061   2.017   4.127   2.497 -0.0858  1.2420  0.1556
 4477SOL     OW16062   4.454   1.300   2.163  0.2588  0.5668 -0.0016
 4477SOL    HW116063   4.364   1.304   2.194  0.0248 -0.8630 -0.4398
 4477SOL    HW216064   4.496   1.377   2.201 -0.6695  0.2470  1.7334
 4478SOL     OW16065   6.464   8.369   1.082  0.0198  0.0023  0.6149
 4478SOL    HW116066   6.428   8.427   1.015 -0.5611 -0.3584  0.6114
 4478SOL    HW216067   6.388   8.324   1.119  0.5731 -1.9334 -0.4671
 4479SOL     OW16068   5.773   9.565   5.075  0.4024  0.4395 -0.6732
 4479SOL    HW116069   5.707   9.621   5.034 -2.2262 -1.2829  0.9351
 4479SOL    HW216070   5.819   9.524   5.002 -0.3195  1.6420 -1.8371
 4480SOL     OW16071   3.684   2.828   2.775 -0.7378  0.2567 -0.1060
 4480SOL    HW116072   3.670   2.920   2.755  0.8840  0.8599  1.2753
 4480SOL    HW216073   3.711   2.789   2.692 -1.8897  0.8949 -0.8053
 4481SOL     OW16074   7.939   1.613   8.907 -0.0500 -0.1590 -0.2307
 4481SOL    HW116075   7.979   1.682   8.855 -0.0997 -0.6688 -0.9709
 4481SOL    HW216076   7.881   1.658   8.969 -1.9524  0.3845 -2.2879
 4482SOL     OW16077   8.058   9.177   7.589 -0.1423  0.2852  1.0384
 4482SOL    HW116078   8.098   9.105   7.639 -1.7284 -0.7057  0.9731
 4482SOL    HW216079   7.966   9.151   7.581 -0.3192  1.3296 -0.7888
 4483SOL     OW16080   4.860   9.096   0.813  0.0481 -0.0682  0.3744
 4483SOL    HW116081   4.764   9.100   0.819  0.0077 -0.5221  0.1249
 4483SOL    HW216082   4.890   9.184   0.835 -0.4149 -0.0029  0.7530
 4484SOL     OW16083   7.308   2.409   1.121 -0.4248 -0.2410 -0.2414
 4484SOL    HW116084   7.278   2.470   1.189  0.8643  0.3987 -0.2228
 4484SOL    HW216085   7.246   2.422   1.049 -2.4511 -1.6716  1.1261
 4485SOL     OW16086   6.253   9.320   5.978 -0.0435 -0.4693  0.1394
 4485SOL    HW116087   6.245   9.385   5.908 -1.1374 -0.2650  0.4458
 4485SOL    HW216088   6.269   9.238   5.932  0.4499 -0.1392 -0.2922
 4486SOL     OW16089   5.409   8.750   5.859 -0.2124  0.0749 -0.6860
 4486SOL    HW116090   5.452   8.712   5.935  0.1691  0.1326 -0.8747
 4486SOL    HW216091   5.392   8.676   5.802 -1.9407 -0.2227  0.1410
 4487SOL     OW16092   2.783   4.247   7.628  0.3661 -0.2097 -0.4694
 4487SOL    HW116093   2.857   4.218   7.574  0.1887 -1.1281 -0.2271
 4487SOL    HW216094   2.789   4.343   7.626  3.0372 -0.2140  1.5216
 4488SOL     OW16095   5.576   4.378   6.673  0.3457 -0.0255  0.0906
 4488SOL    HW116096   5.502   4.322   6.694 -0.5054  0.4732 -1.4354
 4488SOL    HW216097   5.537   4.454   6.629  1.5170  1.4675  1.4642
 4489SOL     OW16098   5.123   8.041   7.632  0.1579  0.1147  0.4800
 4489SOL    HW116099   5.157   8.051   7.721 -1.1751 -0.1886  1.0579
 4489SOL    HW216100   5.081   8.125   7.614  0.3005  0.1246  0.1933
 4490SOL     OW16101   2.754   1.658   2.949  0.1362  0.0381 -0.2417
 4490SOL    HW116102   2.767   1.714   2.872  0.4139  0.4955  0.1360
 4490SOL    HW216103   2.778   1.570   2.918  1.1640  0.3711 -0.4238
 4491SOL     OW16104   8.556   7.157   7.487 -0.1114  0.2087 -0.7267
 4491SOL    HW116105   8.499   7.201   7.550  1.7604  1.2486  0.3180
 4491SOL    HW216106   8.552   7.064   7.513 -1.7290  0.1507 -1.0505
 4492SOL     OW16107   3.704   0.336   8.215 -0.0994 -0.5037  0.4180
 4492SOL    HW116108   3.640   0.318   8.146  0.6871  1.4399 -0.9091
 4492SOL    HW216109   3.734   0.250   8.243 -1.8878 -1.3954 -0.2678
 4493SOL     OW16110   4.604   6.314   3.988 -0.1225  0.2229 -0.2623
 4493SOL    HW116111   4.584   6.399   3.947 -0.5348  0.3604  0.2156
 4493SOL    HW216112   4.664   6.271   3.926  0.3667  1.0030 -0.3438
 4494SOL     OW16113   0.951   1.310   2.474  0.8869 -0.6533 -0.5618
 4494SOL    HW116114   1.014   1.355   2.419  2.4178 -0.9955  0.8220
 4494SOL    HW216115   0.951   1.360   2.556  0.1410 -1.2670 -0.1711
 4495SOL     OW16116   6.853   6.086   4.395 -0.1798  0.3735  0.0956
 4495SOL    HW116117   6.811   6.007   4.363  0.4772 -0.4291  1.1472
 4495SOL    HW216118   6.785   6.154   4.387 -0.2546  0.0950 -2.2451
 4496SOL     OW16119   3.250   8.386   6.781  0.1975 -0.0790 -0.1561
 4496SOL    HW116120   3.235   8.461   6.838 -0.6744  0.2748 -0.8389
 4496SOL    HW216121   3.267   8.313   6.841 -0.2146  0.3936  0.5449
 4497SOL     OW16122   3.828   3.875   0.687  0.2152  0.1448 -0.0571
 4497SOL    HW116123   3.865   3.922   0.762 -1.0838 -0.0303  0.7364
 4497SOL    HW216124   3.829   3.939   0.616  1.2987  0.3749  0.1532
 4498SOL     OW16125   8.987   2.764   3.931 -0.7300 -0.4178 -0.0193
 4498SOL    HW116126   8.989   2.827   4.003 -0.0408 -0.4858  0.0357
 4498SOL    HW216127   8.922   2.699   3.957 -1.8188  0.5383 -0.3076
 4499SOL     OW16128   3.340   3.412   8.577  0.0650  0.0692 -0.1444
 4499SOL    HW116129   3.264   3.370   8.617  0.5693 -1.9373 -1.1578
 4499SOL    HW216130   3.415   3.364   8.611  0.8814  1.6239  0.3637
 4500SOL     OW16131   4.110   3.520   3.331  0.6228 -0.1160  0.5812
 4500SOL    HW116132   4.065   3.511   3.246 -0.2295 -0.1326  1.0212
 4500SOL    HW216133   4.066   3.457   3.387  0.6491  0.4531  1.2525
 4501SOL     OW16134   5.752   0.902   0.894 -0.2537 -0.1139  0.1589
 4501SOL    HW116135   5.747   0.984   0.942  0.6028 -0.9545  1.8005
 4501SOL    HW216136   5.824   0.914   0.832 -1.0920  0.8410 -0.6632
 4502SOL     OW16137   8.434   1.745   8.140  0.2332  0.3032 -0.7307
 4502SOL    HW116138   8.451   1.794   8.059  0.7172  0.2686 -0.6522
 4502SOL    HW216139   8.487   1.666   8.131 -2.4894 -1.5098 -2.0380
 4503SOL     OW16140   8.848   5.445   2.396 -0.4840  0.3285 -0.8915
 4503SOL    HW116141   8.848   5.466   2.303 -1.7427  1.5578 -0.6469
 4503SOL    HW216142   8.811   5.523   2.438 -1.5610 -0.8651  0.4624
 4504SOL     OW16143   2.310   6.154   2.226  0.3382 -0.0485  0.2502
 4504SOL    HW116144   2.275   6.073   2.191 -1.5807  0.9040 -0.1827
 4504SOL    HW216145   2.233   6.205   2.252  1.3330  2.2589 -0.9268
 4505SOL     OW16146  10.212   2.420   4.802 -0.2863  0.2794  0.1300
 4505SOL    HW116147  10.209   2.327   4.783  2.6778 -0.0267  0.6381
 4505SOL    HW216148  10.216   2.425   4.898  0.7216  0.8306  0.0744
 4506SOL     OW16149   7.137   0.986   2.354 -0.6158  0.6878  0.0240
 4506SOL    HW116150   7.113   1.064   2.405 -0.6319  1.3460 -0.9616
 4506SOL    HW216151   7.101   1.003   2.267  0.2798  0.0445 -0.4861
 4507SOL     OW16152   6.986   3.410   1.213 -0.0366  0.4326 -1.3281
 4507SOL    HW116153   7.051   3.457   1.265  0.0383 -0.9730 -0.0972
 4507SOL    HW216154   7.034   3.380   1.136  0.8087 -0.5632 -0.4472
 4508SOL     OW16155   5.759   7.875   1.808 -0.1126  0.1041  0.2238
 4508SOL    HW116156   5.730   7.786   1.786 -2.5746  1.0230 -0.5550
 4508SOL    HW216157   5.791   7.869   1.898 -1.4769 -1.3379  0.6582
 4509SOL     OW16158   4.953   2.689   3.600  0.3704  0.1627  0.3452
 4509SOL    HW116159   4.903   2.630   3.656  0.5924 -0.6675 -0.3144
 4509SOL    HW216160   4.900   2.768   3.594  0.1357  0.0957  1.3566
 4510SOL     OW16161   7.953   0.926   8.330  0.4329 -0.1289 -0.0191
 4510SOL    HW116162   7.920   0.900   8.244  0.2419  0.9356 -0.2834
 4510SOL    HW216163   7.975   1.018   8.321 -0.0685  0.1376  1.2143
 4511SOL     OW16164   5.175   9.429   5.917  0.7755  0.2426 -0.0188
 4511SOL    HW116165   5.083   9.445   5.940  1.3000  0.2324  2.3455
 4511SOL    HW216166   5.180   9.335   5.901  0.2874  0.3267 -0.7322
 4512SOL     OW16167   3.144   2.417   6.958  0.6825  0.4649  0.3147
 4512SOL    HW116168   3.139   2.345   7.021  0.6582 -2.0863 -2.3798
 4512SOL    HW216169   3.087   2.484   6.994 -1.5794 -1.9810  1.6715
 4513SOL     OW16170   2.425   0.340   2.892 -0.7179  0.0352 -0.0604
 4513SOL    HW116171   2.395   0.293   2.814  2.1115 -0.5454 -0.8832
 4513SOL    HW216172   2.439   0.429   2.862  0.7015 -0.2663 -0.3463
 4514SOL     OW16173   7.991   0.072   4.650  0.0239 -0.1073 -0.6466
 4514SOL    HW116174   7.920   0.137   4.648 -0.0800 -0.2152 -0.4837
 4514SOL    HW216175   8.056   0.109   4.709 -0.9382 -1.0759  1.0974
 4515SOL     OW16176   0.616   6.485   7.734  0.2414 -0.2129  0.0808
 4515SOL    HW116177   0.709   6.503   7.717 -0.1340  0.4603 -1.4248
 4515SOL    HW216178   0.583   6.451   7.651 -0.4237 -2.4563  1.2032
 4516SOL     OW16179   0.911   4.526   2.060  0.8443  0.2023  0.6361
 4516SOL    HW116180   0.998   4.517   2.020  0.3260  1.9081 -1.0256
 4516SOL    HW216181   0.894   4.620   2.059 -0.5000  0.0126  2.1526
 4517SOL     OW16182   5.995   5.669   5.862 -0.1555  0.5854  0.1240
 4517SOL    HW116183   6.011   5.597   5.923 -1.1922  0.6814  0.5294
 4517SOL    HW216184   5.950   5.735   5.914 -0.0933  1.1206 -0.4922
 4518SOL     OW16185   7.258   1.452   1.312 -0.9397 -0.1080 -0.1459
 4518SOL    HW116186   7.248   1.524   1.250 -1.8517  0.6890  0.8792
 4518SOL    HW216187   7.288   1.493   1.393  0.5480 -1.1685 -0.1124
 4519SOL     OW16188   4.307   8.189   1.006 -0.0554  0.3033 -0.2387
 4519SOL    HW116189   4.256   8.130   0.951 -1.1056  0.5565  0.4496
 4519SOL    HW216190   4.298   8.154   1.095 -1.8301  2.2156  0.4097
 4520SOL     OW16191   1.073   5.767   8.648  0.6099 -0.3736 -0.3133
 4520SOL    HW116192   1.080   5.782   8.553  2.1603  2.2150  0.0946
 4520SOL    HW216193   0.983   5.791   8.669  1.2297  2.7828 -0.7124
 4521SOL     OW16194  10.259   7.262   3.522 -0.1960  0.2880  1.0120
 4521SOL    HW116195  10.292   7.253   3.432 -2.5272 -1.7914  0.2489
 4521SOL    HW216196  10.224   7.351   3.526 -1.3176 -0.0227 -0.6759
 4522SOL     OW16197   4.955   6.548   3.263  1.1211  0.2383  0.3904
 4522SOL    HW116198   4.884   6.498   3.223  1.5619 -0.7803  0.8224
 4522SOL    HW216199   5.005   6.583   3.189  0.8151  0.0006  0.0684
 4523SOL     OW16200   5.795   8.560   9.826  0.4570  0.1603  0.0769
 4523SOL    HW116201   5.872   8.508   9.803 -0.3543 -1.2338  0.3619
 4523SOL    HW216202   5.726   8.495   9.840  0.1229  1.0520  3.5001
 4524SOL     OW16203   8.059   4.683   5.883  0.5164 -0.0408 -0.8704
 4524SOL    HW116204   8.017   4.720   5.806 -0.3103  0.5414 -0.1658
 4524SOL    HW216205   8.099   4.757   5.927  0.1128 -0.2003 -0.2183
 4525SOL     OW16206   6.268   1.428   8.171  0.2309 -0.0139 -0.7384
 4525SOL    HW116207   6.338   1.395   8.228 -2.2000 -0.9196  1.9874
 4525SOL    HW216208   6.197   1.364   8.181 -2.4541  2.7976 -0.0823
 4526SOL     OW16209   1.013   0.418   7.162  0.4451 -0.2552 -0.4015
 4526SOL    HW116210   0.952   0.350   7.132  1.2751 -0.8462 -0.8049
 4526SOL    HW216211   0.960   0.497   7.167  0.1587 -0.1454 -3.2805
 4527SOL     OW16212   1.152   1.134   3.365  0.1782 -0.2852 -0.0084
 4527SOL    HW116213   1.234   1.176   3.393  0.2961 -1.5830  1.7381
 4527SOL    HW216214   1.151   1.051   3.411 -3.3983  0.7936  2.1898
 4528SOL     OW16215   7.628   0.307   1.444 -0.5158  0.3586  0.0042
 4528SOL    HW116216   7.675   0.248   1.384 -2.2689  0.2619 -1.3616
 4528SOL    HW216217   7.693   0.372   1.470  0.6592 -0.4067 -0.9057
 4529SOL     OW16218   9.875   6.439   7.304 -0.2413  0.3215  0.1027
 4529SOL    HW116219   9.832   6.358   7.329  0.8416 -0.6052 -0.9170
 4529SOL    HW216220   9.950   6.446   7.362 -0.7926  1.0577  0.7517
 4530SOL     OW16221   4.837   8.043   4.632  0.2357  0.4382 -0.1834
 4530SOL    HW116222   4.763   8.035   4.692  0.1888 -0.4606 -0.3395
 4530SOL    HW216223   4.909   8.074   4.687  0.1639 -0.2657  0.3220
 4531SOL     OW16224  10.253   7.318   7.712 -0.1000 -0.3449  0.2940
 4531SOL    HW116225  10.252   7.397   7.766 -0.9496 -0.7564  0.8922
 4531SOL    HW216226  10.345   7.292   7.710  0.4972  1.6404 -1.3848
 4532SOL     OW16227   5.953   1.672   9.332  0.2497  0.4219 -0.2351
 4532SOL    HW116228   5.918   1.661   9.421  0.8164  0.5882  0.0124
 4532SOL    HW216229   5.975   1.583   9.304  0.1963  0.3840 -0.1583
 4533SOL     OW16230   7.238   0.570   1.206  0.1458  1.1356 -0.0938
 4533SOL    HW116231   7.157   0.532   1.241  0.8950  0.3929  0.9102
 4533SOL    HW216232   7.227   0.664   1.217 -1.5504  1.2337 -2.1717
 4534SOL     OW16233   7.516   8.320   7.035  0.0406 -0.3807 -0.1495
 4534SOL    HW116234   7.542   8.408   7.061 -1.0206  0.5336 -1.9363
 4534SOL    HW216235   7.451   8.294   7.101  0.7513 -0.0529  0.6891
 4535SOL     OW16236   7.009   8.847   7.280  0.4694  0.3455  0.3879
 4535SOL    HW116237   7.054   8.796   7.213 -0.7524 -0.2752  0.0169
 4535SOL    HW216238   6.999   8.934   7.241  0.6322  0.2648  0.1617
 4536SOL     OW16239   8.974   0.392   9.127 -0.1472 -0.4183 -0.1873
 4536SOL    HW116240   8.976   0.466   9.187 -0.2856 -0.0126 -0.6777
 4536SOL    HW216241   9.057   0.346   9.143  0.4579  0.4776 -0.6710
 4537SOL     OW16242   6.706   3.000   0.834 -0.0451  0.2913 -0.2175
 4537SOL    HW116243   6.735   2.918   0.794 -1.0807 -0.4288  0.4381
 4537SOL    HW216244   6.767   3.066   0.802  0.4090 -0.6214 -1.2930
 4538SOL     OW16245   3.069   0.607   5.177  0.1010 -0.2314 -0.5589
 4538SOL    HW116246   3.148   0.585   5.226  1.2246  1.6179 -1.4060
 4538SOL    HW216247   3.086   0.695   5.143 -2.9815  0.9028  0.5192
 4539SOL     OW16248   0.969   9.905   1.495  0.4530 -0.8406 -0.3782
 4539SOL    HW116249   0.965   9.877   1.404 -0.1944  0.1464 -0.6664
 4539SOL    HW216250   0.977  10.000   1.490  2.3597 -0.8952  0.5678
 4540SOL     OW16251   4.081   2.180   5.552 -0.5711  0.2446 -0.2094
 4540SOL    HW116252   4.074   2.265   5.596  0.0497  0.0460  0.2823
 4540SOL    HW216253   4.149   2.134   5.599 -1.9705 -1.1495  0.5318
 4541SOL     OW16254   8.564   1.765   1.572 -0.1307 -0.0411  0.5116
 4541SOL    HW116255   8.547   1.674   1.547  0.8916 -0.4472  1.2356
 4541SOL    HW216256   8.527   1.773   1.660 -0.0901  0.2106  0.5066
 4542SOL     OW16257   4.859   7.447   1.714  1.0630 -0.9906  0.0656
 4542SOL    HW116258   4.772   7.461   1.753  0.5250  1.0556 -1.6760
 4542SOL    HW216259   4.845   7.375   1.652  0.0933  0.4423 -1.4696
 4543SOL     OW16260   0.879   1.221   1.709 -0.4730 -0.3057  0.0925
 4543SOL    HW116261   0.808   1.229   1.773  0.3408  0.8957  0.8869
 4543SOL    HW216262   0.868   1.134   1.672 -2.3554 -0.1573  0.1973
 4544SOL     OW16263   3.187   0.160   1.803 -0.5052 -0.1319 -0.0971
 4544SOL    HW116264   3.112   0.219   1.807  0.6602  1.3900  1.6770
 4544SOL    HW216265   3.233   0.175   1.886  1.5159 -1.3118 -0.9224
 4545SOL     OW16266   2.294   0.221   6.462  0.3647 -0.4989  0.7226
 4545SOL    HW116267   2.249   0.136   6.459 -0.9882  0.1654  1.2271
 4545SOL    HW216268   2.369   0.207   6.519 -1.0448 -0.8500  2.5933
 4546SOL     OW16269   8.697   1.270   3.084  0.0038  0.1379  0.0037
 4546SOL    HW116270   8.698   1.246   2.991  2.5368 -0.3713  0.0892
 4546SOL    HW216271   8.660   1.193   3.128  0.2208 -0.2419 -0.4605
 4547SOL     OW16272   4.077   2.146   1.681 -0.2534 -0.3194 -0.3185
 4547SOL    HW116273   4.072   2.110   1.770 -2.2180 -2.1784 -1.1018
 4547SOL    HW216274   3.991   2.130   1.644  0.2920  1.0773 -2.3573
 4548SOL     OW16275   1.580   2.240   2.181 -0.1145 -0.0757 -0.3170
 4548SOL    HW116276   1.585   2.260   2.274  2.2749  1.0478 -0.6172
 4548SOL    HW216277   1.586   2.144   2.177 -0.1292 -0.1257  0.6714
 4549SOL     OW16278   5.481   2.368   7.183  0.1057 -0.1577  0.3093
 4549SOL    HW116279   5.387   2.352   7.178  0.1919 -1.0328  1.1941
 4549SOL    HW216280   5.520   2.303   7.125  0.1360  0.8127 -0.8030
 4550SOL     OW16281   2.743   1.751   6.359 -0.4818  0.4571 -0.2122
 4550SOL    HW116282   2.763   1.706   6.277 -3.6151 -0.6314 -0.5533
 4550SOL    HW216283   2.811   1.817   6.368  2.5633 -2.2379 -1.3399
 4551SOL     OW16284   5.859   2.291   1.226 -0.3576 -0.0755 -0.3378
 4551SOL    HW116285   5.910   2.349   1.283 -0.4112 -1.7875  1.5399
 4551SOL    HW216286   5.780   2.341   1.205 -0.4357  0.5118  1.2848
 4552SOL     OW16287   7.510   9.623   8.346 -0.9548 -0.4617  0.4528
 4552SOL    HW116288   7.577   9.554   8.351  0.1396  0.3971 -1.3263
 4552SOL    HW216289   7.434   9.579   8.308 -0.2070 -0.6766 -0.8480
 4553SOL     OW16290   2.900   5.093  10.310  0.2601 -0.5505 -0.5824
 4553SOL    HW116291   2.856   5.126  10.388  0.1022  0.1786 -0.9608
 4553SOL    HW216292   2.831   5.091  10.243  0.1949 -1.9946 -0.4847
 4554SOL     OW16293   6.256   4.587   2.844 -0.5856  0.4574 -0.0950
 4554SOL    HW116294   6.235   4.537   2.923 -0.0616  1.0219  0.4094
 4554SOL    HW216295   6.352   4.582   2.838 -0.6630 -0.1354 -1.0682
 4555SOL     OW16296   2.177   6.476   6.017  0.2816  0.1089 -0.1206
 4555SOL    HW116297   2.122   6.406   6.051 -0.9323  1.5319  0.9908
 4555SOL    HW216298   2.123   6.520   5.951  0.9585  0.1024 -0.6863
 4556SOL     OW16299   3.106   4.155   6.931 -0.2139 -0.5763 -0.3914
 4556SOL    HW116300   3.093   4.166   7.025  1.3654 -0.0322 -0.2058
 4556SOL    HW216301   3.122   4.243   6.897 -1.2658 -0.7001 -1.2700
 4557SOL     OW16302   9.290   3.735   8.005 -0.0563  0.2227  0.5266
 4557SOL    HW116303   9.355   3.683   8.051 -0.3619  1.6141  2.6836
 4557SOL    HW216304   9.342   3.794   7.949  0.4036 -0.2482  0.4439
 4558SOL     OW16305   3.362   8.525   2.097 -0.6069 -0.2532  0.0166
 4558SOL    HW116306   3.371   8.458   2.166  1.4092 -1.2189 -1.1062
 4558SOL    HW216307   3.311   8.595   2.138 -0.5823 -1.3642  2.0655
 4559SOL     OW16308   8.876   5.357   2.064 -0.0512  0.0486 -0.0472
 4559SOL    HW116309   8.911   5.292   2.126 -1.6131 -0.8240 -0.0114
 4559SOL    HW216310   8.867   5.308   1.982  0.8374  0.8566 -0.6340
 4560SOL     OW16311   7.347  10.349   0.630 -0.0236  0.3653  0.1216
 4560SOL    HW116312   7.262  10.391   0.615 -0.8913 -1.2873  0.1765
 4560SOL    HW216313   7.350  10.278   0.566  0.2855 -1.0139  1.6158
 4561SOL     OW16314   5.009   2.338   7.098  0.2484 -0.5084 -0.5477
 4561SOL    HW116315   4.981   2.416   7.051 -1.6634  0.5691  2.1165
 4561SOL    HW216316   4.967   2.265   7.052 -3.4783  0.6937  0.5789
 4562SOL     OW16317   0.664   0.115   2.691 -0.2792 -0.3754  0.8094
 4562SOL    HW116318   0.757   0.093   2.687  0.3042  1.6235  1.6671
 4562SOL    HW216319   0.646   0.160   2.609 -0.3479 -0.2923  0.8696
 4563SOL     OW16320   9.320   0.483   3.391 -0.3942  0.1111 -0.1825
 4563SOL    HW116321   9.291   0.446   3.475  0.8936  1.1694  0.7958
 4563SOL    HW216322   9.263   0.558   3.376 -0.4686  0.0678 -0.1131
 4564SOL     OW16323   1.429   6.268   3.635 -0.0031  0.0247 -0.3233
 4564SOL    HW116324   1.485   6.250   3.711  0.2044  0.4332 -0.3754
 4564SOL    HW216325   1.400   6.358   3.647  2.2003  1.0691 -2.0612
 4565SOL     OW16326   2.333   3.581   6.151 -0.1317 -0.4017  0.0922
 4565SOL    HW116327   2.271   3.652   6.136  0.2148  0.1758  1.2861
 4565SOL    HW216328   2.341   3.538   6.066 -0.0893  1.1993 -0.7507
 4566SOL     OW16329   8.606   7.479   1.693 -0.3323 -0.0374 -0.3042
 4566SOL    HW116330   8.616   7.388   1.665 -1.1751  0.2331 -1.6328
 4566SOL    HW216331   8.548   7.517   1.627  0.8692  1.7509 -0.3952
 4567SOL     OW16332   3.437   6.357   6.181  0.0644  0.4543  0.2133
 4567SOL    HW116333   3.360   6.362   6.124  0.0675 -0.1391  0.1448
 4567SOL    HW216334   3.430   6.271   6.223 -0.8439  1.5516  2.4481
 4568SOL     OW16335   4.746   3.802   8.538  0.4671 -0.3739 -0.1955
 4568SOL    HW116336   4.698   3.747   8.600 -1.6840  0.8208 -0.7125
 4568SOL    HW216337   4.827   3.754   8.523  0.4510 -1.4286  2.4006
 4569SOL     OW16338   4.054   0.531   6.414  0.2690 -0.3658 -0.5908
 4569SOL    HW116339   4.042   0.608   6.469 -0.0481  0.5144 -1.8399
 4569SOL    HW216340   4.104   0.563   6.339 -0.9299 -1.0949 -1.7262
 4570SOL     OW16341   9.498   1.675   5.349  0.6510  0.5929 -0.0268
 4570SOL    HW116342   9.506   1.652   5.257 -0.7568  2.8042 -0.7764
 4570SOL    HW216343   9.585   1.702   5.375  0.9710  0.3497 -0.8158
 4571SOL     OW16344   6.159   6.969   8.226  0.1570  0.1257 -0.3267
 4571SOL    HW116345   6.076   7.003   8.193 -0.4796 -0.4643  0.6097
 4571SOL    HW216346   6.145   6.958   8.320  1.7039  1.1867  0.0736
 4572SOL     OW16347   3.004   2.649   3.343  0.0704 -0.5883 -0.0044
 4572SOL    HW116348   2.970   2.737   3.360  1.0549 -0.5239  1.8826
 4572SOL    HW216349   2.927   2.593   3.348 -0.2612 -0.0739  0.9521
 4573SOL     OW16350   4.704   1.862   8.444 -0.3892  0.3310 -0.5287
 4573SOL    HW116351   4.647   1.877   8.368 -0.7184 -0.2473 -0.4051
 4573SOL    HW216352   4.660   1.791   8.493  1.3384 -1.4031 -1.3636
 4574SOL     OW16353   0.075   2.049   1.961 -0.5173 -0.3757  0.1857
 4574SOL    HW116354   0.089   2.138   1.928  1.6101 -0.3242  1.0819
 4574SOL    HW216355  -0.014   2.027   1.932 -0.3542  1.2565 -1.8228
 4575SOL     OW16356   4.909   7.611   5.740 -0.4392  0.5830 -0.1473
 4575SOL    HW116357   4.892   7.558   5.663  2.0031 -2.4131  1.1583
 4575SOL    HW216358   4.969   7.679   5.710  0.0642 -0.2236 -1.0283
 4576SOL     OW16359   8.413   2.339   9.621  0.3585  0.0858  0.0144
 4576SOL    HW116360   8.428   2.244   9.623 -1.0849 -0.1570  1.2534
 4576SOL    HW216361   8.415   2.366   9.713 -0.4815  1.0192 -0.2170
 4577SOL     OW16362   6.142   7.698   7.729 -0.2046 -0.1430 -0.2998
 4577SOL    HW116363   6.148   7.616   7.682  0.1581  0.9496 -2.2517
 4577SOL    HW216364   6.063   7.740   7.695 -0.1315  0.5287  0.3135
 4578SOL     OW16365   1.357   5.079   5.840 -0.4164  0.1194  0.4302
 4578SOL    HW116366   1.389   5.006   5.893  0.1842 -1.0734 -1.4832
 4578SOL    HW216367   1.336   5.148   5.903 -0.2923 -1.4372  2.2335
 4579SOL     OW16368   2.316   3.766   7.279  0.1489  0.5468 -0.2592
 4579SOL    HW116369   2.288   3.738   7.192  0.1115 -0.1794 -0.0225
 4579SOL    HW216370   2.410   3.748   7.281  0.3878  1.6960 -0.5684
 4580SOL     OW16371   9.978  10.296   6.110 -0.0188  0.3818  0.0632
 4580SOL    HW116372   9.948  10.342   6.189  0.7503  1.7124 -0.3748
 4580SOL    HW216373  10.073  10.302   6.114  0.0276  0.6157 -1.0380
 4581SOL     OW16374   2.690   4.963   4.808  0.5405 -0.2673 -0.0505
 4581SOL    HW116375   2.731   4.930   4.888  1.0594 -0.9360 -0.5791
 4581SOL    HW216376   2.633   4.892   4.779  1.8238 -0.8393 -1.3158
 4582SOL     OW16377   6.890   1.141   7.671 -0.3090 -0.7546  0.0385
 4582SOL    HW116378   6.892   1.060   7.620  0.1506 -0.6768 -0.0704
 4582SOL    HW216379   6.816   1.190   7.635 -0.1977 -0.8505 -0.3212
 4583SOL     OW16380   7.070   6.970   6.105  0.0534  0.0235  0.1178
 4583SOL    HW116381   7.017   6.899   6.142  0.1164 -0.2513 -0.3212
 4583SOL    HW216382   7.117   7.006   6.181  0.7411 -1.0165  0.2147
 4584SOL     OW16383   2.933   0.947   5.066 -0.4161 -0.2692 -0.5987
 4584SOL    HW116384   2.903   0.976   5.153 -0.4860 -1.5439 -0.1830
 4584SOL    HW216385   3.022   0.914   5.081  0.0424  0.6229 -1.2530
 4585SOL     OW16386   0.567   7.902   1.169 -0.0017  0.0202  0.0236
 4585SOL    HW116387   0.612   7.891   1.252  0.7412 -1.1831 -0.5021
 4585SOL    HW216388   0.634   7.880   1.103 -0.4984  1.1879 -0.8977
 4586SOL     OW16389   0.777   7.457   0.418  0.3658 -0.1819  0.0021
 4586SOL    HW116390   0.692   7.434   0.381  0.2168 -0.2182  0.3632
 4586SOL    HW216391   0.757   7.518   0.489  0.7337  0.7619 -0.6938
 4587SOL     OW16392   7.433   6.996   9.637  0.6262  0.4424 -0.1892
 4587SOL    HW116393   7.463   6.905   9.644 -2.0573 -0.5261 -0.2109
 4587SOL    HW216394   7.462   7.037   9.719  1.3729 -0.5764  0.0750
 4588SOL     OW16395   8.432   7.508   4.631 -0.1153  0.2630 -0.1223
 4588SOL    HW116396   8.445   7.521   4.725  0.5466 -0.1094 -0.1525
 4588SOL    HW216397   8.388   7.423   4.624  0.2939  0.0526 -0.1697
 4589SOL     OW16398   3.417   0.743   1.266  0.2906 -0.5230 -0.3091
 4589SOL    HW116399   3.346   0.689   1.229  0.3035 -0.3974 -0.5168
 4589SOL    HW216400   3.391   0.757   1.357 -0.1749 -0.1109 -0.4990
 4590SOL     OW16401   0.635   5.741   6.186  0.1144  0.3306  0.4386
 4590SOL    HW116402   0.677   5.823   6.160 -0.2809  0.6182  0.7075
 4590SOL    HW216403   0.561   5.732   6.125  1.3472 -0.8871 -0.9771
 4591SOL     OW16404   3.591   1.230   0.652  0.5443 -0.2462  0.5439
 4591SOL    HW116405   3.496   1.219   0.644  0.5552 -0.0564  0.0918
 4591SOL    HW216406   3.625   1.196   0.569  0.7161  1.4558 -0.1353
 4592SOL     OW16407   5.586   5.903   8.096  0.3023  0.0458 -0.2455
 4592SOL    HW116408   5.565   5.832   8.157  1.7102 -0.5604 -0.4203
 4592SOL    HW216409   5.514   5.904   8.033  1.0048 -2.3235 -1.1835
 4593SOL     OW16410   8.321   4.417   0.858 -0.6862 -0.1471 -0.5556
 4593SOL    HW116411   8.345   4.353   0.791 -0.6509  0.7476 -1.4266
 4593SOL    HW216412   8.326   4.501   0.813  3.1204  0.9335  1.4986
 4594SOL     OW16413   4.618   8.015   9.826  0.0744  0.1079 -0.8568
 4594SOL    HW116414   4.649   7.980   9.742  0.5388  0.3719 -0.8028
 4594SOL    HW216415   4.618   8.110   9.813  1.2597  0.2185 -0.2008
 4595SOL     OW16416   0.804   9.394  10.162  0.3006 -0.4491  1.0204
 4595SOL    HW116417   0.821   9.437  10.246 -0.7022  0.0871  0.9695
 4595SOL    HW216418   0.724   9.436  10.130  1.1920  0.0482 -0.6660
 4596SOL     OW16419  10.173   7.066   8.091  0.6944 -0.0237  0.0295
 4596SOL    HW116420  10.090   7.039   8.131 -0.2200  2.3802 -0.1220
 4596SOL    HW216421  10.223   7.104   8.163  0.0062  2.1302 -0.5514
 4597SOL     OW16422   4.525   7.351   5.980  0.0452 -0.4977  0.0192
 4597SOL    HW116423   4.614   7.377   5.956  0.1112  0.8615  1.5644
 4597SOL    HW216424   4.527   7.344   6.076 -2.1804  2.5324  0.4289
 4598SOL     OW16425   0.025  10.253   4.897  0.0293  0.2795 -0.0767
 4598SOL    HW116426   0.094  10.215   4.952  0.2273 -0.2233 -0.6522
 4598SOL    HW216427   0.070  10.278   4.817  0.0007  2.2735  0.4883
 4599SOL     OW16428   9.112   7.092   4.229  0.1614 -0.3570  0.3633
 4599SOL    HW116429   9.154   7.132   4.153 -0.0478  0.1159  0.4942
 4599SOL    HW216430   9.050   7.029   4.191  0.4242 -0.4950  0.1557
 4600SOL     OW16431  10.260   6.610   2.758 -0.4692 -0.0958  0.0246
 4600SOL    HW116432  10.191   6.638   2.698 -1.6729 -0.5523  1.1558
 4600SOL    HW216433  10.340   6.615   2.706 -1.2177  1.3216 -1.0500
 4601SOL     OW16434   6.428   4.568   3.781  0.1234  0.3998  0.1598
 4601SOL    HW116435   6.487   4.625   3.830  0.2251 -0.3797  0.9589
 4601SOL    HW216436   6.363   4.628   3.743  0.0919  1.0307  1.1709
 4602SOL     OW16437   9.937   6.701   0.682 -0.4048 -0.2461 -0.0229
 4602SOL    HW116438   9.894   6.668   0.603 -1.6205 -0.0692  0.5567
 4602SOL    HW216439  10.000   6.765   0.649 -0.4886 -0.5846 -0.8825
 4603SOL     OW16440   2.381   8.344   8.947  0.1488  0.5636  0.2080
 4603SOL    HW116441   2.328   8.413   8.905  0.6584  0.9839  0.2384
 4603SOL    HW216442   2.439   8.313   8.877 -0.6064 -0.3914 -0.0162
 4604SOL     OW16443   9.595   6.911   5.820 -0.2761  0.6309  0.5253
 4604SOL    HW116444   9.606   6.880   5.730 -0.7756 -0.6334  0.8825
 4604SOL    HW216445   9.501   6.919   5.832 -0.2510 -0.0751  1.2189
 4605SOL     OW16446   1.682   5.629   6.111 -0.1792  0.8602 -0.7114
 4605SOL    HW116447   1.641   5.640   6.196 -0.5618  0.8429 -0.8933
 4605SOL    HW216448   1.663   5.710   6.064 -0.4969  0.6193 -1.0018
 4606SOL     OW16449   7.266   8.444   1.431  0.2114 -0.5212  1.0140
 4606SOL    HW116450   7.334   8.379   1.413 -1.4763 -2.1089 -0.0104
 4606SOL    HW216451   7.286   8.516   1.372 -0.4122 -2.0875 -1.2297
 4607SOL     OW16452   6.019   2.511  10.288 -0.4180  0.1501  0.1119
 4607SOL    HW116453   5.936   2.557  10.277 -1.1887 -0.5517  2.2930
 4607SOL    HW216454   6.031   2.506  10.383  1.5486 -0.7901 -0.1310
 4608SOL     OW16455   4.708   3.901   0.430  0.7369 -0.6143 -0.5632
 4608SOL    HW116456   4.722   3.806   0.427 -0.8767 -0.9823  1.1804
 4608SOL    HW216457   4.646   3.913   0.502 -0.6255  1.5880 -1.9906
 4609SOL     OW16458   5.480   8.638   3.455 -0.4131 -0.2319 -0.2339
 4609SOL    HW116459   5.569   8.604   3.456  0.5581  2.1331  0.3400
 4609SOL    HW216460   5.476   8.692   3.376 -0.6652  1.2000  0.7136
 4610SOL     OW16461   3.103   3.570   1.384  0.1147 -0.0819  0.4004
 4610SOL    HW116462   3.091   3.478   1.409  0.9383 -0.1370  0.6386
 4610SOL    HW216463   3.041   3.618   1.438 -1.3015 -0.6110 -0.6973
 4611SOL     OW16464   3.919   5.328   1.977  0.5952  0.1032  0.5344
 4611SOL    HW116465   4.014   5.333   1.970  0.6259 -1.0419 -0.1358
 4611SOL    HW216466   3.898   5.238   1.951 -0.3915 -0.8595  4.0287
 4612SOL     OW16467   4.218   7.314   3.455 -0.3487 -0.1727 -0.1976
 4612SOL    HW116468   4.161   7.353   3.389  0.0311  1.1340  0.2138
 4612SOL    HW216469   4.213   7.375   3.529  2.5401  0.6922 -0.6032
 4613SOL     OW16470   1.297   4.924   8.654  0.2147 -0.0400  0.0777
 4613SOL    HW116471   1.313   4.893   8.743  1.4927  0.2078 -0.0468
 4613SOL    HW216472   1.252   4.851   8.611 -0.3123 -0.2046  0.8835
 4614SOL     OW16473   6.315   1.657   6.664 -0.1578  0.0730  0.4122
 4614SOL    HW116474   6.406   1.683   6.677  0.6638 -2.2383 -0.3022
 4614SOL    HW216475   6.272   1.738   6.636  1.2777  1.5873  2.3246
 4615SOL     OW16476   6.758   3.363   0.525  0.6701  0.4243  0.5595
 4615SOL    HW116477   6.810   3.437   0.494 -1.3202  1.0980 -1.3841
 4615SOL    HW216478   6.668   3.393   0.522 -0.1033 -1.6151  1.1497
 4616SOL     OW16479   9.734   4.195   3.552  0.2624 -0.1678  0.3368
 4616SOL    HW116480   9.760   4.209   3.461 -1.2371  0.1729 -0.0580
 4616SOL    HW216481   9.799   4.132   3.585  0.9021 -0.2122 -0.9135
 4617SOL     OW16482   4.697   6.823   2.755 -0.2506 -0.3581 -0.2807
 4617SOL    HW116483   4.644   6.749   2.725  0.6889 -0.9179 -0.6063
 4617SOL    HW216484   4.782   6.810   2.714 -0.1406  1.0652 -0.5556
 4618SOL     OW16485   5.293   0.992   4.536 -0.4132 -0.3185 -0.2398
 4618SOL    HW116486   5.238   0.942   4.597  0.7475  0.1949  1.2766
 4618SOL    HW216487   5.301   1.079   4.576  1.0836 -0.2363 -0.6630
 4619SOL     OW16488   3.088   1.827   3.204  0.2853 -0.4490  0.1768
 4619SOL    HW116489   3.023   1.834   3.134  1.2235 -0.4667 -0.7172
 4619SOL    HW216490   3.155   1.768   3.169  0.6989 -0.5788  1.1539
 4620SOL     OW16491   6.693   1.328  10.262  0.1860 -0.4472  0.4762
 4620SOL    HW116492   6.623   1.382  10.224  0.2559  0.6670  1.8527
 4620SOL    HW216493   6.774   1.369  10.233  0.2886 -1.3306 -0.5466
 4621SOL     OW16494   9.062   8.685   8.208 -0.4981 -0.2438 -0.4883
 4621SOL    HW116495   9.048   8.673   8.302 -1.6662 -1.3762 -0.7803
 4621SOL    HW216496   9.071   8.780   8.197  0.1990 -0.1425  0.8251
 4622SOL     OW16497   8.467   5.568   9.024 -0.7312 -0.2176  0.1117
 4622SOL    HW116498   8.480   5.476   9.047 -0.8738 -0.3719 -0.4069
 4622SOL    HW216499   8.499   5.617   9.100  2.6979 -0.5673 -0.9210
 4623SOL     OW16500   3.676   4.541   7.315 -0.2223  0.3155  0.1251
 4623SOL    HW116501   3.739   4.606   7.282 -0.2297  0.0769 -0.3766
 4623SOL    HW216502   3.730   4.472   7.353 -0.2354  1.3928  2.2412
 4624SOL     OW16503   7.437   8.741   2.850 -0.5081 -0.4027 -0.1251
 4624SOL    HW116504   7.372   8.805   2.880 -0.1270 -0.3868  0.7111
 4624SOL    HW216505   7.521   8.781   2.872 -0.2634 -1.1435  0.3287
 4625SOL     OW16506   0.844   8.333   2.063 -0.6948 -0.3285  0.5020
 4625SOL    HW116507   0.831   8.241   2.085 -0.0447  0.0904  2.8893
 4625SOL    HW216508   0.760   8.361   2.028 -1.0170 -1.7180  0.0877
 4626SOL     OW16509   8.408   5.331   5.028  0.0021  0.3976 -1.0217
 4626SOL    HW116510   8.410   5.400   4.962  1.5363  1.4833  0.0891
 4626SOL    HW216511   8.490   5.283   5.016  0.5842  0.9738  0.4023
 4627SOL     OW16512   1.204   7.325   4.263  0.1609  0.2536  0.1159
 4627SOL    HW116513   1.247   7.245   4.232  0.9224  0.4543  0.6143
 4627SOL    HW216514   1.178   7.305   4.353 -2.1565 -0.3729 -0.6345
 4628SOL     OW16515   8.354   0.115   0.007  0.5899  0.5646  0.0238
 4628SOL    HW116516   8.392   0.105  -0.080  2.5933  3.0940  0.4673
 4628SOL    HW216517   8.351   0.210   0.020  0.5753  0.2574  2.7722
 4629SOL     OW16518   2.142   3.487   2.469  0.1240 -0.4426 -0.4496
 4629SOL    HW116519   2.162   3.491   2.563 -0.0278 -1.1511 -0.3857
 4629SOL    HW216520   2.085   3.411   2.459  0.7798 -0.8580 -1.2255
 4630SOL     OW16521   0.987   7.431   3.510 -0.1636  0.6514 -0.1737
 4630SOL    HW116522   0.941   7.409   3.591  1.0807 -0.0335  0.3735
 4630SOL    HW216523   1.016   7.347   3.474 -0.0074  1.0035 -0.9055
 4631SOL     OW16524  10.122   8.929   1.206 -0.1347  0.2446 -0.6351
 4631SOL    HW116525  10.120   8.879   1.288 -1.2892 -0.0675 -0.8292
 4631SOL    HW216526  10.202   8.901   1.163  0.1579 -0.0753  0.0949
 4632SOL     OW16527   9.589   5.205   1.540  0.1808  0.5288  0.0740
 4632SOL    HW116528   9.546   5.129   1.579  1.5096 -0.2599  0.0500
 4632SOL    HW216529   9.525   5.276   1.550  0.1172  0.1929  2.9640
 4633SOL     OW16530   7.343   9.269   0.251  0.0212 -0.4022 -0.5895
 4633SOL    HW116531   7.358   9.361   0.232  0.4507  0.1764  2.1430
 4633SOL    HW216532   7.248   9.258   0.245 -0.2965  0.8475  1.3173
 4634SOL     OW16533   6.615   3.621   3.368 -0.0566  0.5510 -0.0768
 4634SOL    HW116534   6.570   3.608   3.284 -1.0597 -0.5953  0.5986
 4634SOL    HW216535   6.644   3.533   3.393  1.7348  1.1318 -0.0118
 4635SOL     OW16536   9.881   5.115   9.406  0.0708 -0.0045  0.6591
 4635SOL    HW116537   9.793   5.153   9.396  0.8153  1.5223 -0.5578
 4635SOL    HW216538   9.892   5.061   9.327 -0.1245 -1.0286  1.3064
 4636SOL     OW16539   1.487  10.013   9.897  0.1547  0.1013 -0.2948
 4636SOL    HW116540   1.496   9.929   9.853 -0.9074 -0.0577 -0.2263
 4636SOL    HW216541   1.457   9.991   9.985  1.0061  0.4916  0.1066
 4637SOL     OW16542  10.026   9.914   4.832 -0.0866 -0.4242 -0.2101
 4637SOL    HW116543  10.118   9.942   4.827  0.1438 -1.3457 -1.6921
 4637SOL    HW216544  10.025   9.847   4.900  0.2545 -0.1288  0.0920
 4638SOL     OW16545   7.364   3.017   0.858 -0.4811  0.0656  0.1184
 4638SOL    HW116546   7.417   3.060   0.792 -0.0499 -0.7861 -0.1087
 4638SOL    HW216547   7.380   3.066   0.938  0.2396  0.1355 -0.0693
 4639SOL     OW16548   5.374   8.865   6.994  0.3773  0.2378  0.6499
 4639SOL    HW116549   5.361   8.788   6.938  0.7295  1.6431 -1.4606
 4639SOL    HW216550   5.286   8.902   7.004  0.2847 -0.1269  1.2237
 4640SOL     OW16551   3.354   6.628   8.764  0.6230  0.3554 -0.4341
 4640SOL    HW116552   3.389   6.547   8.726  1.7056  0.1939  0.8181
 4640SOL    HW216553   3.344   6.609   8.857 -1.3207  0.9505 -0.4724
 4641SOL     OW16554   8.693   5.181   6.862 -0.0253  0.3506 -0.2613
 4641SOL    HW116555   8.729   5.262   6.826  1.2137  0.1378  0.4406
 4641SOL    HW216556   8.712   5.115   6.795 -2.0990  0.7955 -1.3877
 4642SOL     OW16557   0.724   8.036   8.196 -0.4370 -0.4932  0.0358
 4642SOL    HW116558   0.655   8.045   8.261 -1.3628 -1.5221 -0.7778
 4642SOL    HW216559   0.765   7.951   8.215  1.6435  0.7251  1.4421
 4643SOL     OW16560   1.862   7.783   5.723 -0.0797 -0.4856  0.2949
 4643SOL    HW116561   1.844   7.699   5.681 -1.3784 -0.3777  0.6041
 4643SOL    HW216562   1.958   7.789   5.724  0.0174 -1.5251 -0.5756
 4644SOL     OW16563   1.404   6.194   1.111 -0.0432  0.7558 -0.0800
 4644SOL    HW116564   1.368   6.119   1.064  1.3356 -0.0856  0.1539
 4644SOL    HW216565   1.498   6.182   1.106  0.1964  2.3023  0.2703
 4645SOL     OW16566   8.993   1.883   9.612 -0.7049  0.0998 -0.2165
 4645SOL    HW116567   8.986   1.865   9.706  2.9209 -1.2460 -0.0461
 4645SOL    HW216568   9.047   1.961   9.606 -0.8118  0.1129 -1.2044
 4646SOL     OW16569   7.444   4.780   0.693 -0.2138  0.0164 -0.0016
 4646SOL    HW116570   7.431   4.875   0.699 -0.8311 -0.0577 -0.1352
 4646SOL    HW216571   7.539   4.770   0.690 -0.1009  0.5402  1.3641
 4647SOL     OW16572   8.325   1.045   6.194 -0.1663 -0.4247  0.6218
 4647SOL    HW116573   8.246   1.068   6.242 -2.5413 -3.0163 -1.6157
 4647SOL    HW216574   8.364   0.974   6.245 -1.0065 -1.1310  0.3225
 4648SOL     OW16575   7.019   2.594   3.804  0.6956  0.1486  0.1219
 4648SOL    HW116576   6.982   2.579   3.718 -1.9041 -0.3215  1.2433
 4648SOL    HW216577   7.004   2.513   3.852  1.1651  0.7541  1.3357
 4649SOL     OW16578   4.901   6.688   6.039  0.1018  0.1616 -0.4980
 4649SOL    HW116579   4.985   6.644   6.054 -0.5516 -0.8220  0.4194
 4649SOL    HW216580   4.887   6.741   6.117  0.3917  1.2384 -1.1535
 4650SOL     OW16581   3.525   4.841   5.981 -0.0436 -0.0176  0.4041
 4650SOL    HW116582   3.488   4.805   6.061  0.4394 -1.7407 -0.0920
 4650SOL    HW216583   3.557   4.928   6.006  0.0073 -0.4705  2.0532
 4651SOL     OW16584   8.505   5.914   2.050  0.0329  0.3071 -0.5726
 4651SOL    HW116585   8.499   5.837   1.993  1.1023 -0.3693  0.1879
 4651SOL    HW216586   8.598   5.938   2.049  0.2440 -0.2125  1.4659
 4652SOL     OW16587   4.522   9.221   3.618  0.2500  0.1669 -0.6231
 4652SOL    HW116588   4.438   9.264   3.604  0.7214  0.9986 -0.9760
 4652SOL    HW216589   4.501   9.143   3.670 -0.9356 -0.4854 -2.0189
 4653SOL     OW16590   0.027   4.795   5.304 -0.1633 -0.2779  0.0561
 4653SOL    HW116591   0.055   4.829   5.389 -0.0021 -2.9419  1.1663
 4653SOL    HW216592   0.067   4.854   5.240 -2.0460  3.0786  1.7732
 4654SOL     OW16593   2.513   1.170   9.294 -0.2332  0.0615  0.1306
 4654SOL    HW116594   2.552   1.083   9.298 -0.2949  0.0756  1.5619
 4654SOL    HW216595   2.587   1.230   9.285 -0.2157 -0.1360 -1.3242
 4655SOL     OW16596   8.990   2.972   1.231 -0.3417  0.2237 -0.4794
 4655SOL    HW116597   8.941   3.008   1.306 -1.9472 -0.1291 -1.3072
 4655SOL    HW216598   9.019   3.049   1.183  0.1016  0.4446  0.1213
 4656SOL     OW16599   6.899   4.837   7.099  0.4089 -0.2303 -0.2150
 4656SOL    HW116600   6.881   4.901   7.031 -0.7260  1.0686  1.2268
 4656SOL    HW216601   6.987   4.858   7.130  0.0330  0.7085  0.2708
 4657SOL     OW16602   5.100   9.809   4.116 -0.3774 -0.1885 -0.5575
 4657SOL    HW116603   5.157   9.751   4.065 -0.0757 -2.0395  1.7004
 4657SOL    HW216604   5.156   9.840   4.187 -1.6649 -0.5246  0.6343
 4658SOL     OW16605   4.929   6.875   2.062 -0.2733  0.1743 -0.3845
 4658SOL    HW116606   4.919   6.794   2.012  1.2471 -0.4936  0.3450
 4658SOL    HW216607   4.987   6.930   2.009 -0.9717  0.6482 -0.6819
 4659SOL     OW16608   2.005   3.296   4.629  0.0560  0.1972 -0.3279
 4659SOL    HW116609   1.982   3.309   4.722  0.1094  1.5703 -0.4832
 4659SOL    HW216610   2.083   3.350   4.616 -0.0298  0.1247 -1.2008
 4660SOL     OW16611   0.374   6.724   7.457 -0.0375  0.4300  0.4586
 4660SOL    HW116612   0.432   6.654   7.427 -1.0587 -1.8181  3.2733
 4660SOL    HW216613   0.295   6.715   7.403  0.5131  0.6892 -0.4279
 4661SOL     OW16614   7.786   0.571   4.659  0.4714 -0.0718  1.0341
 4661SOL    HW116615   7.713   0.571   4.597  1.7532  0.2749 -0.5342
 4661SOL    HW216616   7.864   0.561   4.605  1.5348 -2.4610  2.8079
 4662SOL     OW16617   8.473   5.066   5.405 -0.3680  0.8411  0.1585
 4662SOL    HW116618   8.447   5.039   5.317 -0.0245 -0.8387  0.5343
 4662SOL    HW216619   8.536   4.999   5.433  0.5240  2.0589  1.1922
 4663SOL     OW16620   9.183   9.442   9.381  0.1866 -0.0927  0.5830
 4663SOL    HW116621   9.201   9.536   9.372  1.1780 -0.1366  1.8711
 4663SOL    HW216622   9.269   9.402   9.393 -0.3071 -1.0350  1.0873
 4664SOL     OW16623   0.277  10.050   9.154  0.3496 -0.1497 -0.3088
 4664SOL    HW116624   0.335   9.975   9.166  0.5671 -0.0995 -1.0259
 4664SOL    HW216625   0.223  10.051   9.233  2.1756  0.5526  1.0204
 4665SOL     OW16626   4.650   0.230   6.716 -0.5714 -0.5902 -0.2906
 4665SOL    HW116627   4.718   0.263   6.657 -0.3264  0.0847  0.3489
 4665SOL    HW216628   4.582   0.298   6.715 -1.2536 -1.2585 -0.9267
 4666SOL     OW16629   2.816   6.592   5.345 -0.1573  0.0050  0.2522
 4666SOL    HW116630   2.787   6.610   5.256 -0.7393 -1.3080  0.1454
 4666SOL    HW216631   2.889   6.531   5.335 -0.3969 -0.3580  0.6709
 4667SOL     OW16632   9.832   2.556   4.539 -0.7853  0.0348 -0.1941
 4667SOL    HW116633   9.827   2.550   4.634  0.1307 -1.1648 -0.2060
 4667SOL    HW216634   9.873   2.474   4.511  1.6634  1.5681 -1.4030
 4668SOL     OW16635   9.524   5.926   3.326 -0.6482  0.2835  0.1379
 4668SOL    HW116636   9.505   6.018   3.345 -1.6176 -0.2374  1.9277
 4668SOL    HW216637   9.586   5.900   3.393  0.5524 -0.0895 -1.0836
 4669SOL     OW16638   6.448   5.544   3.717  0.4327 -0.0355  0.5488
 4669SOL    HW116639   6.465   5.587   3.801  0.4517  0.5843  0.2344
 4669SOL    HW216640   6.453   5.615   3.653  1.3908 -0.6600 -0.0899
 4670SOL     OW16641   0.952   4.368   2.867 -0.4131  0.6085 -0.6879
 4670SOL    HW116642   0.944   4.288   2.816  1.5206  0.5453 -0.9785
 4670SOL    HW216643   0.918   4.437   2.809 -0.3167  0.2362 -1.1945
 4671SOL     OW16644   9.364   8.046   2.016 -0.4673  0.0367  0.3934
 4671SOL    HW116645   9.373   8.097   1.935 -1.6691 -0.0824  0.1619
 4671SOL    HW216646   9.352   8.111   2.085 -0.6028  0.1143  0.2977
 4672SOL     OW16647   4.155   3.325   6.642 -0.4476  0.1572  0.2078
 4672SOL    HW116648   4.099   3.397   6.614 -0.6624 -0.0543  0.0898
 4672SOL    HW216649   4.110   3.288   6.717 -0.9904 -0.6549 -0.5035
 4673SOL     OW16650   5.401   8.632   1.114  0.0226 -0.8432  0.5434
 4673SOL    HW116651   5.353   8.605   1.036 -1.0053  0.5619  0.6495
 4673SOL    HW216652   5.435   8.719   1.093  0.0840 -0.6241  1.4962
 4674SOL     OW16653   4.080   4.716   6.087 -0.2253  0.1582  0.9064
 4674SOL    HW116654   4.096   4.684   5.998 -1.2458 -0.1847  0.8360
 4674SOL    HW216655   4.037   4.643   6.132 -1.2302  0.8953  1.1831
 4675SOL     OW16656   7.208  10.005   0.095 -0.5096 -0.2755 -0.1119
 4675SOL    HW116657   7.149   9.930   0.095  1.2408 -1.7420  1.1540
 4675SOL    HW216658   7.198  10.044   0.181  0.7218 -0.8774  0.3246
 4676SOL     OW16659  10.351   9.549   3.446 -0.0325 -0.4598  0.2763
 4676SOL    HW116660  10.370   9.505   3.529  0.5848  1.7123  1.3765
 4676SOL    HW216661  10.438   9.566   3.408  0.0602  2.4923  1.4666
 4677SOL     OW16662   3.353   5.905   3.909 -0.1777 -0.0374 -0.2120
 4677SOL    HW116663   3.448   5.906   3.918 -0.2487  0.3274  0.6027
 4677SOL    HW216664   3.320   5.929   3.995 -1.0171 -0.2870 -0.4481
 4678SOL     OW16665   7.642   0.770   4.288 -0.2055 -0.0968 -0.2897
 4678SOL    HW116666   7.564   0.770   4.232  0.4503  2.2734 -1.3254
 4678SOL    HW216667   7.713   0.745   4.229  0.3537  1.4848 -0.3202
 4679SOL     OW16668   4.387   5.719   3.243 -0.1958 -0.0340  0.3534
 4679SOL    HW116669   4.397   5.773   3.321  0.2415  0.2539  0.1045
 4679SOL    HW216670   4.348   5.777   3.178  1.1847  0.2937 -0.2223
 4680SOL     OW16671   2.193   6.577   5.434  0.1214  0.2117  0.2748
 4680SOL    HW116672   2.156   6.625   5.508 -0.2979  0.5937 -0.1795
 4680SOL    HW216673   2.254   6.515   5.474 -2.1965 -1.6046  1.2252
 4681SOL     OW16674   9.926   1.907   9.848  1.0319 -0.3595  0.1009
 4681SOL    HW116675   9.838   1.884   9.820  0.1461  0.5597  1.9448
 4681SOL    HW216676   9.984   1.853   9.794 -0.6119 -0.4649 -1.6429
 4682SOL     OW16677   2.029   9.017   9.063  0.3465 -0.0919 -0.3710
 4682SOL    HW116678   2.085   9.006   9.140 -0.0599 -1.5159 -0.2605
 4682SOL    HW216679   2.014   8.928   9.031 -2.3311  0.1589 -0.0381
 4683SOL     OW16680   2.976  10.107   4.613  0.0797  0.2736 -0.6035
 4683SOL    HW116681   2.954  10.153   4.694  1.2976  2.7828 -1.5696
 4683SOL    HW216682   3.069  10.086   4.622 -0.5469 -2.6948  0.0325
 4684SOL     OW16683   6.840   8.493   6.549 -0.0157  0.2492  0.4210
 4684SOL    HW116684   6.804   8.451   6.472 -2.0897  1.3043  0.7463
 4684SOL    HW216685   6.901   8.559   6.515 -0.4389  0.2802 -0.2838
 4685SOL     OW16686  10.349   3.551   2.484  0.0496 -0.4219  0.5696
 4685SOL    HW116687  10.408   3.603   2.430  1.1222 -2.7913 -0.6639
 4685SOL    HW216688  10.262   3.584   2.463  0.5800 -0.1149 -1.2811
 4686SOL     OW16689   1.037   5.302   4.713 -0.1339 -0.0640 -0.2989
 4686SOL    HW116690   1.096   5.377   4.716  0.8292 -0.8111  1.6960
 4686SOL    HW216691   1.050   5.258   4.797 -1.9483 -1.5000 -0.6952
 4687SOL     OW16692   0.434   1.594   7.953  0.7982 -0.6447  0.4123
 4687SOL    HW116693   0.427   1.667   7.892 -0.5766 -0.9966  0.1010
 4687SOL    HW216694   0.343   1.575   7.978  1.1257 -2.2056  0.5336
 4688SOL     OW16695   1.482  10.157   1.225  0.0539  0.2067 -0.4532
 4688SOL    HW116696   1.464  10.106   1.304 -1.8487  0.9830 -0.3285
 4688SOL    HW216697   1.518  10.094   1.163 -0.9736 -1.0064  0.1390
 4689SOL     OW16698   8.147   0.167   6.460 -0.6605  0.1609 -0.5793
 4689SOL    HW116699   8.079   0.196   6.400  0.7824  1.9992 -1.4004
 4689SOL    HW216700   8.112   0.187   6.547 -2.0822 -1.0553 -0.8135
 4690SOL     OW16701   9.604   6.507   7.274 -0.2824 -0.2089  0.3399
 4690SOL    HW116702   9.695   6.501   7.246 -0.7170 -0.7915 -1.0340
 4690SOL    HW216703   9.607   6.559   7.354  1.2562 -0.2522  0.3428
 4691SOL     OW16704   9.101   8.575   2.279  0.1414 -0.4886 -0.0329
 4691SOL    HW116705   9.184   8.577   2.231  0.2648 -0.7006  0.1707
 4691SOL    HW216706   9.103   8.655   2.332  1.7298 -2.0356  2.4905
 4692SOL     OW16707   0.413   7.700   6.133 -0.2621  0.0304  0.2633
 4692SOL    HW116708   0.361   7.634   6.086  0.0933  1.4381 -2.3229
 4692SOL    HW216709   0.503   7.683   6.104  0.0896  0.5013  1.0602
 4693SOL     OW16710   0.865   2.231   3.611 -0.2293  0.1858 -0.5207
 4693SOL    HW116711   0.778   2.193   3.620 -0.9144  1.7502 -0.3137
 4693SOL    HW216712   0.859   2.316   3.653  1.3594  0.4040 -0.6705
 4694SOL     OW16713   4.862   6.079   2.012  0.5319  0.3769 -0.9959
 4694SOL    HW116714   4.881   6.069   2.106 -2.3320  0.2328 -0.3329
 4694SOL    HW216715   4.822   6.165   2.005 -1.5343 -0.5628 -1.5961
 4695SOL     OW16716   0.989  10.106   3.293 -0.3527  0.2682 -0.3869
 4695SOL    HW116717   0.954  10.162   3.223 -2.4403 -0.8807 -0.3450
 4695SOL    HW216718   1.084  10.110   3.282 -0.5653  1.4726 -2.2144
 4696SOL     OW16719   6.006   2.483   2.252 -0.1443  0.6169 -0.1870
 4696SOL    HW116720   6.074   2.510   2.314 -0.9305 -0.5426  1.2565
 4696SOL    HW216721   6.051   2.477   2.168  1.3882  0.4816  0.6086
 4697SOL     OW16722   1.651   1.645   7.183  0.0493 -0.3509 -0.1869
 4697SOL    HW116723   1.717   1.588   7.224 -0.0385 -0.5561 -0.3304
 4697SOL    HW216724   1.600   1.679   7.256  1.6765  1.5600  0.1570
 4698SOL     OW16725   1.255   0.037   9.877 -0.1538  0.1344 -0.4128
 4698SOL    HW116726   1.213   0.094   9.813  0.4001  0.9780 -0.0431
 4698SOL    HW216727   1.285   0.096   9.946 -0.4609 -0.7205  0.4784
 4699SOL     OW16728   1.205   0.904   8.867 -0.0459  0.1476  0.2243
 4699SOL    HW116729   1.192   0.816   8.902  0.3333 -0.1852 -0.4570
 4699SOL    HW216730   1.246   0.891   8.782  0.8291  1.0131  0.4878
 4700SOL     OW16731   9.472   4.165   2.064  0.2012 -0.1353  0.1052
 4700SOL    HW116732   9.438   4.236   2.118  1.6992  1.1571 -0.5435
 4700SOL    HW216733   9.539   4.124   2.117  1.2922  0.7875 -0.4926
 4701SOL     OW16734   0.756   9.109   3.636 -0.0688  0.1783  0.3592
 4701SOL    HW116735   0.829   9.080   3.582  0.0097 -0.4718  0.7973
 4701SOL    HW216736   0.753   9.204   3.624 -0.1030  0.0434 -0.8276
 4702SOL     OW16737   7.352   6.852   1.330  0.2408  0.4488 -0.0948
 4702SOL    HW116738   7.267   6.817   1.356  0.4751  0.0445  0.1298
 4702SOL    HW216739   7.332   6.912   1.258 -0.2617  0.5475  0.1230
 4703SOL     OW16740   4.525   0.769   9.844  0.4539  0.0858  0.1219
 4703SOL    HW116741   4.547   0.829   9.773  0.2005 -1.2341 -1.1224
 4703SOL    HW216742   4.464   0.707   9.805  1.2886 -1.4427  1.1329
 4704SOL     OW16743   2.660   2.050   1.332  0.3383  0.9128 -0.6545
 4704SOL    HW116744   2.581   2.102   1.319  0.7989  1.9552  0.5292
 4704SOL    HW216745   2.628   1.959   1.334 -1.0316  1.3694  0.9548
 4705SOL     OW16746   6.061   0.299   8.361 -0.0756 -0.2170  0.1528
 4705SOL    HW116747   6.123   0.372   8.354  0.0975 -0.4691 -1.4075
 4705SOL    HW216748   6.009   0.319   8.438  0.9595  0.7840  0.6234
 4706SOL     OW16749  10.196   0.430   9.026  0.0774  0.5190 -0.3541
 4706SOL    HW116750  10.270   0.392   8.977 -0.9370  0.0354 -1.5869
 4706SOL    HW216751  10.125   0.368   9.012 -0.7192  1.2528  0.3608
 4707SOL     OW16752   6.088   9.929   8.316 -0.0182 -0.1481 -0.1056
 4707SOL    HW116753   6.135   9.861   8.365 -0.4138 -0.4047 -0.0707
 4707SOL    HW216754   6.136  10.009   8.334  0.7100 -0.4888 -0.4910
 4708SOL     OW16755   4.151   5.263   2.714 -0.4426  0.7524 -0.5675
 4708SOL    HW116756   4.233   5.266   2.763 -2.0110 -0.2216  2.3750
 4708SOL    HW216757   4.148   5.174   2.679 -0.5527  0.5224  0.0028
 4709SOL     OW16758   8.152  10.017   9.008 -0.7586  0.1180 -0.3548
 4709SOL    HW116759   8.098  10.052   8.937  0.1187  0.5997 -0.7986
 4709SOL    HW216760   8.181  10.095   9.056 -2.0472 -0.2281  1.0879
 4710SOL     OW16761   5.726   8.972   8.566 -0.3894 -0.4270  0.8072
 4710SOL    HW116762   5.785   9.033   8.609 -0.3266  0.9225 -1.0468
 4710SOL    HW216763   5.784   8.908   8.524 -0.1761  0.6767 -0.6890
 4711SOL     OW16764   2.945   9.860   9.099  0.7209 -0.1364  0.2698
 4711SOL    HW116765   3.003   9.927   9.134  0.1603  1.1357 -1.1248
 4711SOL    HW216766   2.915   9.896   9.016 -1.4026 -1.1018  0.5547
 4712SOL     OW16767   2.749   4.808   4.570  0.0853 -0.0881 -1.1266
 4712SOL    HW116768   2.739   4.883   4.629  0.9946 -0.8048  0.0067
 4712SOL    HW216769   2.666   4.761   4.577  0.4318 -0.5504  0.1909
 4713SOL     OW16770   1.285   9.504   2.277 -0.7745 -0.1068 -0.1595
 4713SOL    HW116771   1.245   9.590   2.263 -0.2916  0.1769  0.1713
 4713SOL    HW216772   1.215   9.451   2.313 -0.7884  0.4606  0.6709
 4714SOL     OW16773   1.467   5.008   1.243 -0.1620  0.1459 -0.2453
 4714SOL    HW116774   1.531   5.025   1.174  1.8358  1.9305  1.8979
 4714SOL    HW216775   1.406   5.082   1.237 -0.4907 -0.1425 -0.5729
 4715SOL     OW16776   3.234   5.519   1.314  0.3259  0.6152  0.1139
 4715SOL    HW116777   3.323   5.542   1.288  0.5400  0.2303  0.4870
 4715SOL    HW216778   3.187   5.506   1.232 -0.1363  3.5246 -0.1748
 4716SOL     OW16779   6.526   7.329   6.777  0.3678 -0.0072  0.0754
 4716SOL    HW116780   6.484   7.245   6.793 -0.4096  0.5040  0.7661
 4716SOL    HW216781   6.457   7.385   6.741  0.4917  0.7794  1.0285
 4717SOL     OW16782   3.626   1.178   2.791  0.4442  0.4602 -0.6729
 4717SOL    HW116783   3.641   1.086   2.814 -2.6539 -0.4617 -1.9360
 4717SOL    HW216784   3.642   1.182   2.697  0.7157  1.2757 -0.6009
 4718SOL     OW16785   1.488  10.178   3.192 -0.3326  0.1751 -0.0812
 4718SOL    HW116786   1.521  10.175   3.102 -3.2023 -0.7406 -1.2002
 4718SOL    HW216787   1.499  10.088   3.224  1.4503  0.6717  0.8814
 4719SOL     OW16788   7.415   9.488   0.591  0.1888 -0.6412  0.4990
 4719SOL    HW116789   7.433   9.465   0.500 -1.1015  1.2112 -0.2849
 4719SOL    HW216790   7.386   9.406   0.631  0.3054 -1.3883 -0.8939
 4720SOL     OW16791   1.701   7.512   7.992 -0.5429  0.1320 -0.4716
 4720SOL    HW116792   1.636   7.454   7.952 -1.1520  0.8199 -0.4902
 4720SOL    HW216793   1.649   7.577   8.040  0.1530 -0.3384  0.9869
 4721SOL     OW16794   2.846   4.025   9.679 -0.8323 -0.4017  0.3054
 4721SOL    HW116795   2.805   3.940   9.663  0.9657 -1.1845 -0.3775
 4721SOL    HW216796   2.792   4.087   9.629 -0.7977 -1.4814 -1.1373
 4722SOL     OW16797   2.497   5.652   0.321  0.1546 -0.3072  0.4251
 4722SOL    HW116798   2.448   5.732   0.338  1.4471  0.7343 -0.5351
 4722SOL    HW216799   2.458   5.616   0.242 -0.2726 -0.4988  0.7222
 4723SOL     OW16800   6.808   4.838   2.161 -0.4867  0.0460 -0.3807
 4723SOL    HW116801   6.830   4.785   2.084 -1.8580 -0.3368 -0.5302
 4723SOL    HW216802   6.796   4.926   2.127  1.7727  0.5192 -0.1363
 4724SOL     OW16803   8.760   5.501   2.834 -0.3147 -0.3725 -0.1551
 4724SOL    HW116804   8.802   5.586   2.835  2.3011 -1.5546  0.6412
 4724SOL    HW216805   8.713   5.496   2.917 -0.4875  0.2695 -0.2116
 4725SOL     OW16806   2.130   8.495   6.429  0.0225 -0.0306 -0.2385
 4725SOL    HW116807   2.174   8.510   6.345 -0.4063  0.6836 -0.3419
 4725SOL    HW216808   2.102   8.582   6.458 -0.2885 -0.3321  0.3995
 4726SOL     OW16809   4.058   4.115   2.954 -0.0144  0.8239  0.7242
 4726SOL    HW116810   4.103   4.169   3.020  0.7446 -0.1460  1.0340
 4726SOL    HW216811   4.099   4.029   2.962 -0.2203  0.5658 -0.7224
 4727SOL     OW16812   9.041   6.813   1.255 -0.3006  0.3699 -0.3343
 4727SOL    HW116813   9.005   6.725   1.247 -1.6875  0.8396  0.5117
 4727SOL    HW216814   9.100   6.821   1.180  0.2070 -1.4251 -0.1782
 4728SOL     OW16815   7.797   0.467  10.350 -0.1159  0.3164  0.3040
 4728SOL    HW116816   7.872   0.434  10.400  0.2950 -0.8991 -1.0577
 4728SOL    HW216817   7.817   0.559  10.334 -1.0898  1.2978  3.8286
 4729SOL     OW16818   3.844   4.591   9.979  0.2594  0.1310 -0.1480
 4729SOL    HW116819   3.883   4.636  10.054 -0.0605  2.4414 -1.2771
 4729SOL    HW216820   3.875   4.641   9.903 -2.2195  0.0560 -1.3074
 4730SOL     OW16821   9.170   4.160   6.004  0.2132 -0.0358  0.4537
 4730SOL    HW116822   9.080   4.145   5.976  0.2318 -1.7217  1.1767
 4730SOL    HW216823   9.201   4.074   6.032  2.2875  0.3536 -0.4472
 4731SOL     OW16824   5.109   8.267   6.432  0.1985 -0.1684  0.1747
 4731SOL    HW116825   5.037   8.295   6.488  0.1127 -2.2190  1.1919
 4731SOL    HW216826   5.169   8.221   6.491  1.4511 -0.0636 -0.9680
 4732SOL     OW16827   7.475   3.082   7.929 -0.1099 -0.4449 -0.1359
 4732SOL    HW116828   7.471   2.992   7.963 -0.4901 -0.4206 -0.1121
 4732SOL    HW216829   7.400   3.089   7.870  1.1198 -0.8179 -1.8254
 4733SOL     OW16830   9.986   2.043  10.358  0.4509 -0.3254 -0.3076
 4733SOL    HW116831   9.971   2.132  10.389  1.0571 -0.3054 -0.0555
 4733SOL    HW216832   9.930   2.034  10.281  0.6030  0.3674 -0.5002
 4734SOL     OW16833   6.196   5.229   7.904  0.7232 -0.0625  0.5132
 4734SOL    HW116834   6.223   5.320   7.904  1.3576 -0.1710 -1.8746
 4734SOL    HW216835   6.108   5.229   7.942  0.5178  1.6233  0.1040
 4735SOL     OW16836   5.521   4.625   2.314 -0.4633 -0.1984  0.0611
 4735SOL    HW116837   5.523   4.651   2.406 -0.4145  0.6738 -0.1812
 4735SOL    HW216838   5.587   4.680   2.272 -1.1584  0.1005 -0.6654
 4736SOL     OW16839   6.170   0.773   1.128  0.2127  0.3142 -0.3473
 4736SOL    HW116840   6.254   0.766   1.174  0.0556 -1.1470 -0.2215
 4736SOL    HW216841   6.106   0.739   1.190 -0.1219 -0.8529 -1.2909
 4737SOL     OW16842   7.351  10.025   4.321  0.2161  0.3896  0.0091
 4737SOL    HW116843   7.397  10.095   4.368 -1.7009  1.1554  0.8288
 4737SOL    HW216844   7.358  10.051   4.229  0.6960  0.9233  0.1882
 4738SOL     OW16845   7.875   0.789   6.446 -0.3151 -0.0013  0.2586
 4738SOL    HW116846   7.920   0.854   6.501  1.6999 -0.8761 -0.2619
 4738SOL    HW216847   7.942   0.760   6.385 -0.9395 -3.0231  0.8704
 4739SOL     OW16848   4.714   8.326   7.050  0.0169  0.0991  0.4729
 4739SOL    HW116849   4.642   8.299   7.108 -0.5255  1.5401  0.5074
 4739SOL    HW216850   4.786   8.346   7.110  0.3773 -1.0559  0.4557
 4740SOL     OW16851   0.498   7.861   3.462 -0.1465  0.1928 -0.6951
 4740SOL    HW116852   0.589   7.841   3.440 -0.4003  0.6200 -2.1913
 4740SOL    HW216853   0.499   7.953   3.487 -0.3291  0.4819 -1.7238
 4741SOL     OW16854   9.039   4.350   1.654  0.1493  0.0155  0.5233
 4741SOL    HW116855   9.107   4.404   1.613  1.3285 -0.5344  1.6744
 4741SOL    HW216856   8.957   4.383   1.618  1.0626 -0.0353 -1.7788
 4742SOL     OW16857   1.607   1.259   9.595  0.0793 -0.3464  0.1008
 4742SOL    HW116858   1.652   1.234   9.514  0.4323 -0.7449  0.4155
 4742SOL    HW216859   1.572   1.347   9.577  3.0622  1.1012  0.6287
 4743SOL     OW16860   6.589   1.682   8.046 -0.2046  0.3107 -0.4429
 4743SOL    HW116861   6.646   1.638   7.983 -0.7272  1.8656 -2.0794
 4743SOL    HW216862   6.502   1.682   8.005 -0.7317  0.7111  0.6163
 4744SOL     OW16863   7.063   0.789   0.507 -0.3280 -0.2198 -0.3463
 4744SOL    HW116864   7.083   0.748   0.591 -1.1516 -0.7807 -0.4086
 4744SOL    HW216865   6.967   0.791   0.504 -0.3359 -1.0993 -1.6867
 4745SOL     OW16866   4.458   4.058   4.639  0.2483 -0.1765  0.5479
 4745SOL    HW116867   4.468   4.108   4.720  0.5393 -2.5541  2.0992
 4745SOL    HW216868   4.545   4.020   4.624 -0.4377 -1.8834  0.6623
 4746SOL     OW16869   6.710   1.204   9.225 -0.7833 -0.3849 -0.4024
 4746SOL    HW116870   6.729   1.227   9.316 -0.8994 -0.1454 -0.4390
 4746SOL    HW216871   6.643   1.266   9.197 -1.2041 -0.8571 -0.4583
 4747SOL     OW16872   9.577   7.036   1.082 -0.5623 -0.1129 -0.0125
 4747SOL    HW116873   9.561   7.111   1.024 -0.1082 -0.7182 -0.9481
 4747SOL    HW216874   9.671   7.040   1.099 -0.5865 -0.3108  0.1635
 4748SOL     OW16875   4.318   3.855   5.834  0.4289  0.5250  0.5797
 4748SOL    HW116876   4.223   3.840   5.842  0.5275 -0.3744  0.1916
 4748SOL    HW216877   4.325   3.941   5.792 -0.2371  0.0861 -0.4592
 4749SOL     OW16878   2.600   2.460   0.466  0.6076 -0.0206 -0.2444
 4749SOL    HW116879   2.615   2.553   0.480  3.2175  0.0019 -2.5010
 4749SOL    HW216880   2.685   2.419   0.481 -0.1964 -1.8930 -0.4944
 4750SOL     OW16881   5.609   7.336   7.481  0.2519 -0.1315  0.3447
 4750SOL    HW116882   5.636   7.397   7.550  0.9122  0.0175 -0.0364
 4750SOL    HW216883   5.691   7.300   7.448 -0.1012 -0.7506  0.1314
 4751SOL     OW16884   4.932   5.108   5.780 -0.2598  0.1900  0.1300
 4751SOL    HW116885   4.916   5.201   5.797 -2.9702 -0.2368  0.4136
 4751SOL    HW216886   4.886   5.062   5.851  1.4019 -1.3930  0.2615
 4752SOL     OW16887   2.212   7.964   3.555 -0.0848  0.4850 -0.2052
 4752SOL    HW116888   2.212   8.052   3.518  0.7171  0.4839 -0.2383
 4752SOL    HW216889   2.218   7.906   3.478  0.0893  0.4289 -0.1496
 4753SOL     OW16890   2.337   1.676   3.456  0.5906  0.3211  0.2293
 4753SOL    HW116891   2.284   1.650   3.531 -0.1743  0.5570 -0.2228
 4753SOL    HW216892   2.427   1.653   3.481  0.0230 -2.3629  0.0165
 4754SOL     OW16893   9.506   9.933  10.248  0.6512  0.1736  0.2828
 4754SOL    HW116894   9.583   9.990  10.248  1.6565 -1.1029 -0.7199
 4754SOL    HW216895   9.469   9.944  10.160  1.8500 -1.8973 -0.5602
 4755SOL     OW16896   5.668   5.882   1.436  0.1414  0.5842  0.6942
 4755SOL    HW116897   5.591   5.894   1.380  1.2306 -1.2245 -1.3190
 4755SOL    HW216898   5.727   5.953   1.410  0.8706 -0.5704 -0.9550
 4756SOL     OW16899   4.159   0.856   9.280 -0.5267 -0.6856  0.5047
 4756SOL    HW116900   4.178   0.765   9.256  2.2503 -0.8099  2.5602
 4756SOL    HW216901   4.125   0.851   9.370  1.8403  0.3149  1.5504
 4757SOL     OW16902   3.625   8.259   8.229 -0.3426 -0.1974  0.2682
 4757SOL    HW116903   3.673   8.255   8.312  0.5472 -0.7195 -0.2560
 4757SOL    HW216904   3.535   8.238   8.253 -0.1201 -0.2424  1.1185
 4758SOL     OW16905   4.299   3.713   6.504  0.3870 -0.5745  0.0633
 4758SOL    HW116906   4.322   3.637   6.450 -0.5755 -1.1611  0.4691
 4758SOL    HW216907   4.212   3.739   6.474 -0.0029 -0.6757  1.0777
 4759SOL     OW16908   8.011   2.559   4.399 -0.2727  0.8918 -0.1618
 4759SOL    HW116909   8.103   2.582   4.413  0.3475 -2.1922  1.9400
 4759SOL    HW216910   7.965   2.598   4.473 -0.3432  0.9230 -0.2219
 4760SOL     OW16911   4.819   5.104   6.280  0.1722 -0.1905  0.6292
 4760SOL    HW116912   4.871   5.080   6.357 -0.2961  0.4820  1.1700
 4760SOL    HW216913   4.737   5.138   6.316  0.6074  1.7703 -0.0798
 4761SOL     OW16914  10.320   1.726   0.116  0.2158  0.7769  0.3512
 4761SOL    HW116915  10.345   1.710   0.025 -1.9565 -2.9261  0.2060
 4761SOL    HW216916  10.346   1.647   0.162 -3.9828 -0.0992  1.6359
 4762SOL     OW16917   3.446  10.137   1.776  0.2213 -0.2081  0.0899
 4762SOL    HW116918   3.449  10.094   1.691 -0.2684  2.0645 -1.1589
 4762SOL    HW216919   3.419  10.227   1.757 -1.2706  0.0376  2.7791
 4763SOL     OW16920   8.628   8.911   4.912 -0.0925 -0.0485 -0.0915
 4763SOL    HW116921   8.602   8.869   4.830 -1.4421  2.6796 -1.2015
 4763SOL    HW216922   8.716   8.942   4.895 -0.3562  0.4835 -0.5414
 4764SOL     OW16923  10.290   4.695   2.744 -0.6275  0.2602  0.1015
 4764SOL    HW116924  10.223   4.701   2.675  0.2839  0.7820 -0.7705
 4764SOL    HW216925  10.373   4.692   2.696 -0.0599 -1.6562  1.1163
 4765SOL     OW16926   9.911   2.565   5.710 -0.3662  0.0369 -0.2826
 4765SOL    HW116927   9.963   2.490   5.680 -0.1605 -0.5338  1.4330
 4765SOL    HW216928   9.899   2.550   5.803  0.5178  2.6623  0.3193
 4766SOL     OW16929   2.552   4.626   1.443 -0.1984  1.4668 -0.5653
 4766SOL    HW116930   2.625   4.564   1.443 -0.4607  1.1462  0.0753
 4766SOL    HW216931   2.518   4.624   1.354  1.0669  2.2075 -1.0898
 4767SOL     OW16932   2.295   3.500   4.080  0.0882 -0.2671  0.2044
 4767SOL    HW116933   2.323   3.591   4.088  0.1507 -0.3200  0.6041
 4767SOL    HW216934   2.354   3.451   4.138  0.5281 -0.6658 -0.5558
 4768SOL     OW16935   0.190   1.926   0.165  0.1526  0.1713  0.7158
 4768SOL    HW116936   0.206   1.865   0.237  1.8212  0.8353  0.9568
 4768SOL    HW216937   0.095   1.927   0.154 -0.0005 -1.2839  1.7229
 4769SOL     OW16938   8.202   7.062   7.465 -0.3459  0.0855  0.0215
 4769SOL    HW116939   8.108   7.049   7.479 -0.3560  0.1316 -0.0030
 4769SOL    HW216940   8.232   7.109   7.542 -0.0838 -1.1114  0.6823
 4770SOL     OW16941   9.183   3.666   6.827 -0.7313 -0.1994  0.5771
 4770SOL    HW116942   9.196   3.638   6.736 -1.8261  1.6964 -0.2268
 4770SOL    HW216943   9.271   3.687   6.858 -0.3230 -1.0149  0.0194
 4771SOL     OW16944   9.365   7.999   6.715 -0.0954  0.0296 -0.7967
 4771SOL    HW116945   9.390   8.061   6.646  0.3089 -0.1029 -0.7728
 4771SOL    HW216946   9.418   8.024   6.790 -1.5679  1.0781 -0.0678
 4772SOL     OW16947   3.607   0.568   8.980 -0.2230  0.4556 -0.2498
 4772SOL    HW116948   3.682   0.625   8.999  0.6986 -0.6182 -0.5782
 4772SOL    HW216949   3.601   0.567   8.885 -0.4885  0.3222 -0.2327
 4773SOL     OW16950   4.361   2.544   5.878 -0.4099 -0.2358 -0.7982
 4773SOL    HW116951   4.346   2.463   5.928 -1.1408  0.2346 -0.2280
 4773SOL    HW216952   4.339   2.521   5.788 -0.4118 -0.7333 -0.6739
 4774SOL     OW16953   5.098   0.415   3.940 -0.1184 -0.4224  0.1138
 4774SOL    HW116954   5.143   0.351   3.885  1.5460  1.0750 -0.3817
 4774SOL    HW216955   5.152   0.420   4.019 -1.2346 -0.9062  0.9291
 4775SOL     OW16956   1.321   8.305   0.917 -0.6156 -0.1373  0.3515
 4775SOL    HW116957   1.389   8.245   0.887 -1.2374 -1.8149  2.0674
 4775SOL    HW216958   1.368   8.370   0.970  0.1207  1.2466 -1.8647
 4776SOL     OW16959   7.303   5.424   7.767 -0.2021  0.0506 -0.0654
 4776SOL    HW116960   7.287   5.331   7.750  1.5245 -0.4154  0.7024
 4776SOL    HW216961   7.284   5.435   7.861 -1.7880  0.8214 -0.4386
 4777SOL     OW16962   8.628   9.551   1.435 -0.1726  0.4417 -0.7022
 4777SOL    HW116963   8.679   9.474   1.411 -1.9599 -0.3874 -2.0735
 4777SOL    HW216964   8.650   9.566   1.527 -0.1999 -2.0558 -0.2158
 4778SOL     OW16965   0.162   2.831   7.684  0.0085  0.3665  0.1529
 4778SOL    HW116966   0.113   2.862   7.760 -1.6173 -0.1181 -0.6660
 4778SOL    HW216967   0.106   2.849   7.609  1.3111  0.2594 -0.8918
 4779SOL     OW16968   8.445   6.036   4.640  0.6526  0.7999  0.1795
 4779SOL    HW116969   8.411   6.039   4.550 -0.8828  0.8594  0.7328
 4779SOL    HW216970   8.428   6.124   4.674  2.2723  1.1333  0.1861
 4780SOL     OW16971   5.779   7.122   5.152 -0.3147 -0.4511 -0.0788
 4780SOL    HW116972   5.850   7.153   5.209 -1.1350  1.1164  0.1290
 4780SOL    HW216973   5.736   7.053   5.203  1.5169 -2.0289 -0.5366
 4781SOL     OW16974   1.401   1.978   0.251 -0.6715 -0.0894 -0.5298
 4781SOL    HW116975   1.497   1.983   0.248 -0.6379 -1.0375 -2.6741
 4781SOL    HW216976   1.384   1.890   0.286 -0.7672  0.0930 -0.1152
 4782SOL     OW16977   7.338   7.503   7.631 -0.6063  0.0830  0.2102
 4782SOL    HW116978   7.319   7.445   7.557 -0.8409  1.4459 -0.8419
 4782SOL    HW216979   7.259   7.557   7.641  0.0849  1.1151  0.2829
 4783SOL     OW16980   3.377   7.489   7.070 -0.5339 -0.6836  0.0163
 4783SOL    HW116981   3.396   7.415   7.127  0.8614 -0.2526  0.1513
 4783SOL    HW216982   3.326   7.549   7.124 -1.3161 -1.3486  0.0333
 4784SOL     OW16983   6.761   3.371   4.148  0.0836 -0.0167  0.1066
 4784SOL    HW116984   6.678   3.399   4.186 -0.3825 -1.3508  0.1169
 4784SOL    HW216985   6.774   3.283   4.181  0.0429 -0.9519 -2.1775
 4785SOL     OW16986   8.952   0.864   9.402  0.0728  0.0108 -0.1132
 4785SOL    HW116987   8.975   0.943   9.352  2.5435 -0.8298 -0.4497
 4785SOL    HW216988   8.979   0.884   9.491 -1.9309  0.5347  0.4255
 4786SOL     OW16989   3.647   8.357   5.400  0.1824  0.5020  0.9194
 4786SOL    HW116990   3.713   8.299   5.439 -0.2088 -0.9860 -0.5101
 4786SOL    HW216991   3.595   8.299   5.345 -0.5257  2.1599 -0.2207
 4787SOL     OW16992   6.675   8.451   5.026  0.4091 -0.0308  0.6422
 4787SOL    HW116993   6.739   8.467   5.095  0.2266  1.0504  0.5842
 4787SOL    HW216994   6.724   8.466   4.945  0.0951  0.8277  0.5983
 4788SOL     OW16995   4.347   3.278   5.544 -0.4982  0.6478  0.5513
 4788SOL    HW116996   4.387   3.242   5.465 -0.4761 -0.5261  1.0818
 4788SOL    HW216997   4.422   3.310   5.595 -0.5534  1.9723 -0.1432
 4789SOL     OW16998   5.860  10.254   5.366 -0.0184  0.8266  0.4102
 4789SOL    HW116999   5.922  10.200   5.415 -0.6748 -0.2894  0.0404
 4789SOL    HW217000   5.893  10.343   5.376  2.2454  0.1651 -0.6589
 4790SOL     OW17001   4.156   4.431  10.176 -0.3951  0.3807 -0.3244
 4790SOL    HW117002   4.144   4.522  10.204  1.0771  0.2671  0.7657
 4790SOL    HW217003   4.138   4.433  10.081 -2.9800  1.2584  0.0897
 4791SOL     OW17004   8.834   8.556   0.298 -0.5345  0.4333 -0.3479
 4791SOL    HW117005   8.789   8.485   0.253 -0.1853 -0.3562  0.5043
 4791SOL    HW217006   8.789   8.564   0.382 -1.1969  1.9051 -0.7992
 4792SOL     OW17007   9.796   7.239   0.527 -0.0825  0.1146  0.1056
 4792SOL    HW117008   9.867   7.232   0.591 -0.6687 -0.7265  0.6828
 4792SOL    HW217009   9.793   7.332   0.503  1.3936  0.1114 -0.1511
 4793SOL     OW17010   7.269   9.224   2.071 -0.1879 -0.1773  0.6800
 4793SOL    HW117011   7.208   9.234   2.144 -0.8868  0.0169  0.0780
 4793SOL    HW217012   7.337   9.165   2.104 -0.1012  0.4829  1.7293
 4794SOL     OW17013   2.247  10.247   2.725 -0.5164  0.7704 -0.0714
 4794SOL    HW117014   2.228  10.340   2.713 -1.8450  0.2534 -2.5916
 4794SOL    HW217015   2.171  10.201   2.690  1.7871 -1.3139 -2.8780
 4795SOL     OW17016   6.126   6.148   7.979 -0.1939  0.1468 -0.3781
 4795SOL    HW117017   6.127   6.233   8.023 -0.2226 -0.3873  0.7061
 4795SOL    HW217018   6.039   6.113   7.998  0.3305 -0.7496  0.4652
 4796SOL     OW17019   9.795   0.593   8.550  0.4108 -0.1040 -0.8794
 4796SOL    HW117020   9.889   0.579   8.544  0.2815 -2.3632  0.7646
 4796SOL    HW217021   9.780   0.619   8.641 -0.5591  0.2188 -1.1128
 4797SOL     OW17022   0.807   4.484   8.072  0.2680  0.4267  0.0356
 4797SOL    HW117023   0.731   4.489   8.130  0.0600  0.1785 -0.2166
 4797SOL    HW217024   0.880   4.514   8.126  0.1765 -0.3532  0.6021
 4798SOL     OW17025   7.665   9.370   8.319 -0.3217  0.0141  0.2706
 4798SOL    HW117026   7.702   9.414   8.243  1.3098  2.2366  2.2116
 4798SOL    HW217027   7.723   9.296   8.334 -1.1632 -0.9724 -1.0781
 4799SOL     OW17028   8.835   9.795   9.796  0.0357 -0.3766  0.0944
 4799SOL    HW117029   8.806   9.705   9.803  2.6097 -1.1786  2.5867
 4799SOL    HW217030   8.779   9.843   9.857 -0.4971 -0.5368 -0.2669
 4800SOL     OW17031   7.028   2.656   7.867  0.0684  0.2986 -0.3889
 4800SOL    HW117032   7.009   2.690   7.954 -1.9117 -1.5645 -0.0231
 4800SOL    HW217033   7.014   2.730   7.809  1.2176  1.5157  0.8119
 4801SOL     OW17034   6.588  10.032   6.298  0.0577 -0.3412  0.3410
 4801SOL    HW117035   6.493  10.026   6.286  0.0387 -0.5670  0.5862
 4801SOL    HW217036   6.600  10.030   6.393  0.3630 -1.2807  0.2987
 4802SOL     OW17037   5.874  10.019   8.504 -0.2840 -0.1313 -0.0963
 4802SOL    HW117038   5.931  10.015   8.428  0.6501  1.1952  0.4847
 4802SOL    HW217039   5.914  10.086   8.560  1.1072 -3.3417  3.2235
 4803SOL     OW17040   3.415   4.129   0.019  0.6601  0.1744 -0.5028
 4803SOL    HW117041   3.392   4.039  -0.005 -0.7118  0.7315 -1.3927
 4803SOL    HW217042   3.445   4.169  -0.062  0.8378  0.6525 -0.2099
 4804SOL     OW17043   6.044   3.812   8.508 -0.3012  0.1769  0.5627
 4804SOL    HW117044   6.091   3.806   8.591  0.5208 -1.3170  0.0195
 4804SOL    HW217045   6.093   3.878   8.458  0.7332 -0.7387  0.3338
 4805SOL     OW17046   6.256   6.410   8.976 -0.8382  0.1883  0.0688
 4805SOL    HW117047   6.317   6.388   8.906 -1.6016  2.7378 -1.5031
 4805SOL    HW217048   6.296   6.372   9.055  2.1570  0.7225 -1.0617
 4806SOL     OW17049   4.322   8.497   7.832  0.4695 -0.2777 -0.2944
 4806SOL    HW117050   4.370   8.416   7.846  0.6211 -0.1724 -0.2062
 4806SOL    HW217051   4.318   8.507   7.736  1.3889  0.1688 -0.2905
 4807SOL     OW17052   9.446   3.212   9.383  0.0428  0.3788 -0.2918
 4807SOL    HW117053   9.483   3.230   9.297  1.2111  1.0218  0.3262
 4807SOL    HW217054   9.467   3.289   9.435 -0.5649 -0.0437  0.6026
 4808SOL     OW17055   3.810   2.786   3.015 -0.1736 -0.1107  0.3545
 4808SOL    HW117056   3.745   2.758   2.951  1.4080 -0.4609 -1.1646
 4808SOL    HW217057   3.871   2.841   2.966  0.0295  1.2193  2.0098
 4809SOL     OW17058   7.009   1.525   0.373  0.1190  0.2114 -0.5755
 4809SOL    HW117059   7.102   1.509   0.389 -0.4359 -3.1077  0.1425
 4809SOL    HW217060   6.968   1.516   0.459 -1.1157 -1.1450 -1.2631
 4810SOL     OW17061   9.592   7.882   8.748  0.1963  0.1550  0.5647
 4810SOL    HW117062   9.678   7.842   8.736 -0.7483 -1.7356 -0.4031
 4810SOL    HW217063   9.598   7.965   8.701  0.7840 -1.0788 -1.7313
 4811SOL     OW17064   8.022   5.178   0.618 -0.9679 -0.0097  0.4770
 4811SOL    HW117065   8.104   5.212   0.581 -1.3407 -0.5783 -0.9369
 4811SOL    HW217066   7.991   5.247   0.676 -0.6378  1.1651 -0.7082
 4812SOL     OW17067   5.873   5.106   5.046  0.9269 -0.0716  0.1038
 4812SOL    HW117068   5.897   5.015   5.060  0.0438 -0.3174  0.0517
 4812SOL    HW217069   5.838   5.135   5.130  1.1688  0.2159  0.1095
 4813SOL     OW17070   9.943   9.461   0.118 -0.0597  0.0381  0.1378
 4813SOL    HW117071   9.951   9.380   0.169  2.6381 -0.1130 -0.3830
 4813SOL    HW217072   9.954   9.433   0.027 -2.3888  0.6246 -0.3886
 4814SOL     OW17073   9.103  10.060   7.009  0.1785  0.1034  0.4419
 4814SOL    HW117074   9.062  10.135   6.966 -1.0154 -1.9861 -2.3672
 4814SOL    HW217075   9.036  10.026   7.069 -0.1791 -0.1056 -0.0734
 4815SOL     OW17076   6.904   7.411   7.570  0.0310 -0.0634  0.3658
 4815SOL    HW117077   6.965   7.429   7.642 -0.8858  0.4481  1.0281
 4815SOL    HW217078   6.827   7.374   7.612 -0.7865  0.8768 -0.2564
 4816SOL     OW17079   4.974   9.912   6.067 -0.0680  0.5985  0.2649
 4816SOL    HW117080   5.062   9.944   6.049  0.1586  0.0314  0.3430
 4816SOL    HW217081   4.951   9.859   5.990  0.9552 -1.9497  1.5917
 4817SOL     OW17082   8.867   8.888   8.263 -0.1807 -0.3986  0.5255
 4817SOL    HW117083   8.922   8.961   8.234  0.6321 -1.1101  0.2416
 4817SOL    HW217084   8.834   8.848   8.183 -0.7962 -0.2346  0.6855
 4818SOL     OW17085   5.771  10.071   3.499  0.1582  0.4857 -0.1324
 4818SOL    HW117086   5.862  10.049   3.479  0.5682  0.5616  1.5186
 4818SOL    HW217087   5.722  10.041   3.423  1.3909 -0.8417 -0.4440
 4819SOL     OW17088   7.512   0.877   7.887 -0.2034  0.3148  0.0910
 4819SOL    HW117089   7.533   0.914   7.972 -1.5640 -0.0880  0.6298
 4819SOL    HW217090   7.583   0.906   7.830 -0.2331  2.1619  0.9183
 4820SOL     OW17091   3.692   5.770   1.169 -0.0643  0.1547  0.3088
 4820SOL    HW117092   3.690   5.846   1.227  0.1625  0.3925  0.0106
 4820SOL    HW217093   3.770   5.783   1.115 -0.5949  0.2603 -0.4637
 4821SOL     OW17094   7.376   3.960   0.681  0.2300  0.0663  0.1744
 4821SOL    HW117095   7.450   3.945   0.622  0.8396  0.9349  0.6847
 4821SOL    HW217096   7.322   4.024   0.636 -0.6995 -1.2292 -0.5950
 4822SOL     OW17097  10.116   1.799   9.655  0.1288 -0.5561 -0.1965
 4822SOL    HW117098  10.117   1.846   9.573 -2.3902 -1.3237 -0.7451
 4822SOL    HW217099  10.079   1.713   9.634  1.9972 -1.8329  1.2633
 4823SOL     OW17100   8.085   1.075   7.823  0.0099  0.4138 -0.3871
 4823SOL    HW117101   8.154   1.067   7.756 -1.5318 -0.8311 -1.9264
 4823SOL    HW217102   8.017   1.127   7.780 -1.2497 -0.8872 -0.0320
 4824SOL     OW17103   8.975   2.589   3.002  0.3781 -0.3278 -0.5203
 4824SOL    HW117104   9.011   2.639   2.929 -0.5045  0.0315 -0.7197
 4824SOL    HW217105   9.023   2.621   3.079  0.6870 -0.0714 -0.8163
 4825SOL     OW17106   6.197   5.143   8.336 -0.1132 -0.0346  0.1695
 4825SOL    HW117107   6.213   5.050   8.321 -1.1710 -0.2652  0.4192
 4825SOL    HW217108   6.267   5.187   8.288  0.1892 -0.9402 -0.2454
 4826SOL     OW17109   6.582   2.367   9.691  0.2168 -0.0579 -0.4403
 4826SOL    HW117110   6.603   2.437   9.628 -1.2235 -0.5091 -1.4588
 4826SOL    HW217111   6.655   2.370   9.753  0.1608  2.4251 -0.3657
 4827SOL     OW17112   8.596   8.802   3.965 -0.3906  0.6811  0.5182
 4827SOL    HW117113   8.536   8.731   3.989  0.1677  0.5981  1.7453
 4827SOL    HW217114   8.668   8.757   3.920 -0.9542  0.7210 -0.4687
 4828SOL     OW17115   4.092   2.646   1.591  0.2173  0.1411  0.3438
 4828SOL    HW117116   4.174   2.653   1.641 -0.6547  0.0822  1.8298
 4828SOL    HW217117   4.047   2.571   1.630 -0.4543  0.0311 -0.6218
 4829SOL     OW17118   7.820   3.257   5.082  0.6254  0.0795 -0.6071
 4829SOL    HW117119   7.816   3.203   5.003  0.9106  1.1637 -1.3748
 4829SOL    HW217120   7.853   3.197   5.149 -0.7543 -1.1817 -0.9938
 4830SOL     OW17121   2.434  10.104   7.920  0.5871 -0.4287  0.4388
 4830SOL    HW117122   2.374  10.057   7.861 -0.3911  0.4343  0.7209
 4830SOL    HW217123   2.386  10.111   8.002  0.8238  0.8287  0.4769
 4831SOL     OW17124   9.650  10.344   8.455  0.1395  0.2169 -0.1413
 4831SOL    HW117125   9.571  10.397   8.442  0.4649  0.6708 -0.3087
 4831SOL    HW217126   9.722  10.403   8.430  0.6102  0.2235  1.1757
 4832SOL     OW17127   6.577   7.032   7.046  0.2847  0.5551  0.8665
 4832SOL    HW117128   6.602   7.122   7.024 -1.2283  0.7915 -0.0380
 4832SOL    HW217129   6.619   6.979   6.979  1.0045  0.6070  1.2730
 4833SOL     OW17130   4.808   1.634   4.730 -0.1067 -0.3719 -0.0219
 4833SOL    HW117131   4.751   1.711   4.737 -0.0178 -0.1337 -1.4960
 4833SOL    HW217132   4.853   1.629   4.814  0.6358  1.7974 -0.2443
 4834SOL     OW17133   6.068   8.833   0.764  0.1746 -0.3469  0.0513
 4834SOL    HW117134   6.156   8.855   0.735 -0.2248  1.1060 -0.1067
 4834SOL    HW217135   6.042   8.760   0.707  0.6257  0.3598 -1.1028
 4835SOL     OW17136   8.262   5.856   5.268  0.1916 -0.0421 -0.4873
 4835SOL    HW117137   8.261   5.797   5.192  0.7046 -0.3413 -0.2676
 4835SOL    HW217138   8.330   5.820   5.325  1.1055  1.2311 -0.7350
 4836SOL     OW17139   6.735  10.260   8.262 -0.3026 -1.0077 -0.0157
 4836SOL    HW117140   6.801  10.231   8.199 -0.9132 -1.3355 -0.5075
 4836SOL    HW217141   6.783  10.317   8.322  0.1824 -0.2700 -1.0824
 4837SOL     OW17142   4.075   7.586   0.219  0.2727  0.3591 -0.5509
 4837SOL    HW117143   4.007   7.620   0.161  0.6732  0.0966 -1.1873
 4837SOL    HW217144   4.135   7.660   0.231 -1.1818  1.2616  1.7105
 4838SOL     OW17145   4.424   1.763   6.249 -0.3096 -0.6026 -0.6468
 4838SOL    HW117146   4.454   1.726   6.332 -1.3000 -0.6731 -0.3188
 4838SOL    HW217147   4.469   1.711   6.182  1.6583  0.3776 -0.1923
 4839SOL     OW17148   7.953   4.102   2.487  0.1142  0.1870 -0.0966
 4839SOL    HW117149   7.873   4.153   2.481 -1.7413 -1.5927  4.8267
 4839SOL    HW217150   7.931   4.018   2.446 -0.9858 -0.6309  2.0668
 4840SOL     OW17151   2.733   0.101   4.972  0.0547  0.1981 -0.3421
 4840SOL    HW117152   2.752   0.086   5.065 -1.5242  0.4301  0.0554
 4840SOL    HW217153   2.681   0.181   4.971 -2.0293 -1.0771 -1.1340
 4841SOL     OW17154   8.652   6.030   0.517  0.1593  0.2621  0.4196
 4841SOL    HW117155   8.726   5.995   0.567  0.7914  0.1434 -0.5892
 4841SOL    HW217156   8.633   5.963   0.451  1.2593  1.6546 -1.4045
 4842SOL     OW17157   8.133   9.718   2.097  0.1394 -0.0742 -0.2811
 4842SOL    HW117158   8.178   9.793   2.136  0.4171  0.1531 -1.0184
 4842SOL    HW217159   8.057   9.703   2.154 -0.7175  1.6587 -0.9005
 4843SOL     OW17160   7.475   7.128   1.035 -0.5770  0.4764  0.2951
 4843SOL    HW117161   7.546   7.128   1.100  0.3773 -1.2953 -0.6836
 4843SOL    HW217162   7.395   7.116   1.087  0.0938 -0.0807  1.2243
 4844SOL     OW17163   3.730   3.324   6.570  0.6770 -0.2760  0.2819
 4844SOL    HW117164   3.737   3.419   6.562 -0.3291 -0.2577 -0.6521
 4844SOL    HW217165   3.698   3.310   6.660  0.1487  0.3125  0.1948
 4845SOL     OW17166   8.320   8.636   1.980  0.0247  0.0612 -0.1761
 4845SOL    HW117167   8.380   8.648   2.053 -0.4880 -1.7197  0.5831
 4845SOL    HW217168   8.234   8.626   2.021 -0.2995 -0.7271 -1.0143
 4846SOL     OW17169   6.019   5.763   4.528  0.0061  0.3348  0.1575
 4846SOL    HW117170   5.990   5.854   4.537 -1.3953  0.0259 -0.8982
 4846SOL    HW217171   5.941   5.711   4.549  0.6199 -0.6182  0.1462
 4847SOL     OW17172   6.887   7.928   4.823 -0.1188 -0.0477 -0.3879
 4847SOL    HW117173   6.832   7.995   4.863  0.6287 -0.4525  1.4198
 4847SOL    HW217174   6.966   7.974   4.796 -1.0384  0.4314 -2.5013
 4848SOL     OW17175   3.187   9.916   5.319  0.4337 -0.0280 -0.7834
 4848SOL    HW117176   3.270   9.920   5.368  0.1902 -0.1575 -0.3582
 4848SOL    HW217177   3.170  10.006   5.293 -0.5171  0.4055  1.1948
 4849SOL     OW17178   0.431   9.585   6.127 -0.3046  1.1194 -0.3817
 4849SOL    HW117179   0.408   9.518   6.192 -0.3184  0.2048 -1.2958
 4849SOL    HW217180   0.518   9.615   6.152  0.6821 -0.8692 -1.1863
 4850SOL     OW17181   8.001   8.203   5.866  0.2038  0.3391  0.0625
 4850SOL    HW117182   7.930   8.202   5.930 -0.5972  1.2946 -0.7956
 4850SOL    HW217183   8.015   8.295   5.846  2.4909  0.2892  1.0560
 4851SOL     OW17184   6.808   4.129   6.323  0.5256 -0.3326 -0.3065
 4851SOL    HW117185   6.722   4.087   6.321 -0.3017  1.3003 -1.0844
 4851SOL    HW217186   6.792   4.216   6.360  2.1824 -0.6224  1.2599
 4852SOL     OW17187   1.091   6.387   1.868 -0.2211 -1.1105  0.1895
 4852SOL    HW117188   1.094   6.477   1.836  2.3193 -0.8536  0.9630
 4852SOL    HW217189   1.026   6.344   1.812 -2.4703  1.4666  0.6351
 4853SOL     OW17190   5.733   5.909   6.883  0.3518  0.1105  0.0794
 4853SOL    HW117191   5.717   5.831   6.936 -0.2074 -0.3496 -0.7498
 4853SOL    HW217192   5.815   5.891   6.838  0.7515  0.4421  0.6511
 4854SOL     OW17193   8.277   8.509   2.975  0.0547  0.2242 -0.1887
 4854SOL    HW117194   8.302   8.489   3.066  1.3233 -0.6865 -0.7177
 4854SOL    HW217195   8.200   8.454   2.960 -0.3297  0.5792  0.4064
 4855SOL     OW17196   4.034   4.582   4.163  0.0196  0.4325 -0.0350
 4855SOL    HW117197   4.047   4.508   4.104 -0.4281 -0.1293  0.5513
 4855SOL    HW217198   4.120   4.623   4.169  0.3105 -0.1287 -0.2467
 4856SOL     OW17199   6.364   3.195  10.181 -0.7140  0.4221 -0.2571
 4856SOL    HW117200   6.446   3.156  10.211 -1.3286 -1.0548 -0.3970
 4856SOL    HW217201   6.346   3.151  10.098 -2.9131 -1.2100  0.9640
 4857SOL     OW17202   8.343   5.826   6.430 -0.1258  0.3914  0.1419
 4857SOL    HW117203   8.294   5.805   6.351 -1.7673  2.9058  0.3743
 4857SOL    HW217204   8.410   5.889   6.401 -0.5043  1.0505  0.6645
 4858SOL     OW17205   7.790   2.648   5.687  0.0137  0.2788 -0.3909
 4858SOL    HW117206   7.723   2.666   5.622 -0.4434 -0.4180 -0.1365
 4858SOL    HW217207   7.872   2.649   5.639 -0.3598 -0.6744 -1.0776
 4859SOL     OW17208   3.768  10.212   9.238 -0.4346  0.0553  0.0548
 4859SOL    HW117209   3.724  10.298   9.236 -1.2233 -0.3416 -0.0479
 4859SOL    HW217210   3.782  10.190   9.147  1.0564  0.7057  0.1065
 4860SOL     OW17211   7.862   3.189   9.211 -0.0554  0.3059  0.2274
 4860SOL    HW117212   7.797   3.155   9.149  0.0306  0.1233  0.2346
 4860SOL    HW217213   7.904   3.110   9.246 -0.0483  0.4108  0.4590
 4861SOL     OW17214   6.439   1.397   7.507  0.0574  0.2492 -0.1137
 4861SOL    HW117215   6.519   1.435   7.543  0.8154 -2.4733  1.4141
 4861SOL    HW217216   6.371   1.423   7.569  0.0192  1.3490 -0.6023
 4862SOL     OW17217  10.206   4.530   9.425  0.0396 -0.5224 -0.4301
 4862SOL    HW117218  10.152   4.583   9.366  2.0059  0.2847 -1.6405
 4862SOL    HW217219  10.147   4.504   9.496 -1.7349  0.8152 -1.3372
 4863SOL     OW17220   3.392   9.074   7.425 -0.1697 -0.2362  0.1620
 4863SOL    HW117221   3.411   9.162   7.458 -2.6729  0.7253 -0.7634
 4863SOL    HW217222   3.326   9.040   7.484 -2.6002  0.3954 -2.0034
 4864SOL     OW17223   2.842   7.914   7.049 -0.3629 -0.0903  0.4554
 4864SOL    HW117224   2.872   7.953   6.968 -0.2892 -0.3861  0.3385
 4864SOL    HW217225   2.847   7.819   7.034 -0.1750 -0.1495  0.8667
 4865SOL     OW17226   9.711   3.870   6.311  0.1871 -0.0780 -0.0745
 4865SOL    HW117227   9.758   3.802   6.359  1.0880  0.2230 -0.5045
 4865SOL    HW217228   9.780   3.925   6.274 -0.4934 -0.0642 -1.3715
 4866SOL     OW17229   4.379   8.022   2.149 -0.2173  0.1584 -0.3683
 4866SOL    HW117230   4.469   7.989   2.149 -0.9468 -2.0200  0.2496
 4866SOL    HW217231   4.346   8.000   2.236 -1.0199  1.9702 -0.1816
 4867SOL     OW17232   0.937   4.265   0.549 -0.0340  0.2419  0.1148
 4867SOL    HW117233   0.923   4.256   0.643  0.3847 -0.1265  0.1469
 4867SOL    HW217234   1.031   4.279   0.539  0.3265 -2.0394 -0.3656
 4868SOL     OW17235  10.141   2.200   7.346 -0.0332  0.7209  0.2474
 4868SOL    HW117236  10.053   2.172   7.320 -1.2340  3.8641  0.5471
 4868SOL    HW217237  10.185   2.217   7.263  0.5867 -1.3858  0.0728
 4869SOL     OW17238   6.232   9.256   0.853  0.4073 -0.0757  0.2144
 4869SOL    HW117239   6.219   9.345   0.819  0.4464 -0.0164  0.3556
 4869SOL    HW217240   6.286   9.267   0.931 -0.4651 -0.1209  0.8356
 4870SOL     OW17241   0.617   4.712   9.917 -0.1196 -0.7376 -0.6417
 4870SOL    HW117242   0.634   4.646   9.985  0.4354  0.4163  0.3814
 4870SOL    HW217243   0.694   4.707   9.860  1.3709  0.9681  1.0906
 4871SOL     OW17244   0.851   8.211   3.877  0.3510 -0.3352  0.7675
 4871SOL    HW117245   0.847   8.222   3.782  2.0529 -1.4389  0.5278
 4871SOL    HW217246   0.910   8.281   3.907  0.4166 -0.4514  0.9142
 4872SOL     OW17247  10.026   9.926   3.838  0.4128 -0.4744 -0.3548
 4872SOL    HW117248   9.976   9.947   3.759  1.3338  0.9718 -0.6053
 4872SOL    HW217249  10.089   9.998   3.845  1.6311 -1.6037  0.6193
 4873SOL     OW17250   9.384   8.293   7.310  0.0392 -0.1735  0.1350
 4873SOL    HW117251   9.425   8.254   7.233 -1.5402 -0.5996 -0.5369
 4873SOL    HW217252   9.292   8.302   7.286 -0.4871 -0.2855  1.9640
 4874SOL     OW17253   3.457   8.543   5.108  0.0160  0.2437 -0.2339
 4874SOL    HW117254   3.534   8.492   5.081 -0.9064 -0.6423 -1.2698
 4874SOL    HW217255   3.405   8.483   5.160 -0.0808  0.7871  0.3121
 4875SOL     OW17256   4.845   9.483   2.914 -0.4642  0.1311 -0.5547
 4875SOL    HW117257   4.895   9.408   2.944 -1.1952  0.8939  3.0141
 4875SOL    HW217258   4.756   9.467   2.944 -0.6762  2.2991  0.1390
 4876SOL     OW17259   5.468   2.668   1.947 -0.3391  0.5193  0.1079
 4876SOL    HW117260   5.400   2.628   2.001 -0.6461 -0.8029 -1.1807
 4876SOL    HW217261   5.421   2.701   1.871  0.2695  0.9739 -0.0742
 4877SOL     OW17262   1.096   4.064   1.648  0.5607 -0.8650 -0.6790
 4877SOL    HW117263   1.078   4.148   1.689 -2.2932 -0.9733 -1.4857
 4877SOL    HW217264   1.178   4.035   1.687  0.4987  1.2649  1.2215
 4878SOL     OW17265   1.196   4.462  10.087 -0.0578  0.4387  0.4910
 4878SOL    HW117266   1.147   4.488  10.165 -1.6398  0.0961 -0.3497
 4878SOL    HW217267   1.150   4.385  10.054  0.9335  0.2300 -0.4437
 4879SOL     OW17268  10.356   6.026   8.649  0.1682 -0.2230 -0.2141
 4879SOL    HW117269  10.390   5.944   8.685  0.5917  0.3403  0.7179
 4879SOL    HW217270  10.387   6.093   8.710 -1.9669  0.4124  0.2656
 4880SOL     OW17271   0.773   5.208   6.717  1.1562  0.0612 -0.0783
 4880SOL    HW117272   0.822   5.138   6.759  1.1699  0.2014  0.1395
 4880SOL    HW217273   0.795   5.287   6.767  1.1526  0.2235 -0.3295
 4881SOL     OW17274   4.717   1.233   0.866  0.7311 -0.2542 -0.1640
 4881SOL    HW117275   4.669   1.314   0.849  1.3814 -0.0805 -1.2143
 4881SOL    HW217276   4.675   1.168   0.810 -0.2154 -0.8218  1.1588
 4882SOL     OW17277   4.404   9.886   2.564 -0.3893 -0.1626  0.0547
 4882SOL    HW117278   4.493   9.874   2.596 -0.2746 -1.0001 -0.5417
 4882SOL    HW217279   4.352   9.900   2.643  0.2233  0.0310  0.4303
 4883SOL     OW17280   1.238   3.487   4.814 -0.6724 -0.3742 -0.7226
 4883SOL    HW117281   1.251   3.393   4.821 -0.5525 -0.4218 -1.5507
 4883SOL    HW217282   1.148   3.498   4.784 -1.2988 -0.1540  1.0678
 4884SOL     OW17283   5.362   3.284   9.729 -0.2696 -0.6075  0.2419
 4884SOL    HW117284   5.303   3.213   9.754 -0.3349 -0.6532 -0.0414
 4884SOL    HW217285   5.305   3.359   9.715 -0.4991 -1.1007 -1.8302
 4885SOL     OW17286   9.173   6.024   8.812  0.0341  0.1162 -0.5793
 4885SOL    HW117287   9.129   6.093   8.762 -0.7400  0.0378 -0.0355
 4885SOL    HW217288   9.242   6.070   8.861  1.0568  0.1284 -1.9850
 4886SOL     OW17289   2.221   9.364   1.081 -0.0395 -0.0195  0.7045
 4886SOL    HW117290   2.314   9.342   1.092  0.1019  0.6844  0.9353
 4886SOL    HW217291   2.218   9.459   1.088 -0.4399  0.2041 -1.6542
 4887SOL     OW17292   4.639   2.118   6.525 -0.2731  0.0453 -0.6769
 4887SOL    HW117293   4.587   2.087   6.450 -0.5547  0.9120 -0.8458
 4887SOL    HW217294   4.723   2.143   6.486 -0.5760  0.9220 -0.7801
 4888SOL     OW17295   7.228   2.781   9.920 -0.2299  0.2304  0.5655
 4888SOL    HW117296   7.154   2.745   9.968 -1.1178  0.6006 -0.4645
 4888SOL    HW217297   7.244   2.718   9.849  0.4638  0.1389  0.7964
 4889SOL     OW17298   3.183   7.437   1.076 -0.3246 -0.2265 -0.2628
 4889SOL    HW117299   3.274   7.420   1.098  0.4699  2.3252 -1.2644
 4889SOL    HW217300   3.140   7.450   1.161  1.2122  2.6317  0.2207
 4890SOL     OW17301   6.296   9.027   1.732  0.3675  0.4490 -0.3886
 4890SOL    HW117302   6.250   9.088   1.790 -2.6706  1.5586 -3.6105
 4890SOL    HW217303   6.234   8.956   1.719  2.1265 -1.2022 -0.1802
 4891SOL     OW17304   7.820   2.350   3.214 -0.3812  0.2365  0.1002
 4891SOL    HW117305   7.808   2.388   3.301  2.2526 -1.2713  1.2508
 4891SOL    HW217306   7.844   2.425   3.159 -3.5590  1.4649  0.1887
 4892SOL     OW17307   7.845   0.148   2.455  0.7486  0.6514  0.4828
 4892SOL    HW117308   7.927   0.121   2.414  0.5028  0.4018  0.1451
 4892SOL    HW217309   7.822   0.229   2.410  0.3470  0.2420 -0.0600
 4893SOL     OW17310   2.289   8.697   6.777  0.3251  0.8306 -0.3208
 4893SOL    HW117311   2.308   8.605   6.760  1.1806  1.0255 -0.4946
 4893SOL    HW217312   2.284   8.737   6.690 -0.9261  0.7915 -0.2775
 4894SOL     OW17313   4.720   5.950   3.354 -0.0879 -0.0685 -0.6974
 4894SOL    HW117314   4.704   5.931   3.261  2.2258  1.9282 -1.6264
 4894SOL    HW217315   4.729   6.045   3.358  0.8715 -0.1847  1.3984
 4895SOL     OW17316   9.557   0.170   6.330 -0.2361  0.3875 -0.0912
 4895SOL    HW117317   9.576   0.120   6.409 -2.5087 -0.4037  0.0298
 4895SOL    HW217318   9.529   0.104   6.266  2.4125  0.8944 -1.9244
 4896SOL     OW17319   6.018   6.747   9.828  0.1117  0.6781  0.0183
 4896SOL    HW117320   5.960   6.821   9.808  1.8295  1.9747 -0.5043
 4896SOL    HW217321   6.035   6.707   9.742  0.6350  0.8516  0.0338
 4897SOL     OW17322   5.528   2.327   1.459  0.3482 -0.4753  0.2334
 4897SOL    HW117323   5.549   2.421   1.460 -0.7188 -0.1772  2.9624
 4897SOL    HW217324   5.590   2.288   1.519  0.8038 -1.5870 -0.9141
 4898SOL     OW17325   3.868   3.016   0.219  0.2421  0.8109 -0.2321
 4898SOL    HW117326   3.867   2.931   0.262  0.4790  0.9767  0.1048
 4898SOL    HW217327   3.896   2.998   0.129  0.5355  0.5674 -0.0906
 4899SOL     OW17328   9.146   9.122   4.039  0.1961  0.2640 -0.4843
 4899SOL    HW117329   9.076   9.186   4.054 -0.6981 -0.6653 -0.5636
 4899SOL    HW217330   9.143   9.104   3.945 -1.3132 -1.7899 -0.1111
 4900SOL     OW17331   3.378   0.647   5.091 -0.3084 -0.5222 -0.0872
 4900SOL    HW117332   3.468   0.623   5.112 -0.3385 -1.8600 -1.3057
 4900SOL    HW217333   3.328   0.627   5.170  0.4958  0.5431  0.7064
 4901SOL     OW17334   9.249  10.291  10.136 -0.3742  0.0296 -0.4665
 4901SOL    HW117335   9.291  10.254  10.213 -1.1526 -0.2410 -0.1563
 4901SOL    HW217336   9.227  10.215  10.082  0.2473  0.2244 -1.0029
 4902SOL     OW17337   5.413   2.163   5.430 -0.1524  0.3328 -0.0636
 4902SOL    HW117338   5.396   2.075   5.464  1.1940  0.2264  0.4043
 4902SOL    HW217339   5.427   2.150   5.336 -0.1705  0.0811 -0.0329
 4903SOL     OW17340   5.882   8.025   4.361  0.1636 -0.9814  0.0385
 4903SOL    HW117341   5.898   8.050   4.452 -0.2295  0.1620 -0.1874
 4903SOL    HW217342   5.835   8.099   4.324 -0.5925 -1.8745 -0.8315
 4904SOL     OW17343   0.560   0.970   7.399 -0.5037 -0.1399 -0.9281
 4904SOL    HW117344   0.518   1.037   7.453 -0.1147 -0.3370 -0.3741
 4904SOL    HW217345   0.503   0.893   7.408  0.6338 -0.8396  0.9163
 4905SOL     OW17346   9.553   2.260   6.093 -0.0939 -0.2919  0.5148
 4905SOL    HW117347   9.594   2.306   6.020  0.5529  0.9630  1.6199
 4905SOL    HW217348   9.563   2.168   6.072  0.9002  0.0305 -0.5389
 4906SOL     OW17349   9.041   0.873   7.416  0.2328  0.4994 -0.6686
 4906SOL    HW117350   9.075   0.816   7.347 -0.1702 -0.3540 -0.1801
 4906SOL    HW217351   9.117   0.896   7.469  0.1348 -1.0793  0.1914
 4907SOL     OW17352   0.539  10.101   2.025 -0.6698 -0.0615  0.2595
 4907SOL    HW117353   0.495  10.175   2.067 -2.0331  0.0282 -1.2296
 4907SOL    HW217354   0.472  10.063   1.967 -0.6674 -3.6713  2.3389
 4908SOL     OW17355   6.536   4.276   4.007 -0.5645  0.0078  0.1282
 4908SOL    HW117356   6.571   4.223   4.078 -1.3767 -0.2801  0.3269
 4908SOL    HW217357   6.522   4.363   4.045  2.0826  0.8384 -0.5537
 4909SOL     OW17358   0.045   0.492   7.869  0.3487  0.3459 -0.3595
 4909SOL    HW117359   0.003   0.435   7.933 -0.7114 -0.4724 -1.7394
 4909SOL    HW217360   0.013   0.580   7.890  1.0383  0.2876  1.0221
 4910SOL     OW17361   1.981   0.456   3.775  0.0333  0.1840  0.2697
 4910SOL    HW117362   2.062   0.430   3.731 -0.6320 -0.7416 -0.4363
 4910SOL    HW217363   2.002   0.540   3.816  1.2605  0.0967 -0.1532
 4911SOL     OW17364   7.902   1.607   9.311  0.3469 -0.1535  0.0575
 4911SOL    HW117365   7.851   1.581   9.388  0.2715 -1.7828 -0.4966
 4911SOL    HW217366   7.845   1.668   9.264  0.6084  1.2894  1.5306
 4912SOL     OW17367   8.502   5.078   9.482  0.2117 -0.0940 -0.6210
 4912SOL    HW117368   8.440   5.136   9.439 -0.0065  0.6321  0.6214
 4912SOL    HW217369   8.560   5.136   9.531  1.0534 -0.8394 -0.7114
 4913SOL     OW17370   2.344   6.815   1.987  0.4488 -0.5558  0.3041
 4913SOL    HW117371   2.267   6.796   2.040 -0.0289  0.4319  0.0003
 4913SOL    HW217372   2.388   6.887   2.033 -0.8939  1.5157 -1.4064
 4914SOL     OW17373   1.277   8.093   3.712  0.0605 -0.7160 -0.0662
 4914SOL    HW117374   1.367   8.123   3.726 -0.0006  0.4164 -1.7173
 4914SOL    HW217375   1.286   8.003   3.681  0.7318 -0.3039 -1.1491
 4915SOL     OW17376  10.253   1.063   8.540  0.4690  0.1102  0.1755
 4915SOL    HW117377  10.199   1.005   8.488 -0.2866  1.2668 -0.3795
 4915SOL    HW217378  10.314   1.103   8.478  0.4369  0.5200  0.3997
 4916SOL     OW17379   8.007   3.562   5.525  0.1158 -0.5014 -0.1420
 4916SOL    HW117380   7.919   3.527   5.521  0.0580 -0.2702 -1.0190
 4916SOL    HW217381   8.064   3.491   5.497  0.1489 -0.4505 -0.2062
 4917SOL     OW17382   2.908   3.561   9.498  0.7581 -1.2275  0.3815
 4917SOL    HW117383   2.842   3.607   9.550  0.1159 -2.0225  0.3037
 4917SOL    HW217384   2.990   3.574   9.545  0.4002 -0.9065  0.9274
 4918SOL     OW17385  10.253   9.656   5.205  0.2685  0.1484 -0.3202
 4918SOL    HW117386  10.271   9.615   5.289  2.6414  0.4034 -0.6242
 4918SOL    HW217387  10.248   9.750   5.225  1.6602  0.2866 -0.5447
 4919SOL     OW17388   0.874   0.575   0.731 -0.0639  0.0369  0.1748
 4919SOL    HW117389   0.831   0.536   0.806 -1.6947  0.8090 -0.3203
 4919SOL    HW217390   0.966   0.581   0.757 -0.4937 -0.2306  1.8735
 4920SOL     OW17391   6.207   7.791   8.512 -0.0076 -0.4061  0.4999
 4920SOL    HW117392   6.131   7.811   8.568  0.5061  0.1126  1.0195
 4920SOL    HW217393   6.223   7.872   8.464 -2.5308 -1.7421 -3.0117
 4921SOL     OW17394   8.118   5.694   6.638 -0.4382  0.0692 -0.4748
 4921SOL    HW117395   8.212   5.705   6.625 -0.4313 -0.6001 -1.0830
 4921SOL    HW217396   8.101   5.604   6.611 -0.9989 -0.3466  1.1239
 4922SOL     OW17397   7.997   2.858   6.519 -0.1673  0.1703 -0.1012
 4922SOL    HW117398   7.948   2.777   6.533 -0.8418  0.2610 -1.6912
 4922SOL    HW217399   8.015   2.859   6.425  1.5992  0.8983  0.2123
 4923SOL     OW17400  10.284  10.066   1.844  0.5414  0.7419  0.1422
 4923SOL    HW117401  10.199  10.024   1.832 -0.1363  2.2429 -0.5547
 4923SOL    HW217402  10.340  10.027   1.777  1.0328 -1.6832  1.8282
 4924SOL     OW17403   0.681   5.343   5.628 -0.1006  0.9153  0.3913
 4924SOL    HW117404   0.644   5.348   5.716  1.0101  2.4035  0.8181
 4924SOL    HW217405   0.609   5.311   5.573 -1.1201  0.9625  1.6547
 4925SOL     OW17406  10.296   5.111   7.635  0.0229 -0.0672 -0.7830
 4925SOL    HW117407  10.378   5.154   7.608  0.2903 -0.4915 -0.6599
 4925SOL    HW217408  10.324   5.028   7.674 -0.4271  0.1155 -0.0618
 4926SOL     OW17409  10.351   4.907   3.781  0.1276 -0.3159  0.4556
 4926SOL    HW117410  10.373   4.821   3.815  0.9163 -0.8054 -1.1704
 4926SOL    HW217411  10.433   4.938   3.741 -0.3429  0.8690  0.3793
 4927SOL     OW17412   4.423   7.728   5.602  1.0195 -0.3338 -0.3307
 4927SOL    HW117413   4.332   7.751   5.622  1.0487  1.1911 -1.6997
 4927SOL    HW217414   4.450   7.671   5.673 -0.7077 -0.0246  0.6210
 4928SOL     OW17415   5.348   5.616   0.528  0.6874 -0.7183 -0.4580
 4928SOL    HW117416   5.352   5.565   0.447  0.2749  1.7350 -2.1278
 4928SOL    HW217417   5.262   5.657   0.526  1.4631  1.0091  0.1576
 4929SOL     OW17418   5.423   7.787   3.557  0.2538  0.3978 -0.1499
 4929SOL    HW117419   5.395   7.817   3.470  1.1337  0.1795 -0.5174
 4929SOL    HW217420   5.341   7.774   3.605 -0.3005 -0.3249 -1.2305
 4930SOL     OW17421   3.074   8.100   6.245  0.7470  0.1612 -0.8898
 4930SOL    HW117422   3.056   8.010   6.219  1.2110  0.3173 -1.8064
 4930SOL    HW217423   3.028   8.154   6.180  0.2571  0.5881 -0.1975
 4931SOL     OW17424   4.033   5.942   2.806 -0.1068 -0.4863 -0.6347
 4931SOL    HW117425   4.068   5.997   2.736 -1.1776  0.0832 -0.7480
 4931SOL    HW217426   3.998   6.004   2.870 -0.2308 -1.0210 -0.1751
 4932SOL     OW17427   6.052   7.485   8.802 -0.2179  0.2853 -0.2573
 4932SOL    HW117428   5.991   7.530   8.744 -0.0008  0.0423 -0.6782
 4932SOL    HW217429   6.012   7.491   8.888  0.1652  1.9335 -0.1736
 4933SOL     OW17430   6.023   0.012   0.010 -0.0984 -0.5988  0.2680
 4933SOL    HW117431   6.017  -0.037  -0.071 -0.8072  0.1603 -0.1639
 4933SOL    HW217432   5.997   0.101  -0.014 -1.8040 -0.6752  1.5864
 4934SOL     OW17433   7.693   9.204   2.146  0.4367  0.4563 -0.1619
 4934SOL    HW117434   7.712   9.143   2.075  1.0071  0.3774  0.0468
 4934SOL    HW217435   7.779   9.223   2.185  0.0824  0.1004  0.8303
 4935SOL     OW17436   6.057   4.405   8.895  0.4608 -0.1240 -0.1902
 4935SOL    HW117437   6.031   4.454   8.973  0.1875 -0.1615 -0.2567
 4935SOL    HW217438   6.084   4.319   8.928 -0.7697 -0.5539 -0.2394
 4936SOL     OW17439   8.561   6.732   6.065  0.0293  0.0569  0.0363
 4936SOL    HW117440   8.567   6.700   5.975  0.2648  1.8622 -0.6442
 4936SOL    HW217441   8.468   6.733   6.085 -0.0702  0.2427 -0.4279
 4937SOL     OW17442   2.491   0.324   5.633  0.0863  0.7579 -0.3516
 4937SOL    HW117443   2.452   0.369   5.708 -0.5257  1.8416 -1.2963
 4937SOL    HW217444   2.425   0.330   5.564  0.5943 -0.3307 -0.9504
 4938SOL     OW17445   1.384   7.094   5.829  0.6227  0.0864 -0.2675
 4938SOL    HW117446   1.360   7.063   5.917  2.2440 -0.4008  0.0380
 4938SOL    HW217447   1.352   7.026   5.770  0.1024  0.0983 -0.0045
 4939SOL     OW17448   7.912   3.092   5.297  0.1422 -0.4093 -0.1846
 4939SOL    HW117449   7.894   3.146   5.374  0.1176 -0.3250 -0.2493
 4939SOL    HW217450   7.992   3.044   5.319  1.1500  0.9321 -0.7918
 4940SOL     OW17451   7.971   0.636   9.931 -0.7172  0.2886 -0.3313
 4940SOL    HW117452   7.898   0.619   9.871 -0.3050  0.1416 -0.7963
 4940SOL    HW217453   8.011   0.550   9.945 -0.1834  0.4730 -0.6701
 4941SOL     OW17454   8.725   7.084   8.562  0.2640 -0.3655 -0.1736
 4941SOL    HW117455   8.786   7.103   8.491  0.3320  2.0328  0.4193
 4941SOL    HW217456   8.779   7.052   8.633  0.4826 -0.6684 -0.4735
 4942SOL     OW17457   0.230   9.638   0.219 -0.3841  0.5009  0.1673
 4942SOL    HW117458   0.180   9.705   0.266 -0.5311  0.4590  0.0716
 4942SOL    HW217459   0.192   9.638   0.131  0.6336  1.3713 -0.2846
 4943SOL     OW17460   4.265   4.477   3.746 -0.7287 -0.8918  0.2029
 4943SOL    HW117461   4.333   4.416   3.773  0.7594  0.0263 -1.2912
 4943SOL    HW217462   4.271   4.481   3.651 -0.5682  1.7454  0.2327
 4944SOL     OW17463   9.991   8.451   7.119  0.2877 -0.0864 -0.3565
 4944SOL    HW117464  10.069   8.477   7.070 -0.0049 -0.9030 -1.2779
 4944SOL    HW217465   9.923   8.439   7.053 -0.3756 -0.2738  0.3474
 4945SOL     OW17466   5.234   1.459  10.055 -0.4161 -0.1388 -0.1134
 4945SOL    HW117467   5.315   1.417  10.025  0.8867  2.7132 -0.9431
 4945SOL    HW217468   5.207   1.407  10.131  2.8046 -0.6379  0.8450
 4946SOL     OW17469   3.470   9.152   0.210  0.1878  0.1902 -0.7464
 4946SOL    HW117470   3.549   9.204   0.227 -0.2694  0.7557 -0.2852
 4946SOL    HW217471   3.429   9.195   0.134 -0.0133  0.3018 -0.5766
 4947SOL     OW17472   4.496  10.046   7.597  0.0176 -0.3496 -0.1883
 4947SOL    HW117473   4.415  10.003   7.622  1.0496 -2.7581 -0.7542
 4947SOL    HW217474   4.565   9.998   7.643  1.2084  1.2794 -0.1443
 4948SOL     OW17475   3.957   7.234   6.597 -0.4052 -0.3176 -0.2240
 4948SOL    HW117476   4.027   7.218   6.660  0.7928  0.8579 -1.2032
 4948SOL    HW217477   3.879   7.249   6.650 -0.1579 -2.4721  0.8752
 4949SOL     OW17478   4.229   0.685   4.535  0.4963  0.3811  0.2575
 4949SOL    HW117479   4.219   0.674   4.440  0.3406  1.6040  0.1134
 4949SOL    HW217480   4.311   0.733   4.545 -0.1371  1.4209  0.6423
 4950SOL     OW17481   5.739   4.765   2.253  0.5822  0.3395 -0.0775
 4950SOL    HW117482   5.759   4.810   2.335  0.4092 -0.7974  0.6208
 4950SOL    HW217483   5.664   4.812   2.217 -0.4187 -0.1495  1.2791
 4951SOL     OW17484   9.226   9.581   7.523  0.4089 -0.4332 -0.2806
 4951SOL    HW117485   9.275   9.589   7.441  0.3606  0.4334 -0.2353
 4951SOL    HW217486   9.136   9.562   7.496  0.9438 -3.3886 -0.3438
 4952SOL     OW17487   3.399   8.110   1.601 -0.3295  0.3374  0.3471
 4952SOL    HW117488   3.485   8.151   1.595  0.0324 -0.4934 -0.3651
 4952SOL    HW217489   3.412   8.034   1.657 -0.9684  1.1030  1.5631
 4953SOL     OW17490   3.799   9.169   8.682  0.1122 -0.1410 -0.2052
 4953SOL    HW117491   3.796   9.162   8.777  0.1416  1.2978 -0.0774
 4953SOL    HW217492   3.836   9.085   8.653  0.9813 -0.2387  1.1115
 4954SOL     OW17493   6.670   3.334   8.601 -0.1475 -0.3631 -0.0825
 4954SOL    HW117494   6.627   3.250   8.587  3.2903 -2.2298 -0.7069
 4954SOL    HW217495   6.664   3.379   8.517 -2.2248  0.2117  0.3283
 4955SOL     OW17496   3.582   7.714   7.270 -0.1143 -0.3861  0.0806
 4955SOL    HW117497   3.490   7.690   7.275 -0.2600 -0.1140 -1.1333
 4955SOL    HW217498   3.595   7.774   7.344 -0.6407 -1.2248  0.8730
 4956SOL     OW17499   9.337   7.208   2.536 -0.2842  0.8555  0.0800
 4956SOL    HW117500   9.403   7.141   2.525 -0.3669  0.8883 -0.7204
 4956SOL    HW217501   9.255   7.166   2.509 -0.8406  0.4222  2.2387
 4957SOL     OW17502   8.972   6.250   9.204  0.4698 -0.6415 -0.6789
 4957SOL    HW117503   8.957   6.283   9.115 -0.2067  1.6706  0.2280
 4957SOL    HW217504   9.067   6.253   9.215  0.5320 -0.6073 -1.1983
 4958SOL     OW17505   2.867   9.605   0.627 -0.3433  0.5151  0.3216
 4958SOL    HW117506   2.958   9.636   0.626 -0.2039  0.1182 -0.8664
 4958SOL    HW217507   2.815   9.685   0.633  0.0693  0.7187  1.6494
 4959SOL     OW17508   8.644   8.646   3.386 -0.3794  0.0547 -0.2751
 4959SOL    HW117509   8.706   8.587   3.429  0.8647  1.8870  0.5960
 4959SOL    HW217510   8.605   8.696   3.458  1.0087  2.4959 -1.1036
 4960SOL     OW17511   5.660   3.018   0.328  0.1910 -0.1408  0.1265
 4960SOL    HW117512   5.682   3.079   0.398 -0.5154  0.5627 -0.2538
 4960SOL    HW217513   5.604   3.068   0.269  0.3946 -0.8642 -0.7046
 4961SOL     OW17514   0.908   5.933   6.290  0.1683 -0.1201 -0.2423
 4961SOL    HW117515   0.875   5.994   6.224 -0.9243  0.4876  0.8276
 4961SOL    HW217516   0.868   5.962   6.371  1.1815 -1.0932  0.6326
 4962SOL     OW17517   2.225   4.520  10.099 -0.1443  0.0906  0.1140
 4962SOL    HW117518   2.132   4.543  10.101  0.5731  3.5160  2.8669
 4962SOL    HW217519   2.262   4.576  10.031  0.1025 -0.6816 -0.4096
 4963SOL     OW17520   7.386   1.134   2.389 -0.5984  0.4290  0.2444
 4963SOL    HW117521   7.456   1.083   2.429 -0.5016  0.0729 -0.3660
 4963SOL    HW217522   7.312   1.074   2.382 -0.9959  0.8234  0.9508
 4964SOL     OW17523   8.092   9.415   1.759  0.6408 -0.0849  0.0166
 4964SOL    HW117524   8.061   9.484   1.701  0.2187 -0.9406 -0.8017
 4964SOL    HW217525   8.024   9.348   1.756  0.4389 -0.0078  1.7962
 4965SOL     OW17526   0.502   4.176   9.291 -0.0971  0.4024 -0.7945
 4965SOL    HW117527   0.543   4.176   9.205  1.2814 -1.5017 -0.2162
 4965SOL    HW217528   0.449   4.096   9.293 -1.6559  1.3930 -0.5139
 4966SOL     OW17529   9.384   6.963   0.575 -0.3392  0.1495  0.1729
 4966SOL    HW117530   9.433   6.933   0.651  0.3731  0.4602 -0.1580
 4966SOL    HW217531   9.417   7.051   0.559 -1.8428  0.8339  0.6530
 4967SOL     OW17532   4.318   9.923   5.346  0.0326  0.3744 -0.0080
 4967SOL    HW117533   4.261   9.880   5.409  0.8074 -0.4494  0.1558
 4967SOL    HW217534   4.260   9.981   5.296 -0.4968  1.4336  1.7713
 4968SOL     OW17535   6.261   9.962   8.978  0.0317  0.7407 -0.3493
 4968SOL    HW117536   6.288  10.050   9.005  1.4789  0.4019 -0.6460
 4968SOL    HW217537   6.308   9.903   9.036  1.1461  0.0886 -1.8528
 4969SOL     OW17538   7.400   5.628   6.832  0.2902  0.5306  0.3100
 4969SOL    HW117539   7.489   5.619   6.865  0.3187  0.3330  0.1755
 4969SOL    HW217540   7.410   5.640   6.737  0.0261 -3.2708 -0.3634
 4970SOL     OW17541   3.530   9.693  10.115  0.2632  0.3387  0.1608
 4970SOL    HW117542   3.607   9.636  10.118 -0.4834 -0.7017  0.1697
 4970SOL    HW217543   3.480   9.670  10.194  0.4375  1.7434  0.7045
 4971SOL     OW17544   8.538   0.958   5.739 -0.0986 -0.3542 -0.4268
 4971SOL    HW117545   8.549   1.052   5.754  2.5682 -0.5634 -0.5441
 4971SOL    HW217546   8.527   0.921   5.826 -1.0321  0.0379 -0.3699
 4972SOL     OW17547   6.183   0.577   2.371  0.0212 -0.3239 -0.1392
 4972SOL    HW117548   6.168   0.672   2.378 -2.0393 -0.6651  0.6248
 4972SOL    HW217549   6.268   0.564   2.413  0.3924  1.2058 -0.3598
 4973SOL     OW17550   5.611   7.488   5.311  0.1452  0.3897  0.1018
 4973SOL    HW117551   5.678   7.539   5.357  0.2287  1.2034 -0.8908
 4973SOL    HW217552   5.601   7.409   5.363  3.4299 -0.7678 -0.8042
 4974SOL     OW17553   5.059   6.820   7.008 -0.2697  0.4166  0.1142
 4974SOL    HW117554   5.073   6.728   7.029  1.9328  1.1356  2.3102
 4974SOL    HW217555   4.965   6.829   6.998 -0.7997 -1.6149  2.3686
 4975SOL     OW17556   2.559   3.623   5.722 -0.1887  0.2545 -0.0925
 4975SOL    HW117557   2.632   3.668   5.679 -0.9181  1.4793 -0.0975
 4975SOL    HW217558   2.481   3.658   5.679 -0.7853 -1.4570 -0.4835
 4976SOL     OW17559   5.940   4.623   2.176  0.7222  0.2299 -0.6152
 4976SOL    HW117560   5.942   4.552   2.241  0.5648 -0.2164 -1.0911
 4976SOL    HW217561   5.872   4.683   2.208 -1.2333 -1.2959 -1.6873
 4977SOL     OW17562   1.656   8.504   2.908  0.4182 -1.1454  0.0096
 4977SOL    HW117563   1.721   8.530   2.973  1.1185  2.0631 -1.7291
 4977SOL    HW217564   1.572   8.521   2.951  0.8648  1.0801  0.1537
 4978SOL     OW17565   0.044   3.851   3.572 -0.2620  0.0995  0.9643
 4978SOL    HW117566   0.076   3.934   3.537 -0.2551 -0.4711 -0.4829
 4978SOL    HW217567   0.115   3.818   3.626  1.0274 -0.3705 -0.8990
 4979SOL     OW17568   3.548   9.876   1.120  0.0246  0.3045 -0.2169
 4979SOL    HW117569   3.553   9.971   1.122  1.7207  0.3456 -2.3129
 4979SOL    HW217570   3.523   9.855   1.030  0.7635 -1.2460 -0.0955
 4980SOL     OW17571   3.061  10.142   9.955  0.1560 -0.2490  0.2733
 4980SOL    HW117572   3.020  10.150   9.869 -1.8535 -1.3242  1.0414
 4980SOL    HW217573   3.021  10.212  10.007 -1.2173 -1.6036  1.1644
 4981SOL     OW17574   2.632   4.437   3.923  0.6341 -0.0009 -0.0632
 4981SOL    HW117575   2.718   4.474   3.902  0.8977  0.0647  1.0743
 4981SOL    HW217576   2.646   4.390   4.005 -0.4192  0.0141  0.1343
 4982SOL     OW17577   8.634   7.757   6.743  0.2033 -0.4782  0.3221
 4982SOL    HW117578   8.680   7.674   6.760 -2.4973 -2.1588  0.1131
 4982SOL    HW217579   8.549   7.745   6.785 -0.5144  1.9765 -0.2984
 4983SOL     OW17580   5.997   1.906   9.820 -0.0555 -0.1815  0.6395
 4983SOL    HW117581   6.022   1.912   9.913 -1.2225  3.6766  0.8798
 4983SOL    HW217582   6.079   1.893   9.774  0.6127 -1.6374  2.1486
 4984SOL     OW17583   8.759   8.536   4.127 -0.1592  0.0332  0.5146
 4984SOL    HW117584   8.785   8.610   4.072  1.9546 -0.2626  1.0238
 4984SOL    HW217585   8.815   8.464   4.099 -1.0143 -0.9278  1.1607
 4985SOL     OW17586   4.950  10.205   3.619  0.0979 -0.2235 -0.2743
 4985SOL    HW117587   4.978  10.165   3.537  0.4086  0.9854 -0.7713
 4985SOL    HW217588   4.916  10.291   3.594  1.6360  0.8129  1.0094
 4986SOL     OW17589   2.477   2.108   8.063  0.0857 -0.0116 -0.8185
 4986SOL    HW117590   2.391   2.072   8.084  1.0746 -1.8405  0.4304
 4986SOL    HW217591   2.466   2.150   7.978 -1.7793 -1.2210 -1.2287
 4987SOL     OW17592   9.969   4.732   4.905 -0.1640  0.0428  0.3896
 4987SOL    HW117593  10.024   4.800   4.866 -0.5416  0.4806  0.6167
 4987SOL    HW217594   9.903   4.713   4.837 -1.3166  1.3784  1.0849
 4988SOL     OW17595   8.366   4.543   5.903  0.4163  0.1382 -0.1061
 4988SOL    HW117596   8.327   4.612   5.850  0.8374 -1.0634 -2.1170
 4988SOL    HW217597   8.326   4.462   5.870  0.8304 -0.6905  1.3324
 4989SOL     OW17598   9.641   7.808   0.983 -0.3767 -0.3117 -0.2920
 4989SOL    HW117599   9.736   7.795   0.992 -0.3092  0.9303  1.2024
 4989SOL    HW217600   9.618   7.764   0.901  1.3369 -1.4118 -0.2236
 4990SOL     OW17601   0.636   8.846   2.309  0.5520 -0.3569 -0.4580
 4990SOL    HW117602   0.547   8.872   2.333  0.8412 -0.2190  0.5006
 4990SOL    HW217603   0.673   8.809   2.389  1.1848 -0.8994 -0.9905
 4991SOL     OW17604   6.944   5.866   8.411 -0.1617  0.2792  0.5306
 4991SOL    HW117605   7.033   5.864   8.446 -0.2745 -0.6724  0.8144
 4991SOL    HW217606   6.915   5.956   8.422  1.5748  1.2297 -1.6762
 4992SOL     OW17607   3.637   7.060   0.571 -0.1044  0.3490 -0.0026
 4992SOL    HW117608   3.716   7.018   0.605 -0.5294 -0.9933 -0.5970
 4992SOL    HW217609   3.655   7.071   0.477 -0.0338  1.4452  0.1326
 4993SOL     OW17610   5.477   8.801   8.472  0.5461 -0.1979 -0.0830
 4993SOL    HW117611   5.416   8.855   8.521 -0.0973 -1.8351  0.9783
 4993SOL    HW217612   5.562   8.816   8.515  0.1385 -0.9781  1.0479
 4994SOL     OW17613  10.300   6.472   9.489 -0.0487 -0.0815 -0.3037
 4994SOL    HW117614  10.243   6.483   9.564  1.6481 -0.8049  1.1634
 4994SOL    HW217615  10.274   6.541   9.428 -0.9259  1.0316  1.2893
 4995SOL     OW17616   3.170   0.362   9.826  0.2555 -0.5397  0.4958
 4995SOL    HW117617   3.245   0.383   9.882  0.1360 -0.2042  0.5351
 4995SOL    HW217618   3.203   0.296   9.765  0.6107 -0.3182  0.4444
 4996SOL     OW17619   3.755   7.512   2.196 -0.5633  0.5981  0.2494
 4996SOL    HW117620   3.702   7.456   2.140  3.9036 -1.6640 -2.2816
 4996SOL    HW217621   3.774   7.589   2.142 -1.4741  1.5689  1.2673
 4997SOL     OW17622   2.050   4.340   0.907  0.0585  0.3801  0.1790
 4997SOL    HW117623   2.016   4.306   0.989  0.7444  1.2545  0.8456
 4997SOL    HW217624   1.986   4.406   0.880 -0.5487 -0.4185 -0.3922
 4998SOL     OW17625   0.425   0.154   7.389  0.2147  0.2893  0.2522
 4998SOL    HW117626   0.518   0.158   7.365 -0.0005 -1.5603 -1.1560
 4998SOL    HW217627   0.379   0.181   7.310 -0.4514 -2.2434 -0.3366
 4999SOL     OW17628   9.188   2.101   5.724 -0.1786 -0.2514  0.1800
 4999SOL    HW117629   9.143   2.155   5.659  1.7791  1.8203  0.4193
 4999SOL    HW217630   9.139   2.115   5.805 -1.1270 -0.8077 -0.2877
 5000SOL     OW17631   3.124   2.353   9.402 -0.0715 -0.9147 -0.4334
 5000SOL    HW117632   3.078   2.291   9.458 -0.3803  0.7870  1.3203
 5000SOL    HW217633   3.069   2.361   9.324  0.4818 -3.5073 -1.1864
 5001SOL     OW17634   4.794   3.980   5.987 -0.5422  0.3774 -0.3324
 5001SOL    HW117635   4.849   3.901   5.987 -0.8693  0.1105  1.0889
 5001SOL    HW217636   4.843   4.042   6.041 -0.9970  0.6021 -0.1747
 5002SOL     OW17637   4.938   4.847   9.685  0.0589  0.0006  0.3763
 5002SOL    HW117638   4.994   4.851   9.763 -0.9751  0.1374  1.1274
 5002SOL    HW217639   4.962   4.925   9.635  1.0638 -0.3352  0.3106
 5003SOL     OW17640   3.261   5.360   3.890  0.6154  0.0594 -0.0738
 5003SOL    HW117641   3.263   5.401   3.803  0.1071  0.3037  0.0316
 5003SOL    HW217642   3.312   5.279   3.879 -0.5333 -0.5653 -0.9316
 5004SOL     OW17643  10.105   5.058   1.621  0.0618  0.2594  0.2192
 5004SOL    HW117644  10.086   5.139   1.668  0.1710  0.4446 -0.0534
 5004SOL    HW217645  10.035   4.998   1.648  0.4537  0.1668  1.0703
 5005SOL     OW17646   0.103   1.467   1.568  0.1270  0.0059  0.6980
 5005SOL    HW117647   0.096   1.499   1.658 -0.3836 -0.4017  0.8094
 5005SOL    HW217648   0.145   1.382   1.576  0.8736  0.3496  0.4653
 5006SOL     OW17649   9.750   8.297   9.647 -0.1174  0.5063 -0.2871
 5006SOL    HW117650   9.804   8.361   9.601  0.4475  1.3639  1.4575
 5006SOL    HW217651   9.695   8.350   9.705 -1.3990 -0.4743 -0.5470
 5007SOL     OW17652   4.608   2.600   6.087 -0.3688 -0.0496  0.4580
 5007SOL    HW117653   4.668   2.649   6.143  0.3333 -0.8204  0.3956
 5007SOL    HW217654   4.613   2.644   6.002 -0.6088  0.4516  0.6973
 5008SOL     OW17655   0.542   6.492   0.754 -0.2284 -0.2130  0.0383
 5008SOL    HW117656   0.568   6.580   0.783 -0.6709 -0.0266 -0.1076
 5008SOL    HW217657   0.609   6.434   0.789 -0.3894  0.0842  0.8668
 5009SOL     OW17658   6.203   4.749   2.299 -0.1714 -0.4814 -0.4124
 5009SOL    HW117659   6.179   4.822   2.357 -0.9323 -1.1122  0.0899
 5009SOL    HW217660   6.120   4.708   2.276  0.1329 -0.3591 -1.8330
 5010SOL     OW17661   1.127   7.574   2.682 -0.2612 -0.3460 -0.7250
 5010SOL    HW117662   1.186   7.642   2.714  1.5449 -1.6550 -1.0986
 5010SOL    HW217663   1.147   7.497   2.736 -3.2038 -0.3368  0.6233
 5011SOL     OW17664   4.614   3.400   6.487 -0.1954 -0.6164 -0.3697
 5011SOL    HW117665   4.531   3.444   6.471  0.2177  0.9039  1.2706
 5011SOL    HW217666   4.681   3.460   6.453  0.2819 -1.3194 -0.6972
 5012SOL     OW17667   2.018   2.980   3.931  0.3929  0.0295  0.2800
 5012SOL    HW117668   2.037   3.074   3.932 -0.5570  0.3215 -2.1576
 5012SOL    HW217669   2.099   2.939   3.903  0.7689  0.1149  1.2138
 5013SOL     OW17670   6.404   1.068   1.425  0.2721 -0.8501 -0.8136
 5013SOL    HW117671   6.355   1.110   1.354 -0.9781 -0.7096  0.0935
 5013SOL    HW217672   6.489   1.112   1.424 -0.8520  1.5018 -0.1367
 5014SOL     OW17673   2.763   3.529   2.930  0.5762  0.2863 -0.5473
 5014SOL    HW117674   2.722   3.581   2.860  0.9893  1.5229  0.1069
 5014SOL    HW217675   2.745   3.578   3.010 -0.1901 -1.2892  0.2911
 5015SOL     OW17676   1.588   2.281   5.984 -0.1591  0.2004 -0.1125
 5015SOL    HW117677   1.543   2.307   6.064 -0.8217 -1.2348  0.0143
 5015SOL    HW217678   1.525   2.297   5.914 -0.8083 -1.5084  0.0307
 5016SOL     OW17679   5.475   0.395   3.189  0.5930 -0.6513  0.8184
 5016SOL    HW117680   5.561   0.438   3.189  1.4618 -2.2183  2.5599
 5016SOL    HW217681   5.426   0.439   3.119  2.4874  0.9037  0.3665
 5017SOL     OW17682   8.676   7.421   3.455  0.2813 -0.1405 -0.4076
 5017SOL    HW117683   8.761   7.378   3.455 -0.1460 -1.0003 -0.8389
 5017SOL    HW217684   8.629   7.381   3.528 -0.1792 -0.5405 -0.9186
 5018SOL     OW17685   0.274   6.859   1.822 -0.2655  0.0829  0.3128
 5018SOL    HW117686   0.329   6.786   1.794 -0.2605 -1.2825  3.4791
 5018SOL    HW217687   0.335   6.922   1.860 -0.4484  1.0005 -0.8552
 5019SOL     OW17688   8.606   1.947   9.837  0.0696 -0.4210 -0.2560
 5019SOL    HW117689   8.685   2.001   9.829  1.5151 -2.1951  1.0374
 5019SOL    HW217690   8.561   1.982   9.914  0.4538 -0.3881 -0.0403
 5020SOL     OW17691   7.223   3.756   4.764 -0.3244  0.6283  0.5135
 5020SOL    HW117692   7.293   3.820   4.778 -0.5102  0.5907  1.7541
 5020SOL    HW217693   7.265   3.671   4.778 -0.0823  0.4388 -1.1148
 5021SOL     OW17694   0.478   7.128   9.563  0.5838 -0.4515 -0.5881
 5021SOL    HW117695   0.472   7.205   9.507  0.7451 -0.9619 -1.3161
 5021SOL    HW217696   0.412   7.068   9.529  0.1762 -0.4913  0.2276
 5022SOL     OW17697   8.852   6.619   3.415  0.2863 -0.2669  0.2586
 5022SOL    HW117698   8.757   6.629   3.421  0.4877  2.0659  0.5428
 5022SOL    HW217699   8.883   6.634   3.505  0.9477 -0.9444  0.1520
 5023SOL     OW17700   7.060   8.288   7.021  0.2145  0.2408  0.1116
 5023SOL    HW117701   7.135   8.243   6.982  0.7658  0.6336  0.6812
 5023SOL    HW217702   7.097   8.369   7.056 -0.6932  0.9943 -0.6035
 5024SOL     OW17703   2.071   5.016   8.797 -0.1842 -0.6259  0.1946
 5024SOL    HW117704   2.020   5.046   8.872 -2.7490  1.4425 -2.1415
 5024SOL    HW217705   2.139   5.082   8.785 -0.0678 -0.7047  0.4205
 5025SOL     OW17706   7.711   2.104   3.471  0.2258 -0.2747  0.6756
 5025SOL    HW117707   7.755   2.114   3.387  0.3243 -3.3116  0.2428
 5025SOL    HW217708   7.630   2.155   3.462  0.2117 -0.5658 -1.2876
 5026SOL     OW17709   3.177   3.568   7.422  0.0497 -0.2616  0.4391
 5026SOL    HW117710   3.146   3.567   7.513  0.2241 -0.8601  0.5020
 5026SOL    HW217711   3.111   3.619   7.375 -0.5257 -0.7062  0.7414
 5027SOL     OW17712   8.999   0.448   7.441  0.0155 -0.2293  0.1402
 5027SOL    HW117713   8.947   0.374   7.473 -0.5017  0.4870  1.0056
 5027SOL    HW217714   9.087   0.433   7.477 -0.2590 -0.0700  0.8899
 5028SOL     OW17715   9.900   2.038   3.507  0.0154 -0.6692 -0.2317
 5028SOL    HW117716   9.935   2.127   3.515  0.3833 -0.9887  3.1421
 5028SOL    HW217717   9.976   1.984   3.485  0.0053 -0.3232 -1.1511
 5029SOL     OW17718   0.567   9.461   2.219  0.2949 -0.4185 -0.2186
 5029SOL    HW117719   0.627   9.448   2.146  1.3195 -1.7450  0.8055
 5029SOL    HW217720   0.566   9.377   2.264 -1.6938 -0.1742  0.3081
 5030SOL     OW17721   9.688   7.022   9.856 -0.8906  0.3949 -0.7104
 5030SOL    HW117722   9.674   7.087   9.787 -0.9846  1.0209 -0.1092
 5030SOL    HW217723   9.675   7.070   9.937  1.1681  0.1616 -0.1723
 5031SOL     OW17724   8.308   9.761   0.221 -0.3961 -0.3328  0.0294
 5031SOL    HW117725   8.370   9.812   0.273  0.4080 -0.0791 -1.1384
 5031SOL    HW217726   8.327   9.670   0.244 -0.7383 -0.1913  0.9133
 5032SOL     OW17727   0.816   4.313   6.724 -0.1446  0.0966  0.5255
 5032SOL    HW117728   0.821   4.408   6.725  1.1750  0.0413  1.2529
 5032SOL    HW217729   0.723   4.294   6.734 -0.2595  1.2994  2.1921
 5033SOL     OW17730   7.159   9.788   3.860 -0.3722  0.7154 -0.0935
 5033SOL    HW117731   7.151   9.695   3.838  0.8913  0.7163 -0.6680
 5033SOL    HW217732   7.154   9.791   3.955 -0.0357  0.0069 -0.0478
 5034SOL     OW17733   3.281   3.309   7.037  0.3664 -0.0141 -0.4673
 5034SOL    HW117734   3.246   3.243   6.977 -0.3775 -1.2764  1.2895
 5034SOL    HW217735   3.371   3.283   7.052 -0.4504 -1.8507  1.7245
 5035SOL     OW17736   9.163   7.882   5.787  0.1310  0.0459 -0.4649
 5035SOL    HW117737   9.083   7.894   5.838 -0.0648  0.5174 -0.8810
 5035SOL    HW217738   9.149   7.933   5.707  2.2562  3.1617  0.9561
 5036SOL     OW17739   5.919   7.586   2.394 -0.6043  0.3014 -0.1312
 5036SOL    HW117740   5.838   7.635   2.408 -0.4087  1.3431 -2.3356
 5036SOL    HW217741   5.908   7.507   2.448 -4.0268 -0.6606 -1.8857
 5037SOL     OW17742   5.884   0.695   1.713  0.4952  0.3935 -0.1131
 5037SOL    HW117743   5.915   0.750   1.785 -0.1394  1.0086 -0.3072
 5037SOL    HW217744   5.962   0.681   1.658  0.6338  1.1880 -0.1229
 5038SOL     OW17745   3.650   8.632   8.507  0.6573 -0.1704 -0.2708
 5038SOL    HW117746   3.640   8.679   8.424 -0.2987  0.8513  0.3999
 5038SOL    HW217747   3.726   8.576   8.493  0.9926  0.5591 -1.5755
 5039SOL     OW17748   0.701   9.466   1.201 -0.0086  0.3164  0.0101
 5039SOL    HW117749   0.733   9.555   1.218 -0.7448  0.3470  1.3058
 5039SOL    HW217750   0.663   9.471   1.114  0.6083  1.0817 -0.2328
 5040SOL     OW17751   4.935   7.530   8.883 -0.1998  0.5559  0.0996
 5040SOL    HW117752   4.853   7.567   8.853 -0.3738  0.4288  0.4107
 5040SOL    HW217753   4.918   7.505   8.974  0.0939  0.2695  0.0786
 5041SOL     OW17754   5.392   1.380  10.353  0.0329  0.5772  0.3181
 5041SOL    HW117755   5.450   1.308  10.330 -2.0629 -2.1148  2.7445
 5041SOL    HW217756   5.445   1.436  10.409  1.0363 -0.3726  0.3471
 5042SOL     OW17757   7.746   3.501   2.023 -0.0132  0.1080 -0.3815
 5042SOL    HW117758   7.707   3.582   2.057 -0.2766  0.1805 -0.8529
 5042SOL    HW217759   7.818   3.531   1.968  1.1705 -0.0409  1.0228
 5043SOL     OW17760   6.419   7.775   3.313  0.1692  0.3675 -1.0171
 5043SOL    HW117761   6.510   7.801   3.323  0.8937 -1.7848 -1.5814
 5043SOL    HW217762   6.420   7.680   3.312 -2.1397  0.2639 -0.6864
 5044SOL     OW17763   6.278   3.611   1.644  0.1090 -0.2691  0.3402
 5044SOL    HW117764   6.191   3.615   1.603 -0.0592  1.0703  0.7649
 5044SOL    HW217765   6.281   3.689   1.699  1.3920 -0.5869  0.7338
 5045SOL     OW17766   0.870   6.137   3.647  0.0789  0.4430 -0.2442
 5045SOL    HW117767   0.784   6.167   3.615  0.0997 -1.5894 -2.4947
 5045SOL    HW217768   0.849   6.073   3.715 -0.4152 -1.8526 -2.4076
 5046SOL     OW17769   8.555   8.350   8.382 -0.1739 -0.3481 -0.4330
 5046SOL    HW117770   8.604   8.282   8.429  0.4351  0.1306 -0.3636
 5046SOL    HW217771   8.478   8.305   8.349  0.4985 -1.2100 -0.8627
 5047SOL     OW17772   1.323   4.496   2.372  0.4036  0.3528  0.7633
 5047SOL    HW117773   1.338   4.411   2.413 -1.1002 -1.6350 -2.4166
 5047SOL    HW217774   1.250   4.534   2.421 -1.5814 -2.0941 -0.0618
 5048SOL     OW17775   4.994   2.284   6.283 -0.1098  0.4505  0.2390
 5048SOL    HW117776   4.967   2.360   6.231  2.9561  2.4789  1.2831
 5048SOL    HW217777   5.037   2.226   6.220 -3.3570 -1.1226 -0.7629
 5049SOL     OW17778   3.183   6.492   1.994  0.1998 -0.0468  0.2520
 5049SOL    HW117779   3.146   6.465   1.909  1.2984 -2.1259  0.3872
 5049SOL    HW217780   3.156   6.424   2.055 -0.0623  1.1162  1.4726
 5050SOL     OW17781   9.035   9.346   8.410 -0.0814  0.4304  0.4515
 5050SOL    HW117782   8.953   9.394   8.402 -0.6509 -0.4846  0.6383
 5050SOL    HW217783   9.055   9.316   8.321 -0.9657 -0.9555  0.6940
 5051SOL     OW17784   3.890   2.140   0.826 -0.1799  0.8143  0.1920
 5051SOL    HW117785   3.920   2.160   0.915  1.8681  0.5535 -0.3982
 5051SOL    HW217786   3.947   2.070   0.796 -0.6168  1.1137 -1.4604
 5052SOL     OW17787   9.151   3.225   1.564 -0.5687  0.2669 -0.3501
 5052SOL    HW117788   9.172   3.311   1.526 -0.0572  0.5033  0.4489
 5052SOL    HW217789   9.117   3.244   1.651 -0.3203 -0.3411 -0.1124
 5053SOL     OW17790   1.585   5.754   9.070 -0.2023 -0.2166  0.1922
 5053SOL    HW117791   1.631   5.819   9.122  0.0497 -0.7806  0.6825
 5053SOL    HW217792   1.654   5.704   9.027 -0.4165  0.9268 -1.5596
 5054SOL     OW17793   7.475   5.419   9.438 -0.5067 -0.4624 -0.0446
 5054SOL    HW117794   7.553   5.397   9.490 -1.9232  1.0270  2.9855
 5054SOL    HW217795   7.454   5.338   9.392  1.6185 -1.5325  0.7358
 5055SOL     OW17796   6.265   9.003   1.106  0.1504 -0.7645  0.2022
 5055SOL    HW117797   6.255   8.919   1.061  1.2176 -0.8736  0.1528
 5055SOL    HW217798   6.177   9.042   1.103  0.5527  0.3720 -4.1914
 5056SOL     OW17799   6.346   3.504   2.296  0.2449  0.4266 -0.4025
 5056SOL    HW117800   6.400   3.568   2.342 -2.3465  0.4598  2.9750
 5056SOL    HW217801   6.350   3.531   2.204  1.8707  3.4192  0.4200
 5057SOL     OW17802   6.840   8.334   6.768 -0.1244 -0.9567 -0.3979
 5057SOL    HW117803   6.753   8.327   6.806  0.2691  0.9643  0.9660
 5057SOL    HW217804   6.829   8.390   6.692 -0.3107 -1.9660 -1.1353
 5058SOL     OW17805   6.789   8.614   9.035  0.0692  0.0784  0.3393
 5058SOL    HW117806   6.874   8.575   9.054 -0.3966 -0.9805  0.3285
 5058SOL    HW217807   6.800   8.657   8.951  0.4622 -0.4781  0.1014
 5059SOL     OW17808   4.252   1.741   0.993 -0.4764  0.0719  0.5363
 5059SOL    HW117809   4.305   1.744   1.073 -0.9933 -0.4792  0.9091
 5059SOL    HW217810   4.272   1.823   0.948  1.4104 -0.5346  0.1922
 5060SOL     OW17811   1.310   1.247  10.128  0.4065 -0.3587 -0.9314
 5060SOL    HW117812   1.397   1.273  10.158 -0.6969 -0.2641  2.7459
 5060SOL    HW217813   1.323   1.160  10.089  2.0323 -0.8829  0.6408
 5061SOL     OW17814   7.244   4.154   1.547  0.0555 -0.0312  0.2739
 5061SOL    HW117815   7.266   4.247   1.559  0.9696 -0.1736 -0.1969
 5061SOL    HW217816   7.160   4.155   1.502  0.8438  0.6043 -1.2526
 5062SOL     OW17817   5.213   9.046   8.090  0.1723 -0.4806  0.4303
 5062SOL    HW117818   5.213   9.079   8.180 -1.2841 -1.4942  0.8441
 5062SOL    HW217819   5.216   8.951   8.100  0.6752 -0.5938 -0.6302
 5063SOL     OW17820   7.665   5.555   6.066 -0.2337  0.6092 -0.2305
 5063SOL    HW117821   7.742   5.571   6.012  0.7900 -1.0158  0.6438
 5063SOL    HW217822   7.668   5.623   6.134  0.0921  0.9235 -0.5589
 5064SOL     OW17823   1.705   7.331   6.016 -0.3376 -0.1405  0.1893
 5064SOL    HW117824   1.799   7.312   6.027 -0.1427  0.4338 -0.3832
 5064SOL    HW217825   1.665   7.305   6.099  0.3973 -0.0016  0.5978
 5065SOL     OW17826   3.849   3.829   8.058 -0.1779  0.3612 -0.1700
 5065SOL    HW117827   3.802   3.862   7.981 -0.7922 -1.8520 -0.8034
 5065SOL    HW217828   3.934   3.801   8.024 -0.9209 -1.8314 -0.3698
 5066SOL     OW17829   0.654   3.097   2.831  0.0204 -0.1652 -0.5506
 5066SOL    HW117830   0.644   3.115   2.737 -1.3466  0.2023 -0.3484
 5066SOL    HW217831   0.638   3.182   2.873 -0.5514 -0.5754  0.0772
 5067SOL     OW17832   6.907   4.899   9.560  0.0977 -0.7832 -0.2362
 5067SOL    HW117833   6.928   4.952   9.482 -0.5497 -0.2864 -0.0787
 5067SOL    HW217834   6.821   4.861   9.540 -1.4383  1.5996  1.3552
 5068SOL     OW17835   0.405   2.036   7.332  0.9759  0.0718  0.2286
 5068SOL    HW117836   0.339   2.010   7.268  1.8454  0.4783 -0.8557
 5068SOL    HW217837   0.489   2.011   7.292  1.4818 -1.2613  1.9508
 5069SOL     OW17838   3.702   9.305   3.133  0.5133  0.1056 -0.0068
 5069SOL    HW117839   3.765   9.322   3.203  1.1355  0.1910 -0.5769
 5069SOL    HW217840   3.697   9.387   3.084 -1.6701  0.8278  1.2707
 5070SOL     OW17841   0.223   5.269   7.682  0.1741  0.7052  0.2649
 5070SOL    HW117842   0.236   5.182   7.719  1.5058  0.0216 -1.6302
 5070SOL    HW217843   0.270   5.328   7.740 -0.3049  0.1174  1.2769
 5071SOL     OW17844  10.189   5.684   1.004  0.1101 -0.0485 -1.0231
 5071SOL    HW117845  10.140   5.627   1.063  0.1578  0.2918 -0.6558
 5071SOL    HW217846  10.260   5.629   0.970  1.6580  0.4636  1.2138
 5072SOL     OW17847   1.601   1.347   9.225 -0.1963 -0.3457  0.4298
 5072SOL    HW117848   1.598   1.321   9.133 -1.3634  0.3878  0.2290
 5072SOL    HW217849   1.646   1.276   9.269  2.8540  0.4855 -1.0724
 5073SOL     OW17850   1.970   9.040   7.133 -1.0747  0.1175  0.4459
 5073SOL    HW117851   2.034   9.093   7.087 -0.9244 -0.5072 -0.0829
 5073SOL    HW217852   1.911   9.103   7.175 -1.7242  0.7248 -1.2960
 5074SOL     OW17853   0.038   3.468   2.844  0.2121  0.0417  0.0280
 5074SOL    HW117854   0.092   3.394   2.815 -0.2406 -0.5062  0.5740
 5074SOL    HW217855   0.100   3.528   2.885  0.5959  0.0211 -0.5057
 5075SOL     OW17856   0.838  10.171   1.531  0.0878  0.0269  0.0176
 5075SOL    HW117857   0.786  10.186   1.610 -0.8032 -0.3916 -0.4722
 5075SOL    HW217858   0.776  10.137   1.467  0.9206 -0.2427 -0.6754
 5076SOL     OW17859   1.086   9.263   8.186 -0.1014  0.2203  0.4210
 5076SOL    HW117860   1.030   9.233   8.258 -0.6610 -1.2551 -0.5543
 5076SOL    HW217861   1.056   9.351   8.167 -1.0976 -0.0004  0.8981
 5077SOL     OW17862   0.347   3.045   2.906  0.2925  0.1515 -0.1755
 5077SOL    HW117863   0.284   2.989   2.861  0.6299 -0.3979  0.0342
 5077SOL    HW217864   0.430   3.029   2.862 -0.0390  2.3631 -1.7995
 5078SOL     OW17865   5.357   4.703  10.034 -0.2355 -0.3628 -0.3888
 5078SOL    HW117866   5.421   4.755   9.985 -0.6730  1.6791  1.0746
 5078SOL    HW217867   5.311   4.652   9.967 -0.5664  2.0234 -2.1024
 5079SOL     OW17868   2.465   6.506   7.685  0.2151 -0.0080  0.0086
 5079SOL    HW117869   2.442   6.413   7.684  0.8300 -0.1861  1.1947
 5079SOL    HW217870   2.502   6.521   7.772  0.5685  1.2410 -0.3373
 5080SOL     OW17871   0.908   6.159   6.119 -0.2431  0.1550  0.0457
 5080SOL    HW117872   1.003   6.152   6.111 -0.0667 -1.0603  2.3342
 5080SOL    HW217873   0.893   6.249   6.150  0.0243  0.7391 -1.4435
 5081SOL     OW17874   2.411   0.715   9.130  0.0772  0.4476 -0.2147
 5081SOL    HW117875   2.316   0.730   9.132  0.1538  0.9725  1.1127
 5081SOL    HW217876   2.446   0.785   9.075 -0.3983 -0.4952 -1.7606
 5082SOL     OW17877   5.383   4.427   4.096 -0.1204 -0.5010  1.0992
 5082SOL    HW117878   5.477   4.443   4.106 -0.2667  0.5268  0.9766
 5082SOL    HW217879   5.341   4.499   4.144 -0.8417  1.4159 -2.0682
 5083SOL     OW17880   5.890   8.422   2.727  0.1964 -0.4943  0.0199
 5083SOL    HW117881   5.857   8.351   2.672  0.4250  1.2535 -2.5199
 5083SOL    HW217882   5.831   8.424   2.802 -1.9336 -1.1203 -1.5605
 5084SOL     OW17883   9.085   6.491   2.292 -0.0246  0.2995 -0.3800
 5084SOL    HW117884   9.130   6.499   2.376  0.8150  0.3442 -0.8279
 5084SOL    HW217885   9.017   6.426   2.308  0.2049  0.2195  0.3050
 5085SOL     OW17886   2.316   3.693   1.783  0.2565  0.2787 -0.1220
 5085SOL    HW117887   2.222   3.712   1.775 -0.1058 -0.7930  1.1973
 5085SOL    HW217888   2.319   3.600   1.806  1.7668 -0.2982 -2.3268
 5086SOL     OW17889   0.401   2.999   6.399  0.5459 -0.6258  0.0782
 5086SOL    HW117890   0.381   3.041   6.315 -0.3007  0.9560  1.0180
 5086SOL    HW217891   0.496   3.005   6.407  0.6518 -0.9653 -0.8512
 5087SOL     OW17892   9.672   3.244   3.959 -0.2044  0.3756 -0.3164
 5087SOL    HW117893   9.736   3.209   4.022 -0.6926 -0.3077 -0.1886
 5087SOL    HW217894   9.623   3.168   3.930 -1.9198  1.0536  0.6591
 5088SOL     OW17895   1.316  10.082   9.290  0.0097  0.3839  0.4099
 5088SOL    HW117896   1.328  10.173   9.315 -0.1856  0.8359 -1.0133
 5088SOL    HW217897   1.405  10.046   9.285  0.0239  0.1060  2.2397
 5089SOL     OW17898   5.517   5.533   6.584 -0.1533  0.1555  0.1983
 5089SOL    HW117899   5.479   5.553   6.498 -3.3000 -0.5887  1.2918
 5089SOL    HW217900   5.575   5.606   6.602  0.0010  0.7063 -2.2289
 5090SOL     OW17901   7.416   0.246   5.661  0.0360 -0.0797  0.6238
 5090SOL    HW117902   7.494   0.210   5.618  0.5541 -0.3798  1.7838
 5090SOL    HW217903   7.450   0.310   5.724 -0.7234  0.4856  0.4759
 5091SOL     OW17904   7.030   8.678   0.153 -0.1422  0.4432  0.8240
 5091SOL    HW117905   7.119   8.649   0.132 -1.1194 -1.8654 -0.4935
 5091SOL    HW217906   7.010   8.635   0.237  0.5188  2.3518  2.0342
 5092SOL     OW17907   4.944   3.962   0.072  0.4469  0.2236  0.5006
 5092SOL    HW117908   5.039   3.960   0.086  0.5547  0.0604 -0.2589
 5092SOL    HW217909   4.913   4.027   0.135  1.2972  1.7634 -0.5936
 5093SOL     OW17910   1.469   5.948   9.968  0.5955 -0.1726  0.1238
 5093SOL    HW117911   1.410   5.944  10.043 -1.7422 -2.4080 -1.6752
 5093SOL    HW217912   1.419   5.911   9.896  2.5546  2.2861 -2.7358
 5094SOL     OW17913   7.047  10.185   8.566  0.2874 -0.4532 -0.0972
 5094SOL    HW117914   7.039  10.190   8.661 -0.1285  1.0146 -0.1859
 5094SOL    HW217915   7.128  10.232   8.546 -0.0583 -0.0341 -0.5259
 5095SOL     OW17916  10.269   6.522   3.022 -0.6466  0.3509 -0.4054
 5095SOL    HW117917  10.248   6.536   2.929 -1.6614  0.4798 -0.1717
 5095SOL    HW217918  10.209   6.453   3.050 -0.9175  0.8787  0.3474
 5096SOL     OW17919   1.246   2.679   6.385  0.2571 -0.0633  0.3337
 5096SOL    HW117920   1.227   2.751   6.445  1.8840 -0.8007  1.8068
 5096SOL    HW217921   1.306   2.716   6.321  0.1785  0.1793  0.3962
 5097SOL     OW17922   5.873   7.285   2.827 -0.1318 -0.4924 -0.4278
 5097SOL    HW117923   5.895   7.250   2.913 -1.5197  0.6093  0.4122
 5097SOL    HW217924   5.818   7.218   2.786 -2.7859  0.5700  1.1720
 5098SOL     OW17925   1.038   7.313   7.689 -0.2042  0.4420 -0.0392
 5098SOL    HW117926   1.085   7.230   7.675 -1.1161  0.0599 -0.9420
 5098SOL    HW217927   0.978   7.319   7.615 -1.8445  0.7427  1.2712
 5099SOL     OW17928   1.877   3.323   7.456  0.6436  0.2111 -0.0863
 5099SOL    HW117929   1.891   3.390   7.389  0.2524  0.7318  0.3453
 5099SOL    HW217930   1.965   3.293   7.479  0.8730  1.1640  0.3109
 5100SOL     OW17931   9.306   2.438   8.999 -0.3775 -0.3311  0.1170
 5100SOL    HW117932   9.299   2.354   8.954 -2.6852  0.0746 -0.3801
 5100SOL    HW217933   9.373   2.485   8.949  1.7687 -2.1845  1.0488
 5101SOL     OW17934   7.902   4.910   6.255  0.3377  0.4699 -0.0495
 5101SOL    HW117935   7.867   4.821   6.264  0.3348  0.6394  1.9558
 5101SOL    HW217936   7.992   4.903   6.287  0.7436  0.9673 -1.0223
 5102SOL     OW17937   5.296   7.032   4.467  0.9535  0.7360  0.3281
 5102SOL    HW117938   5.261   7.019   4.555  2.2400  2.5735  1.1816
 5102SOL    HW217939   5.391   7.038   4.480  1.2196  0.4289 -1.2703
 5103SOL     OW17940   3.431   8.704   1.171  0.1609 -0.0691 -0.4007
 5103SOL    HW117941   3.474   8.726   1.254  0.8057 -2.0578 -0.1725
 5103SOL    HW217942   3.361   8.645   1.195 -1.1971  1.2069 -1.0584
 5104SOL     OW17943   1.837  10.070   1.395 -0.7333 -0.7581  0.5480
 5104SOL    HW117944   1.913  10.075   1.454  0.7988  1.6075 -1.4383
 5104SOL    HW217945   1.764  10.104   1.448  0.8551  2.5547  0.8711
 5105SOL     OW17946   2.695   1.308   7.456  0.4186 -0.3656  0.0325
 5105SOL    HW117947   2.765   1.335   7.397  2.1162  1.9576  2.8033
 5105SOL    HW217948   2.643   1.387   7.470 -0.7632 -1.2031  0.5700
 5106SOL     OW17949   5.623   4.370   5.887 -0.2791  0.5002 -0.1643
 5106SOL    HW117950   5.604   4.388   5.978 -0.8543 -2.9033  0.5431
 5106SOL    HW217951   5.684   4.296   5.890 -0.5942  0.0546 -2.5165
 5107SOL     OW17952   8.955   6.970   6.927 -0.1062  0.0306  0.2511
 5107SOL    HW117953   8.882   6.931   6.879  0.6953 -0.3878 -0.6599
 5107SOL    HW217954   8.917   6.997   7.011 -1.0939 -1.0391  0.1726
 5108SOL     OW17955   2.798   2.251   7.801 -0.2057  0.1660 -0.0166
 5108SOL    HW117956   2.790   2.181   7.866  0.1247  0.1977  0.0583
 5108SOL    HW217957   2.850   2.318   7.845 -1.8446  1.1701  0.5233
 5109SOL     OW17958   1.808   1.057   8.949  0.3229 -0.0070  0.4628
 5109SOL    HW117959   1.882   1.074   8.890  0.6106 -0.7493  0.5888
 5109SOL    HW217960   1.744   1.124   8.929  0.6818  0.1211 -0.2594
 5110SOL     OW17961   0.756   0.372   1.211  0.1834 -0.1098  0.3450
 5110SOL    HW117962   0.663   0.374   1.235 -0.1634  0.3953 -0.9435
 5110SOL    HW217963   0.779   0.280   1.211 -0.7306 -0.3620 -0.7470
 5111SOL     OW17964   8.503   0.138   0.519  0.2826 -0.1479  0.7161
 5111SOL    HW117965   8.462   0.065   0.566 -2.7724 -0.1985 -1.6889
 5111SOL    HW217966   8.523   0.202   0.588 -3.0937 -0.5699  2.3278
 5112SOL     OW17967   7.270   3.161   6.647  0.1586  0.3635  0.0415
 5112SOL    HW117968   7.272   3.143   6.553 -3.2236 -1.8521  0.2204
 5112SOL    HW217969   7.316   3.088   6.687 -0.6067 -0.0493  0.1838
 5113SOL     OW17970   4.878   8.341   6.683 -0.1777  0.4207 -0.2375
 5113SOL    HW117971   4.919   8.314   6.766  1.8931  2.6728 -0.3834
 5113SOL    HW217972   4.828   8.420   6.706  0.2466  0.9485 -1.0580
 5114SOL     OW17973   9.700   7.982   1.352  0.5017  0.1458 -0.6577
 5114SOL    HW117974   9.670   7.896   1.320 -2.0866  0.4696  0.6798
 5114SOL    HW217975   9.677   7.982   1.445  0.7513  2.1780 -0.5640
 5115SOL     OW17976   0.775   8.429   6.217  0.4167  0.6291 -0.7409
 5115SOL    HW117977   0.790   8.524   6.220  1.8862  0.4123  0.4131
 5115SOL    HW217978   0.680   8.420   6.219  0.2489  2.0721  1.1329
 5116SOL     OW17979   9.186   6.801   4.853 -0.4033 -0.0247 -0.1671
 5116SOL    HW117980   9.276   6.831   4.857  0.2597 -1.8992  0.0241
 5116SOL    HW217981   9.166   6.772   4.942 -0.8243 -0.5782 -0.4338
 5117SOL     OW17982   4.791   2.593  10.312 -0.5560  0.1000  0.0948
 5117SOL    HW117983   4.851   2.524  10.339 -0.6344 -0.0928 -0.2222
 5117SOL    HW217984   4.717   2.585  10.374 -0.3475  0.2109  0.3588
 5118SOL     OW17985   2.739   3.017   6.454 -0.5768 -0.0222  0.8334
 5118SOL    HW117986   2.801   3.089   6.448 -0.5702 -0.0805  0.1002
 5118SOL    HW217987   2.698   3.014   6.368  0.5694 -1.9223  0.3080
 5119SOL     OW17988   4.988  10.062   3.392 -0.1076 -0.0831  0.1005
 5119SOL    HW117989   4.925  10.094   3.327  1.0388  1.0128 -0.5227
 5119SOL    HW217990   5.055  10.017   3.340 -0.5339 -1.5230  0.7792
 5120SOL     OW17991   5.929   7.255   6.319 -0.2129 -0.1405  0.2942
 5120SOL    HW117992   5.882   7.328   6.359 -0.1621 -0.0092  0.1139
 5120SOL    HW217993   5.939   7.279   6.227 -1.8488 -1.2121 -0.2096
 5121SOL     OW17994   7.013   4.066   0.465 -0.7234 -0.1645 -0.0284
 5121SOL    HW117995   7.063   4.129   0.519  0.0266 -0.5769 -0.2235
 5121SOL    HW217996   6.972   4.008   0.528 -0.5317 -0.1319  0.1291
 5122SOL     OW17997   6.826   0.995   2.410 -0.2316 -0.4212 -0.0680
 5122SOL    HW117998   6.827   1.020   2.502 -0.9298 -0.5121 -0.0306
 5122SOL    HW217999   6.880   1.061   2.366  0.5198 -0.6579  0.4634
 5123SOL     OW18000   4.325   8.819   7.499  0.1249  0.1717  0.6447
 5123SOL    HW118001   4.284   8.872   7.567  0.0134 -1.3361  1.8147
 5123SOL    HW218002   4.322   8.730   7.533  2.0760 -0.3431 -0.3684
 5124SOL     OW18003   6.874   1.770   2.184 -0.2290  0.0388  0.0387
 5124SOL    HW118004   6.847   1.844   2.239  0.4310 -0.0542  0.5054
 5124SOL    HW218005   6.792   1.732   2.152 -0.5833  0.7699  0.0676
 5125SOL     OW18006   8.103   6.072   4.954 -0.0676 -0.1298  0.6607
 5125SOL    HW118007   8.176   6.033   4.905  1.3906  3.9537 -0.8658
 5125SOL    HW218008   8.121   6.049   5.045  1.7384 -1.3483  0.0583
 5126SOL     OW18009   3.740   1.227   8.495  0.1582  0.7203 -0.3741
 5126SOL    HW118010   3.831   1.212   8.470  1.0665  1.8719  1.8875
 5126SOL    HW218011   3.736   1.321   8.512 -1.0951  0.4883  0.7608
 5127SOL     OW18012   6.158   9.910   2.178 -0.8214  0.6328 -0.1741
 5127SOL    HW118013   6.222   9.965   2.224 -1.9368  0.9103  1.1146
 5127SOL    HW218014   6.181   9.821   2.202  0.9449  0.4439 -2.2066
 5128SOL     OW18015   0.141   2.872   2.028  0.5539 -0.5180  0.2058
 5128SOL    HW118016   0.212   2.924   1.991  0.6878  0.2286  1.4402
 5128SOL    HW218017   0.074   2.937   2.052  0.1912 -1.0342  0.6249
 5129SOL     OW18018   6.307   5.148   4.367  0.1753  0.0895  0.0646
 5129SOL    HW118019   6.304   5.243   4.353 -0.0581  0.1324  0.3868
 5129SOL    HW218020   6.391   5.121   4.331 -0.1068  0.2947 -0.7581
 5130SOL     OW18021   0.006   4.578   1.764 -0.1997  0.4794 -0.3712
 5130SOL    HW118022  -0.073   4.589   1.712 -0.3058  1.9678  0.0393
 5130SOL    HW218023   0.051   4.663   1.757  1.0120 -0.1069 -0.0367
 5131SOL     OW18024  10.303   8.000   8.390 -0.4617  0.1658  0.4186
 5131SOL    HW118025  10.364   7.987   8.462  0.6587 -1.0746 -0.6824
 5131SOL    HW218026  10.319   8.089   8.360  0.4877  0.0155  0.4593
 5132SOL     OW18027   2.551   5.954   0.523 -0.1188 -0.2194 -0.2151
 5132SOL    HW118028   2.567   5.906   0.604  1.3932  1.0447  0.2830
 5132SOL    HW218029   2.476   6.011   0.542  1.1324  1.1429  0.8245
 5133SOL     OW18030   0.018   7.870   2.896  0.2188 -0.1301  0.3660
 5133SOL    HW118031   0.069   7.895   2.972  0.3349 -1.5677  0.7902
 5133SOL    HW218032   0.038   7.777   2.883 -0.0242  0.0129 -1.2399
 5134SOL     OW18033   4.593   0.605   2.098  0.1290 -0.1743 -0.3383
 5134SOL    HW118034   4.560   0.667   2.033  3.9452  3.0304  0.4444
 5134SOL    HW218035   4.559   0.636   2.181  0.4511 -0.3416 -0.1424
 5135SOL     OW18036   9.563   5.666   0.978 -0.0922 -0.1604 -0.4259
 5135SOL    HW118037   9.509   5.660   1.056 -2.9647  1.5165 -2.1138
 5135SOL    HW218038   9.634   5.726   1.002  0.3060 -1.3018  1.4371
 5136SOL     OW18039  10.322   1.466   4.924 -0.0397 -0.8536  0.3620
 5136SOL    HW118040  10.319   1.559   4.901  1.3742 -1.0435 -0.7484
 5136SOL    HW218041  10.239   1.431   4.891 -0.0599 -0.2032 -0.3166
 5137SOL     OW18042   1.361   9.695   4.232  0.0183  0.2481  0.4394
 5137SOL    HW118043   1.405   9.631   4.175 -1.2190 -0.2051 -0.0432
 5137SOL    HW218044   1.268   9.674   4.223 -0.3395  1.5514  0.9882
 5138SOL     OW18045   8.210   6.685   7.856  0.0244  0.2340  0.7386
 5138SOL    HW118046   8.234   6.637   7.936 -3.1545 -1.7791  0.6806
 5138SOL    HW218047   8.264   6.645   7.787  1.3665  0.6210  1.5327
 5139SOL     OW18048   4.741   9.484   6.943 -0.3189  0.7457  0.3268
 5139SOL    HW118049   4.814   9.437   6.983  0.6181  0.0157 -2.0744
 5139SOL    HW218050   4.764   9.576   6.952  1.4172  0.5190 -1.1603
 5140SOL     OW18051   6.029   0.182   8.654 -0.0151  0.5568  0.1993
 5140SOL    HW118052   5.971   0.124   8.705 -0.1598  2.3887  2.2555
 5140SOL    HW218053   5.984   0.266   8.655  1.3284  1.2991 -0.6591
 5141SOL     OW18054   6.602   8.056   2.347 -0.2860  0.0039  0.1697
 5141SOL    HW118055   6.524   8.098   2.311 -0.6406 -1.6934 -1.1776
 5141SOL    HW218056   6.655   8.034   2.270 -0.1582 -2.0059  0.7693
 5142SOL     OW18057   9.061   2.952   3.731  0.4041  0.2141 -0.3190
 5142SOL    HW118058   9.003   3.026   3.713  0.0224 -0.1618 -0.6387
 5142SOL    HW218059   9.009   2.894   3.786  0.0884 -0.6367 -1.4969
 5143SOL     OW18060   7.673   4.398   5.828  0.0742 -0.2331  0.1535
 5143SOL    HW118061   7.605   4.395   5.762  0.3126  2.1016 -0.2958
 5143SOL    HW218062   7.632   4.364   5.907 -1.9828  1.9556  0.1398
 5144SOL     OW18063   5.249   0.656   0.696 -0.2318 -0.1718  0.2765
 5144SOL    HW118064   5.236   0.738   0.743 -0.1850 -0.7906  1.4295
 5144SOL    HW218065   5.327   0.670   0.644  0.6148  0.0751  1.5510
 5145SOL     OW18066   4.224   2.745   6.616  0.0004  0.1155  0.1890
 5145SOL    HW118067   4.267   2.828   6.594  0.8674 -0.9514 -2.5350
 5145SOL    HW218068   4.132   2.759   6.593 -0.1476  0.7251  1.0785
 5146SOL     OW18069   4.567   8.833   2.152  0.0641  0.2643 -0.2184
 5146SOL    HW118070   4.515   8.911   2.171 -0.8415 -0.3978  0.1025
 5146SOL    HW218071   4.576   8.789   2.236  0.9963  0.2668 -0.3086
 5147SOL     OW18072   9.140   3.283   8.711  0.2271  0.4911  0.1264
 5147SOL    HW118073   9.144   3.201   8.762 -0.7100  0.4103  0.0827
 5147SOL    HW218074   9.139   3.254   8.620 -1.9685  0.4289  0.1221
 5148SOL     OW18075   9.012   5.525   0.221 -0.8505  0.2216 -0.3462
 5148SOL    HW118076   8.960   5.452   0.186 -0.8389  0.1387 -0.1900
 5148SOL    HW218077   8.949   5.579   0.269 -1.4155  1.7876 -2.6912
 5149SOL     OW18078   6.109   6.379  10.190 -0.1641  0.4494 -0.3728
 5149SOL    HW118079   6.038   6.390  10.254 -0.2729  1.0839 -0.5924
 5149SOL    HW218080   6.076   6.421  10.110  0.5545  0.9935 -0.3975
 5150SOL     OW18081   7.364   3.756   6.697 -0.6655 -0.3660  0.4435
 5150SOL    HW118082   7.439   3.699   6.715  0.4969  1.2043  0.8380
 5150SOL    HW218083   7.340   3.737   6.606  1.3137  0.2665 -0.2638
 5151SOL     OW18084   5.385   3.537   2.849 -0.2524 -0.4774 -0.1394
 5151SOL    HW118085   5.396   3.600   2.778  0.3262  1.0230  1.2142
 5151SOL    HW218086   5.290   3.530   2.859 -0.3612 -1.2523 -1.4889
 5152SOL     OW18087   9.422   4.089   8.342 -0.1982 -0.3486  0.0700
 5152SOL    HW118088   9.474   4.040   8.406  1.2605  0.1517 -0.6695
 5152SOL    HW218089   9.374   4.022   8.294  0.6651 -0.9459  0.0107
 5153SOL     OW18090  10.323   0.460   0.935  0.2891  0.7360  0.1698
 5153SOL    HW118091  10.303   0.374   0.898 -0.6273 -0.1056  2.4166
 5153SOL    HW218092  10.396   0.444   0.995  0.3404  1.5911  0.3480
 5154SOL     OW18093   9.883   0.492   4.495 -0.4012 -0.1297 -0.0249
 5154SOL    HW118094   9.826   0.438   4.549 -0.6080 -0.2804 -0.3919
 5154SOL    HW218095   9.926   0.430   4.435  0.8737 -0.1561  0.8679
 5155SOL     OW18096   4.784   9.655   5.058 -0.3073 -0.2469  0.5378
 5155SOL    HW118097   4.746   9.583   5.007 -0.0932  0.6086 -0.8774
 5155SOL    HW218098   4.796   9.726   4.995  2.0605  0.1122  1.2933
 5156SOL     OW18099   7.182   2.508   5.410  0.2892  0.3389 -0.0254
 5156SOL    HW118100   7.113   2.454   5.448  0.2033 -0.0107 -0.6526
 5156SOL    HW218101   7.263   2.459   5.427  0.2890  0.3481  0.0018
 5157SOL     OW18102   9.475  10.113   8.478 -0.0547  0.3803  0.2466
 5157SOL    HW118103   9.540  10.054   8.516 -0.1559  0.1836  0.1141
 5157SOL    HW218104   9.503  10.200   8.507 -0.5948  0.1713  1.4612
 5158SOL     OW18105   8.790   1.927   8.641  0.0082 -0.4554 -0.3204
 5158SOL    HW118106   8.782   2.010   8.688  0.3689  0.6011 -2.0584
 5158SOL    HW218107   8.737   1.866   8.692 -0.0580  0.7614  1.1478
 5159SOL     OW18108   1.335   5.306   6.011  0.1289  0.1078  0.3102
 5159SOL    HW118109   1.300   5.392   6.037  1.4950  1.2258 -1.3051
 5159SOL    HW218110   1.396   5.283   6.081 -1.8812 -0.6889  1.8972
 5160SOL     OW18111   4.678   0.272   9.148 -0.6824 -0.3859  0.1518
 5160SOL    HW118112   4.650   0.333   9.217 -1.2589 -1.0799  0.5419
 5160SOL    HW218113   4.614   0.285   9.078  1.3454  2.1791 -1.3856
 5161SOL     OW18114   1.540   5.710   2.269  0.1937 -1.0048  0.5072
 5161SOL    HW118115   1.521   5.678   2.181 -0.1850 -1.0930  0.6179
 5161SOL    HW218116   1.456   5.707   2.314  0.2166 -0.1813  0.6270
 5162SOL     OW18117   0.956   9.246   6.527 -0.4218 -0.2648 -0.5594
 5162SOL    HW118118   0.987   9.252   6.617 -1.5240  0.0635 -0.1849
 5162SOL    HW218119   1.028   9.281   6.475  0.2455 -0.5019  0.1850
 5163SOL     OW18120   5.310   3.411   4.127 -0.0446 -0.1897 -0.4610
 5163SOL    HW118121   5.274   3.341   4.181 -0.1253  0.0443 -0.2135
 5163SOL    HW218122   5.347   3.473   4.189 -0.6081  0.3400 -0.6521
 5164SOL     OW18123   8.242   3.532   1.027 -0.2790 -0.0269  0.6012
 5164SOL    HW118124   8.194   3.606   0.991 -2.0259 -1.9660 -1.2776
 5164SOL    HW218125   8.329   3.538   0.987 -1.2210 -0.4042 -1.6334
 5165SOL     OW18126   3.271   8.809   7.831 -0.8505 -0.0635  0.0950
 5165SOL    HW118127   3.223   8.837   7.909  0.2762  1.4622  0.2845
 5165SOL    HW218128   3.271   8.713   7.837 -1.7335 -0.0174  1.3769
 5166SOL     OW18129   2.610   5.874   2.501  0.2344 -0.4518  0.1014
 5166SOL    HW118130   2.643   5.838   2.419 -1.0813 -1.1154 -0.1566
 5166SOL    HW218131   2.538   5.817   2.525  0.9071 -0.5505  1.9925
 5167SOL     OW18132   8.783   1.299   3.969 -0.1813  0.4449  0.2697
 5167SOL    HW118133   8.878   1.296   3.962 -0.3102 -0.5778 -1.8976
 5167SOL    HW218134   8.761   1.390   3.949  0.3692  0.9354  1.7953
 5168SOL     OW18135   1.079  10.351   6.295  0.6979 -0.1735 -0.0269
 5168SOL    HW118136   1.047  10.415   6.231 -0.0910 -1.8255 -1.3544
 5168SOL    HW218137   1.008  10.288   6.305  1.9092 -1.5758  0.2460
 5169SOL     OW18138   1.110   8.205   5.941  0.0945 -0.0932  0.5031
 5169SOL    HW118139   1.018   8.179   5.946  0.0877 -0.1294  0.1873
 5169SOL    HW218140   1.152   8.160   6.014 -0.0555 -0.4166  0.3884
 5170SOL     OW18141   8.805   2.209   1.661  0.0460 -0.2011 -0.1235
 5170SOL    HW118142   8.781   2.194   1.569  0.2071  0.4821 -0.2809
 5170SOL    HW218143   8.734   2.169   1.711 -0.4295  0.0891 -0.5571
 5171SOL     OW18144   7.369   5.170   6.201  0.3106  0.5807  0.1603
 5171SOL    HW118145   7.377   5.259   6.167 -0.5514  0.5427 -0.1849
 5171SOL    HW218146   7.362   5.115   6.122 -1.1896  0.4356  0.3497
 5172SOL     OW18147   9.447   1.382  10.152  0.6529 -0.1705 -0.2912
 5172SOL    HW118148   9.491   1.303  10.183  0.5649  0.0647  0.4596
 5172SOL    HW218149   9.357   1.374  10.185  1.2873  1.4562  2.0938
 5173SOL     OW18150   1.285   2.742   3.173 -0.1351 -0.1652 -0.1126
 5173SOL    HW118151   1.310   2.665   3.225  3.3203  0.0881 -1.0828
 5173SOL    HW218152   1.280   2.709   3.083  1.8909  0.7180 -0.6153
 5174SOL     OW18153   7.244   1.662   8.283 -0.1550  0.2148 -0.1589
 5174SOL    HW118154   7.274   1.750   8.259  2.4904 -1.4978 -4.1952
 5174SOL    HW218155   7.310   1.631   8.344  0.6319  0.0066 -1.1009
 5175SOL     OW18156   7.971   6.108   6.006  0.0746  0.3260  0.1898
 5175SOL    HW118157   7.910   6.100   6.080 -1.3150  0.2594 -0.9221
 5175SOL    HW218158   7.930   6.173   5.948  0.8539 -0.0239 -0.7789
 5176SOL     OW18159   0.458   2.270   8.345  0.1563 -0.5684  0.0942
 5176SOL    HW118160   0.437   2.360   8.369 -2.2117 -1.1314  0.4066
 5176SOL    HW218161   0.500   2.277   8.259  1.8508  0.9298  0.9919
 5177SOL     OW18162   0.917   1.039   2.399  0.0927 -0.3889  0.1800
 5177SOL    HW118163   0.998   1.008   2.359  0.8899  0.4532  1.0991
 5177SOL    HW218164   0.934   1.130   2.421 -1.1676 -0.1449  0.2388
 5178SOL     OW18165   9.401   0.591   2.575  0.0101 -0.5289 -0.2945
 5178SOL    HW118166   9.397   0.616   2.668 -0.1813 -0.8616 -0.2080
 5178SOL    HW218167   9.415   0.496   2.578  2.2445 -0.2578 -0.5958
 5179SOL     OW18168   5.821   3.049   8.552 -0.3932 -0.4027  0.0090
 5179SOL    HW118169   5.759   3.084   8.489 -0.3167  0.4075  0.3635
 5179SOL    HW218170   5.767   3.010   8.621 -0.4905 -0.4549 -0.0978
 5180SOL     OW18171   3.747   0.961   1.167  0.3797 -0.2767  0.2383
 5180SOL    HW118172   3.762   1.053   1.189  0.6019 -0.2491 -0.0168
 5180SOL    HW218173   3.655   0.946   1.189  0.5158 -0.1723  0.8894
 5181SOL     OW18174   4.130   5.597   5.879  0.0490 -0.2992 -0.0752
 5181SOL    HW118175   4.214   5.571   5.842  0.9203  0.2211  1.4303
 5181SOL    HW218176   4.145   5.685   5.913 -0.8033 -0.5553  1.0503
 5182SOL     OW18177   5.009   1.573   4.476  0.3596  0.1867 -0.1166
 5182SOL    HW118178   5.060   1.652   4.459  1.5156  0.0744  2.4339
 5182SOL    HW218179   4.944   1.601   4.541  0.5405 -0.8516  0.5212
 5183SOL     OW18180   6.631   5.471   8.927 -0.0993  0.2359  0.6730
 5183SOL    HW118181   6.544   5.491   8.962 -0.1728  2.9859 -0.8064
 5183SOL    HW218182   6.618   5.396   8.871 -0.5927 -2.1972  3.7588
 5184SOL     OW18183   8.847   2.796   8.069  0.0830  0.4168  0.4989
 5184SOL    HW118184   8.829   2.738   7.995 -0.2169  0.5922  0.4339
 5184SOL    HW218185   8.761   2.830   8.095 -0.0872 -1.1744  2.2074
 5185SOL     OW18186   9.113   4.223   1.896 -0.4730 -0.2911  0.3378
 5185SOL    HW118187   9.083   4.271   1.819 -0.2451  0.0320  0.4439
 5185SOL    HW218188   9.190   4.175   1.867 -0.9707 -0.9544  0.1176
 5186SOL     OW18189   6.979   3.112   1.025 -0.0495 -0.2467  0.2302
 5186SOL    HW118190   7.024   3.036   0.989 -0.1156 -0.4940  0.6562
 5186SOL    HW218191   7.026   3.187   0.990  1.3902 -0.5021  1.5058
 5187SOL     OW18192   3.472   4.360   5.129  0.1295  0.2603 -0.4967
 5187SOL    HW118193   3.563   4.337   5.146  1.0563  1.9697 -2.5731
 5187SOL    HW218194   3.470   4.456   5.132 -1.0102  0.3930 -2.8531
 5188SOL     OW18195   8.574   9.264   5.609  0.0410 -0.0266 -0.1550
 5188SOL    HW118196   8.629   9.229   5.679 -1.2214 -0.5860  0.5985
 5188SOL    HW218197   8.592   9.206   5.535 -1.3525 -1.8233  0.8180
 5189SOL     OW18198   5.254   8.482   4.198  0.1598 -0.0875 -0.4493
 5189SOL    HW118199   5.174   8.437   4.225  0.3458 -0.8009 -1.0698
 5189SOL    HW218200   5.222   8.559   4.150 -0.1553  0.3335  0.4138
 5190SOL     OW18201   7.777   7.512  10.342 -0.1381 -0.5341 -0.1986
 5190SOL    HW118202   7.735   7.526  10.427 -1.6261 -0.8835 -0.8412
 5190SOL    HW218203   7.809   7.598  10.317  0.0710 -0.3740  0.5753
 5191SOL     OW18204   0.501   0.942   3.232 -0.4274  0.4558  0.7533
 5191SOL    HW118205   0.591   0.973   3.244 -0.1486 -0.6532  1.7921
 5191SOL    HW218206   0.451   1.021   3.211  0.9534  0.9367 -0.9530
 5192SOL     OW18207   4.499   5.807   1.858  0.0961 -0.2282 -0.0714
 5192SOL    HW118208   4.515   5.712   1.861  2.1618  0.0663 -0.3862
 5192SOL    HW218209   4.582   5.846   1.887 -0.6128  1.4904 -0.2701
 5193SOL     OW18210   0.855   2.574   0.526  0.0016  0.7213 -0.1657
 5193SOL    HW118211   0.919   2.505   0.509 -0.2727  0.6623 -1.0004
 5193SOL    HW218212   0.907   2.648   0.559  0.4371  0.5069 -0.3698
 5194SOL     OW18213   8.972   1.405   7.916 -0.4370  0.7260  0.3022
 5194SOL    HW118214   9.046   1.453   7.878  0.2563  0.2867  1.0791
 5194SOL    HW218215   8.907   1.402   7.845  1.2074 -0.9561 -1.2670
 5195SOL     OW18216   3.926   1.441   0.033  0.2688  0.1989  0.5520
 5195SOL    HW118217   3.970   1.493   0.101  0.4919 -0.4720  0.9397
 5195SOL    HW218218   3.836   1.472   0.034  0.3555  0.4546  0.9068
 5196SOL     OW18219   8.032   5.490   6.281  0.0924 -0.5733  0.3138
 5196SOL    HW118220   8.057   5.574   6.242 -0.1957 -0.5992  0.0652
 5196SOL    HW218221   8.053   5.425   6.214  0.0759 -0.6705  0.4028
 5197SOL     OW18222   7.818   6.907   9.841 -0.5507 -0.1570 -0.7570
 5197SOL    HW118223   7.747   6.918   9.904  0.5256 -0.3984  0.5464
 5197SOL    HW218224   7.810   6.816   9.811 -0.8774 -0.1360 -0.7363
 5198SOL     OW18225   9.413   9.061   4.544  0.5845 -0.2805  0.5589
 5198SOL    HW118226   9.443   8.976   4.512  0.6616 -0.3910  0.9142
 5198SOL    HW218227   9.489   9.098   4.589  0.1162 -0.7076  1.7481
 5199SOL     OW18228   8.921   5.204   4.707 -0.2282 -0.3859 -0.0475
 5199SOL    HW118229   9.008   5.246   4.710 -0.2791 -0.3244  0.9829
 5199SOL    HW218230   8.938   5.115   4.675  0.0592 -0.0232 -0.9318
 5200SOL     OW18231   7.595   0.284   4.069 -0.0698  0.0363 -0.1876
 5200SOL    HW118232   7.657   0.273   3.997  0.8890  0.8897  0.4954
 5200SOL    HW218233   7.512   0.303   4.025  0.7676  1.8776 -1.0806
 5201SOL     OW18234   7.248   1.352   8.258  0.0184  0.3273 -0.5926
 5201SOL    HW118235   7.168   1.318   8.298  0.1873 -0.6654 -1.0787
 5201SOL    HW218236   7.233   1.446   8.251 -0.9157  0.2115 -0.2553
 5202SOL     OW18237   4.903   3.779   1.241  0.0252  0.2374 -0.2918
 5202SOL    HW118238   4.924   3.700   1.192  0.5794  0.0081  0.2891
 5202SOL    HW218239   4.958   3.847   1.202 -0.5112  0.3546 -0.8434
 5203SOL     OW18240   2.037   6.344   3.252  0.0168 -0.1881  0.0933
 5203SOL    HW118241   1.965   6.407   3.257  0.5508  0.6922 -1.9139
 5203SOL    HW218242   2.114   6.393   3.282  0.0035 -0.7338  1.0429
 5204SOL     OW18243   6.475   0.275   5.327  0.0658  0.1582  0.3778
 5204SOL    HW118244   6.391   0.275   5.281 -0.1007  1.5507  0.6252
 5204SOL    HW218245   6.476   0.358   5.375  0.7352 -0.7230  1.9731
 5205SOL     OW18246   0.667   9.859   3.766  0.4012  0.6945  0.4893
 5205SOL    HW118247   0.602   9.854   3.837  1.4106  0.4867  1.4351
 5205SOL    HW218248   0.745   9.894   3.809  1.1305  0.2638 -0.4644
 5206SOL     OW18249   9.222   9.398   8.188 -0.0082 -0.0775  0.2208
 5206SOL    HW118250   9.231   9.331   8.120  1.0309 -0.5673  0.8259
 5206SOL    HW218251   9.174   9.468   8.145  0.6708 -0.3562 -1.0465
 5207SOL     OW18252   2.595   4.115   0.812 -0.4831  0.0490  0.3892
 5207SOL    HW118253   2.507   4.130   0.846 -0.6438  1.6851 -0.6468
 5207SOL    HW218254   2.599   4.168   0.732  1.3006 -0.3491  0.1802
 5208SOL     OW18255   8.666   3.865   8.143  0.2266  0.2602 -0.0765
 5208SOL    HW118256   8.755   3.843   8.169  0.2011 -0.1322 -0.3050
 5208SOL    HW218257   8.668   3.867   8.048 -0.3635 -1.4042 -0.1686
 5209SOL     OW18258   7.243   1.184   9.162 -0.3046 -0.3274  0.5879
 5209SOL    HW118259   7.328   1.141   9.169 -0.2902 -0.1937  1.2629
 5209SOL    HW218260   7.257   1.271   9.199 -0.0703  0.6547 -1.6618
 5210SOL     OW18261   2.234   1.921   9.052  0.2860 -0.2121  0.4949
 5210SOL    HW118262   2.262   1.969   8.974 -0.7504 -1.5821 -0.7789
 5210SOL    HW218263   2.199   1.988   9.111  1.3691  0.8762 -0.0675
 5211SOL     OW18264   1.396   3.307   3.955  0.3825  0.3650  0.1346
 5211SOL    HW118265   1.488   3.309   3.930  0.6878 -1.9057  0.8059
 5211SOL    HW218266   1.395   3.340   4.045  1.1892 -2.8957  1.4868
 5212SOL     OW18267   3.551   1.649   3.049  0.0709 -0.6680  0.4684
 5212SOL    HW118268   3.522   1.700   2.973  0.0039 -0.5237  0.5890
 5212SOL    HW218269   3.579   1.565   3.013  0.2483 -0.5177  0.2602
 5213SOL     OW18270   1.915   5.086   2.090 -0.0149 -0.0275 -0.2829
 5213SOL    HW118271   1.976   5.087   2.016  1.3622 -4.3952  0.5504
 5213SOL    HW218272   1.967   5.116   2.164  0.2922 -0.9606 -0.1103
 5214SOL     OW18273   6.495   5.259   0.254 -0.3436  0.0509 -0.6014
 5214SOL    HW118274   6.499   5.187   0.190  0.1242 -0.8632  0.4347
 5214SOL    HW218275   6.410   5.300   0.237 -0.2382 -0.1708 -1.8012
 5215SOL     OW18276   2.177   4.499   9.191 -0.2361  0.3795  0.8324
 5215SOL    HW118277   2.253   4.558   9.188  0.5014 -0.5193  1.1052
 5215SOL    HW218278   2.200   4.435   9.258 -1.0259 -0.2058  0.5533
 5216SOL     OW18279   4.214   7.799   0.301 -0.1327  0.3851 -0.1157
 5216SOL    HW118280   4.304   7.769   0.315  0.2364  1.6328  0.3739
 5216SOL    HW218281   4.212   7.887   0.341 -2.0941 -0.3561  1.6225
 5217SOL     OW18282   3.209   5.429   0.805 -0.2008 -0.3620  0.4777
 5217SOL    HW118283   3.123   5.400   0.774 -0.1762  0.4397 -0.3649
 5217SOL    HW218284   3.234   5.499   0.745  1.8484 -1.7696 -0.4411
 5218SOL     OW18285   5.368   1.067   2.908 -0.0805  0.0663 -0.4970
 5218SOL    HW118286   5.319   1.149   2.917  0.4083  0.3267 -0.2175
 5218SOL    HW218287   5.435   1.071   2.977  0.0225 -0.5118 -0.5597
 5219SOL     OW18288   0.919   8.910   1.301  0.3025  0.1912  0.4721
 5219SOL    HW118289   0.932   8.893   1.208 -1.2447 -2.2302  0.5917
 5219SOL    HW218290   0.983   8.853   1.344 -0.9320 -0.9441  0.8695
 5220SOL     OW18291   0.775   4.058   4.720  0.0560 -0.3587 -0.0893
 5220SOL    HW118292   0.832   4.023   4.652 -1.0185 -1.3841 -0.4909
 5220SOL    HW218293   0.790   4.002   4.796 -1.8407 -1.9309 -0.8053
 5221SOL     OW18294   1.246   6.576   8.489  0.3873 -0.2312  0.4176
 5221SOL    HW118295   1.227   6.670   8.491 -2.3948 -0.7288  0.2379
 5221SOL    HW218296   1.341   6.572   8.477  0.4616  2.5565 -0.7596
 5222SOL     OW18297   0.964   9.733   4.361 -0.4185  0.0305  0.0585
 5222SOL    HW118298   0.999   9.655   4.317 -1.4696  0.0300 -0.8355
 5222SOL    HW218299   1.010   9.806   4.322  0.2529 -0.1045  0.5811
 5223SOL     OW18300   3.882   2.516   9.531  0.2737  0.3464  0.1092
 5223SOL    HW118301   3.799   2.562   9.516  0.4652  0.8252  0.5121
 5223SOL    HW218302   3.944   2.557   9.471  0.3401  0.3217  0.1606
 5224SOL     OW18303   2.091   8.335   0.803  0.4885 -0.2375 -0.2994
 5224SOL    HW118304   2.010   8.344   0.854  0.3572  0.1361 -0.5766
 5224SOL    HW218305   2.088   8.405   0.739  1.5627  0.4756  0.3936
 5225SOL     OW18306   0.691   6.411   5.028 -0.1738 -1.3569  0.0900
 5225SOL    HW118307   0.670   6.392   4.937  1.5856 -1.6141 -0.2959
 5225SOL    HW218308   0.784   6.388   5.037 -0.2103 -0.9875  1.8501
 5226SOL     OW18309   7.409   5.678   3.804  0.6315  0.3973  0.5713
 5226SOL    HW118310   7.490   5.666   3.853  0.0812  0.6325  1.5683
 5226SOL    HW218311   7.349   5.718   3.867  0.3171  1.9866 -0.6974
 5227SOL     OW18312   6.643   1.652   2.097  0.3395  0.0800  0.0551
 5227SOL    HW118313   6.578   1.717   2.121  0.4946  0.2732 -0.0380
 5227SOL    HW218314   6.597   1.568   2.100  0.3751  0.0864  1.0800
 5228SOL     OW18315   9.795   6.367   3.097  0.1920  0.1613 -0.2303
 5228SOL    HW118316   9.722   6.374   3.035 -0.2394  0.0838  0.2559
 5228SOL    HW218317   9.774   6.290   3.150 -0.0120  0.8449  0.7117
 5229SOL     OW18318   4.627   0.326   9.975 -0.6299 -0.9917 -0.0209
 5229SOL    HW118319   4.538   0.343   9.945 -0.1093  3.6146  0.2629
 5229SOL    HW218320   4.618   0.312  10.069 -1.1987 -3.5534 -0.3869
 5230SOL     OW18321   0.935   1.059   8.160 -0.2324  0.4523  0.2101
 5230SOL    HW118322   0.844   1.033   8.175 -0.2116  1.4912  2.6570
 5230SOL    HW218323   0.935   1.154   8.174  1.0992  0.6000 -0.6251
 5231SOL     OW18324   5.380   2.308   1.172  0.1758 -0.6266 -0.5224
 5231SOL    HW118325   5.342   2.357   1.099 -1.2512 -3.2395 -1.6914
 5231SOL    HW218326   5.473   2.305   1.153  0.7934  3.4791  0.8689
 5232SOL     OW18327   3.591   1.648   0.586 -0.0158  0.5816  0.0270
 5232SOL    HW118328   3.566   1.620   0.498 -0.6343 -1.2068  0.7404
 5232SOL    HW218329   3.515   1.697   0.618 -0.5006 -0.2672  0.2022
 5233SOL     OW18330   0.814   4.889  10.354  0.4097 -0.2751 -0.0975
 5233SOL    HW118331   0.894   4.941  10.355 -0.2638  0.9687 -2.6864
 5233SOL    HW218332   0.766   4.917  10.432  1.3959  0.7637  0.1654
 5234SOL     OW18333   5.016   9.914   9.667  0.2499  0.0267  0.0143
 5234SOL    HW118334   5.104   9.886   9.640  0.3765  0.9640 -0.5994
 5234SOL    HW218335   5.016  10.009   9.654 -1.2115 -0.0923 -1.0739
 5235SOL     OW18336   4.745   7.489   7.279  0.5781  0.0325  0.1268
 5235SOL    HW118337   4.797   7.499   7.358  0.2496 -0.5864  0.4278
 5235SOL    HW218338   4.678   7.425   7.302  1.8999 -2.0041 -1.3324
 5236SOL     OW18339   1.961   7.595   4.493  0.3514  0.3424 -0.2357
 5236SOL    HW118340   1.893   7.541   4.534  0.1924 -0.3147 -1.3269
 5236SOL    HW218341   2.038   7.538   4.489  0.2391  0.2461 -1.2248
 5237SOL     OW18342   6.746   2.970   7.567 -0.2138  0.3918  0.5881
 5237SOL    HW118343   6.718   2.934   7.483  0.3912 -0.3318  0.6819
 5237SOL    HW218344   6.696   3.051   7.576 -1.5060 -0.3418  0.2938
 5238SOL     OW18345   0.783   3.559   7.245 -0.0083 -0.3483 -0.3518
 5238SOL    HW118346   0.791   3.544   7.340  3.2159 -0.4339 -0.5302
 5238SOL    HW218347   0.855   3.508   7.207 -0.5893  0.5299 -2.7717
 5239SOL     OW18348   3.917   7.731   0.010  0.0246 -0.1933 -0.4289
 5239SOL    HW118349   3.839   7.676   0.007 -1.0558  1.2981 -0.5695
 5239SOL    HW218350   3.923   7.769  -0.078  0.9685 -0.3479 -0.4429
 5240SOL     OW18351   6.020   8.167   1.453  0.7170  0.2722 -0.3011
 5240SOL    HW118352   5.965   8.224   1.400  2.3954  1.4315 -0.8798
 5240SOL    HW218353   6.004   8.079   1.418  0.3364  0.7776 -1.4388
 5241SOL     OW18354   2.085   1.965   4.292 -0.5600  0.4583 -0.5136
 5241SOL    HW118355   2.157   2.006   4.340 -1.0484 -1.1535  1.7528
 5241SOL    HW218356   2.055   2.032   4.232  1.4966  1.8649 -0.0751
 5242SOL     OW18357  10.274   3.212   7.722 -0.3821 -0.4223  0.0901
 5242SOL    HW118358  10.348   3.248   7.674  0.0790 -0.5258  0.7162
 5242SOL    HW218359  10.232   3.153   7.660  0.3764 -0.7755 -0.1030
 5243SOL     OW18360   8.875   4.698   4.472  0.0087 -0.5138 -0.0999
 5243SOL    HW118361   8.883   4.713   4.566 -2.7874  1.0738 -0.0062
 5243SOL    HW218362   8.900   4.781   4.432 -0.2950 -0.6937 -0.6767
 5244SOL     OW18363   2.165   5.315  10.006  0.0009 -0.1404  0.2372
 5244SOL    HW118364   2.200   5.386   9.953  0.4495  0.2942  1.0886
 5244SOL    HW218365   2.242   5.264  10.031 -0.3786 -1.2846 -0.8530
 5245SOL     OW18366   6.147   5.467   2.525 -0.0415 -0.2912 -0.4733
 5245SOL    HW118367   6.143   5.561   2.510  0.4128 -0.5048 -2.1666
 5245SOL    HW218368   6.240   5.449   2.541 -0.2788 -0.3236  1.0018
 5246SOL     OW18369   1.153   5.055   5.210 -0.0943  0.0239 -0.7461
 5246SOL    HW118370   1.110   5.117   5.269 -0.9553  1.2945 -2.6090
 5246SOL    HW218371   1.098   4.977   5.213 -0.3384  0.2117 -0.1624
 5247SOL     OW18372   0.856   5.088   8.371 -0.3367  0.7309 -0.0386
 5247SOL    HW118373   0.885   5.016   8.427  0.5803 -1.2547 -2.8321
 5247SOL    HW218374   0.915   5.160   8.392  1.0370 -0.4841  0.4618
 5248SOL     OW18375   7.764   0.499   0.815 -0.0201  0.1203  0.5322
 5248SOL    HW118376   7.804   0.416   0.842 -1.4511 -0.6783  0.3046
 5248SOL    HW218377   7.829   0.565   0.838  1.4097 -1.1060  0.1879
 5249SOL     OW18378   6.797   1.130   5.605  0.1644  0.0155  0.0277
 5249SOL    HW118379   6.794   1.161   5.514  2.0330  0.8464  0.2041
 5249SOL    HW218380   6.807   1.035   5.598  1.3665  0.1753 -0.6880
 5250SOL     OW18381   5.029   5.011   0.576  0.2974 -0.3007 -0.3755
 5250SOL    HW118382   4.948   5.060   0.568 -1.1125 -2.2936  0.8120
 5250SOL    HW218383   5.082   5.064   0.636 -0.3901  0.6666 -0.5872
 5251SOL     OW18384   0.061   8.010   3.961  0.0335 -0.4537  0.2196
 5251SOL    HW118385   0.035   8.094   3.999  1.2872 -0.4636  1.1503
 5251SOL    HW218386  -0.002   7.996   3.890 -2.3819 -0.4279  2.2209
 5252SOL     OW18387   1.636   5.617   7.969  0.2628 -0.0204  0.1240
 5252SOL    HW118388   1.541   5.613   7.956  0.2644  1.0224 -0.3170
 5252SOL    HW218389   1.647   5.656   8.056  0.3028 -1.7443  0.9485
 5253SOL     OW18390  10.270   2.313   9.845  0.3784 -0.2891  0.0109
 5253SOL    HW118391  10.189   2.263   9.853  0.4173 -1.2138 -3.5827
 5253SOL    HW218392  10.248   2.386   9.787  1.7623  0.2578  0.1295
 5254SOL     OW18393   6.225   5.814   7.512 -0.2869  0.4699 -0.5761
 5254SOL    HW118394   6.233   5.895   7.563  1.1621  0.7358 -1.1857
 5254SOL    HW218395   6.141   5.823   7.468 -0.6118  1.1799  0.1416
 5255SOL     OW18396   7.162   7.350   7.812 -0.3311 -0.7074  0.2500
 5255SOL    HW118397   7.253   7.371   7.795 -0.1364 -1.3047  0.5280
 5255SOL    HW218398   7.117   7.435   7.815  0.4121 -0.3384  1.2874
 5256SOL     OW18399   7.273   8.221   0.502  0.0167  0.3274  0.1559
 5256SOL    HW118400   7.197   8.171   0.472 -0.9521  0.8824  1.5890
 5256SOL    HW218401   7.251   8.246   0.592  1.8984  0.5094  0.6068
 5257SOL     OW18402   3.342   9.334   7.586  0.1163  0.5488 -1.0691
 5257SOL    HW118403   3.285   9.410   7.574 -0.8187  0.1216  0.3777
 5257SOL    HW218404   3.314   9.296   7.669  2.9606  0.6640  0.0294
 5258SOL     OW18405  10.260   5.131   4.682  0.2286  0.2008 -0.3329
 5258SOL    HW118406  10.220   5.210   4.645 -0.2645  0.4996  0.8039
 5258SOL    HW218407  10.301   5.160   4.763 -1.2939 -0.9592  0.9106
 5259SOL     OW18408   4.638   2.938   0.924 -0.5537  0.2461  0.0350
 5259SOL    HW118409   4.672   2.855   0.957 -1.9776 -0.2345  0.3715
 5259SOL    HW218410   4.683   2.952   0.842  1.2650  0.2221  0.9860
 5260SOL     OW18411   3.131   8.624   2.844 -0.7645 -0.4527  0.0306
 5260SOL    HW118412   3.125   8.708   2.890  2.7283 -0.1041  0.0850
 5260SOL    HW218413   3.098   8.560   2.908 -1.2500  0.6077  0.8792
 5261SOL     OW18414   7.265   6.088   7.736  0.1447  0.2069  0.7155
 5261SOL    HW118415   7.218   6.042   7.667 -0.1056  1.1277  0.2433
 5261SOL    HW218416   7.196   6.127   7.790  0.2663  2.7089 -0.7574
 5262SOL     OW18417   3.400   1.543   1.101 -1.0612 -0.1446  0.5141
 5262SOL    HW118418   3.383   1.597   1.178 -3.2112  0.7380 -0.4775
 5262SOL    HW218419   3.446   1.600   1.041 -0.7118 -0.3601  0.5758
 5263SOL     OW18420   7.212   5.856   5.420 -0.6230 -0.0513  0.0872
 5263SOL    HW118421   7.186   5.772   5.456  1.5843 -0.0544  1.8499
 5263SOL    HW218422   7.152   5.919   5.460 -1.5205 -0.6250 -0.3236
 5264SOL     OW18423   8.659   7.783   4.937 -0.1223  0.2110  0.4646
 5264SOL    HW118424   8.702   7.720   4.995  0.4858  1.4326  1.3760
 5264SOL    HW218425   8.592   7.732   4.893  0.5404 -1.1463  0.9591
 5265SOL     OW18426   8.837   1.457   2.186 -0.3423 -0.1678  0.4090
 5265SOL    HW118427   8.835   1.475   2.280 -2.9110 -1.3416  0.6549
 5265SOL    HW218428   8.868   1.367   2.179 -0.0073 -0.0341  0.0998
 5266SOL     OW18429   5.132  10.268   9.146  0.2153 -0.4892 -0.7555
 5266SOL    HW118430   5.118  10.358   9.176 -1.9648 -1.3144  0.9384
 5266SOL    HW218431   5.144  10.218   9.227  0.4727 -1.8916 -1.6321
 5267SOL     OW18432   8.152   6.233   9.684  0.3785  0.3227 -0.3768
 5267SOL    HW118433   8.080   6.295   9.693  0.3024  0.1998 -0.1187
 5267SOL    HW218434   8.139   6.193   9.598 -1.6202 -1.8450  0.8086
 5268SOL     OW18435   5.026   6.880   2.372  0.3423  0.5027  0.2963
 5268SOL    HW118436   5.119   6.882   2.352  0.4720 -1.6461  0.3866
 5268SOL    HW218437   4.987   6.832   2.299 -0.6674  1.1914  0.3651
 5269SOL     OW18438   3.712   1.373   4.239 -0.0595  0.0981  0.0447
 5269SOL    HW118439   3.737   1.380   4.331  2.5215 -0.4295 -0.5445
 5269SOL    HW218440   3.632   1.425   4.232 -0.1860  0.3515  2.5135
 5270SOL     OW18441   5.037   3.775   7.405  0.1757  0.0509 -0.8230
 5270SOL    HW118442   4.951   3.802   7.374  0.0449  0.0518 -0.4633
 5270SOL    HW218443   5.093   3.779   7.327 -0.2900 -0.5680 -1.1987
 5271SOL     OW18444   0.296   7.973   2.318 -0.0190  0.1004 -0.2432
 5271SOL    HW118445   0.308   7.878   2.315 -0.5338  0.0311 -0.2968
 5271SOL    HW218446   0.380   8.009   2.288  1.5668 -0.2324  3.3035
 5272SOL     OW18447   9.693   5.390   3.775  0.2984  0.2207  0.2993
 5272SOL    HW118448   9.601   5.365   3.780 -0.1924  1.5805 -1.0972
 5272SOL    HW218449   9.717   5.374   3.684  0.8752  1.6737  0.1656
 5273SOL     OW18450   4.756   9.231   2.106 -0.0678  0.3289 -0.0456
 5273SOL    HW118451   4.849   9.246   2.091  0.3538 -1.5899  0.3818
 5273SOL    HW218452   4.715   9.246   2.021  0.9326 -0.8574 -0.7653
 5274SOL     OW18453   4.002   4.418   4.414 -0.3643  0.7505  0.1815
 5274SOL    HW118454   3.921   4.396   4.368  0.5462 -0.2291 -0.9999
 5274SOL    HW218455   4.069   4.420   4.346  0.9132 -0.1134  1.3734
 5275SOL     OW18456   5.690   1.590   9.240  0.6043  1.0177 -0.0197
 5275SOL    HW118457   5.742   1.543   9.174  0.3469  0.5193  0.1250
 5275SOL    HW218458   5.755   1.638   9.292  1.0185 -0.2717  0.7014
 5276SOL     OW18459   5.069   7.301   3.936  0.0949 -0.3231 -0.1402
 5276SOL    HW118460   5.065   7.234   3.868  0.0259  0.8136 -1.3046
 5276SOL    HW218461   4.983   7.298   3.978 -0.3854 -0.0893 -1.0752
 5277SOL     OW18462   7.958   7.975   1.466 -0.5412  0.1516 -0.4698
 5277SOL    HW118463   7.877   8.021   1.486 -1.2156 -0.3714 -1.8934
 5277SOL    HW218464   7.933   7.884   1.451  0.3081 -0.0465 -0.8005
 5278SOL     OW18465   8.514   7.904   3.591  0.8757  0.2017  0.1618
 5278SOL    HW118466   8.531   7.837   3.525 -2.0905 -0.7042  0.1586
 5278SOL    HW218467   8.498   7.854   3.672  0.3199  1.0232  0.5706
 5279SOL     OW18468   7.904   9.264   1.509 -0.2782 -0.7499  0.4302
 5279SOL    HW118469   7.871   9.181   1.542 -0.2611 -1.6569 -1.6669
 5279SOL    HW218470   7.839   9.292   1.444  0.5122  0.0483 -0.0413
 5280SOL     OW18471   3.402   4.246   3.926  0.3585  0.0047 -0.5302
 5280SOL    HW118472   3.379   4.290   4.008  0.0769  1.1500 -1.1938
 5280SOL    HW218473   3.339   4.175   3.918 -0.2485  0.5038 -0.2472
 5281SOL     OW18474   5.974   8.589   1.911  0.0201  0.0600  0.2161
 5281SOL    HW118475   6.023   8.516   1.873  2.9541  1.3240  1.2779
 5281SOL    HW218476   5.930   8.551   1.987  1.9373 -0.5598  1.0746
 5282SOL     OW18477   3.153   9.555   6.131 -0.6415 -0.6247  0.4407
 5282SOL    HW118478   3.215   9.496   6.175 -1.0635 -0.0183  1.9171
 5282SOL    HW218479   3.071   9.507   6.129 -1.1164  0.0233  2.0906
 5283SOL     OW18480   1.393   9.834   7.568 -0.0188  0.3397 -0.1361
 5283SOL    HW118481   1.424   9.770   7.504 -0.3881 -0.1211  0.1410
 5283SOL    HW218482   1.347   9.900   7.515 -1.8802 -0.9388 -0.2391
 5284SOL     OW18483   7.034   4.071   2.019 -0.3433 -0.0822  0.0818
 5284SOL    HW118484   6.991   4.005   2.074  1.0881 -1.2744 -0.1448
 5284SOL    HW218485   7.021   4.040   1.930  0.0490  0.1314 -0.0508
 5285SOL     OW18486   4.577   4.201   4.388  0.0794 -0.0262 -0.4015
 5285SOL    HW118487   4.495   4.166   4.353  0.7898  0.0629 -2.2437
 5285SOL    HW218488   4.550   4.255   4.462 -1.4336 -0.7211 -0.4077
 5286SOL     OW18489   4.927   9.213   2.743  0.6949 -0.4029  0.5257
 5286SOL    HW118490   4.984   9.253   2.677  0.7714  0.0861  0.8780
 5286SOL    HW218491   4.958   9.250   2.826 -0.1362 -0.1260  0.7230
 5287SOL     OW18492   2.580   3.706   0.407 -0.4692 -0.1446  0.1237
 5287SOL    HW118493   2.547   3.618   0.386 -1.3809  0.2158  0.0069
 5287SOL    HW218494   2.513   3.744   0.463 -0.4086  0.7311 -0.3827
 5288SOL     OW18495   2.360   7.694   9.206  0.3489 -0.3157  0.4242
 5288SOL    HW118496   2.423   7.675   9.277  0.5872 -0.8041  0.0877
 5288SOL    HW218497   2.396   7.648   9.130  0.6483  1.0425 -0.2909
 5289SOL     OW18498   6.917   0.616   6.677 -0.3781 -0.2502  0.1009
 5289SOL    HW118499   6.939   0.573   6.760  0.2660 -0.1756 -0.0248
 5289SOL    HW218500   6.990   0.675   6.661 -0.9002  0.3427 -0.1118
 5290SOL     OW18501   8.385   8.466   1.322  0.2253 -0.3254 -0.4600
 5290SOL    HW118502   8.388   8.405   1.396  0.6462 -0.5130 -0.6287
 5290SOL    HW218503   8.376   8.410   1.245  1.5481 -0.2488 -0.6980
 5291SOL     OW18504   0.554   2.295   3.948 -0.2301  0.2029  0.2570
 5291SOL    HW118505   0.500   2.220   3.921 -1.4036  0.9002  0.5737
 5291SOL    HW218506   0.569   2.281   4.041 -1.3497  0.8636  0.5613
 5292SOL     OW18507   7.803   0.264   6.601  0.1684 -0.3768  0.3656
 5292SOL    HW118508   7.747   0.244   6.676  0.1429 -0.3704  0.3484
 5292SOL    HW218509   7.747   0.250   6.525  0.8071 -2.5078  0.2186
 5293SOL     OW18510   7.715   4.872   2.960  0.3554  0.5055  0.1712
 5293SOL    HW118511   7.691   4.931   3.032  0.5316  0.3099  0.3927
 5293SOL    HW218512   7.805   4.896   2.938  0.8221 -0.3891  0.9911
 5294SOL     OW18513   7.291   3.598   7.192  0.3061  0.6275  0.4832
 5294SOL    HW118514   7.329   3.625   7.108 -2.0101  1.2910 -0.4256
 5294SOL    HW218515   7.281   3.503   7.184 -0.4197  0.7572 -0.2386
 5295SOL     OW18516   0.535  10.183   8.424 -0.0544 -0.0401  0.1756
 5295SOL    HW118517   0.618  10.201   8.468  0.9139 -1.2383 -1.0631
 5295SOL    HW218518   0.553  10.200   8.331 -1.1190 -0.5584 -0.1407
 5296SOL     OW18519   0.287   8.930   5.482 -0.6379 -0.0057  0.1342
 5296SOL    HW118520   0.302   9.020   5.452 -1.0888  0.6532  1.7489
 5296SOL    HW218521   0.355   8.915   5.548 -0.9714 -0.6173  0.3451
 5297SOL     OW18522   2.203   3.435   3.571 -0.1282 -0.1378  0.0518
 5297SOL    HW118523   2.247   3.351   3.587 -1.3616 -0.9036 -0.3999
 5297SOL    HW218524   2.113   3.421   3.602 -0.4682  0.8737 -0.4326
 5298SOL     OW18525   4.841   9.547   3.845  0.5427  0.0106  0.0807
 5298SOL    HW118526   4.748   9.546   3.823  0.2396  0.9546  1.1758
 5298SOL    HW218527   4.886   9.526   3.763 -0.6673 -2.5326 -0.0201
 5299SOL     OW18528   0.880   8.721   8.101  0.1336 -0.0008  0.4794
 5299SOL    HW118529   0.960   8.710   8.050  0.4021  1.1109  0.6325
 5299SOL    HW218530   0.816   8.662   8.060  1.1388 -1.2211  0.6222
 5300SOL     OW18531   7.254   6.364   3.874 -0.0103 -0.0649 -0.8574
 5300SOL    HW118532   7.162   6.383   3.895 -0.0564 -0.9329 -0.2173
 5300SOL    HW218533   7.293   6.339   3.958  0.7229 -0.0817 -1.1966
 5301SOL     OW18534   4.435   8.018   7.725  0.7901  0.1350  0.8277
 5301SOL    HW118535   4.394   7.998   7.641  1.1128 -0.4120  0.7924
 5301SOL    HW218536   4.450   7.932   7.765  0.4487  0.3940  1.5395
 5302SOL     OW18537   1.587   0.793   6.453  0.3047  0.0608  0.0549
 5302SOL    HW118538   1.590   0.806   6.548  0.9249 -0.5820  0.1327
 5302SOL    HW218539   1.498   0.761   6.436  0.3477 -0.3088  0.4946
 5303SOL     OW18540   4.553   0.688   1.806  0.0035 -0.8275 -0.7747
 5303SOL    HW118541   4.613   0.616   1.825  0.7590  0.2838  1.5104
 5303SOL    HW218542   4.607   0.767   1.813 -1.2024  0.0735 -1.2044
 5304SOL     OW18543   8.900   3.842   3.537  0.2145  0.0879  0.0186
 5304SOL    HW118544   8.881   3.815   3.448 -0.2176 -0.5845  0.3082
 5304SOL    HW218545   8.981   3.797   3.560 -0.6399 -1.2133  0.5898
 5305SOL     OW18546   0.176   1.643   7.345  0.1344 -0.0820 -0.4343
 5305SOL    HW118547   0.144   1.569   7.398  0.0705 -0.2635 -0.7275
 5305SOL    HW218548   0.240   1.687   7.402 -0.9123  0.5238  0.3149
 5306SOL     OW18549   4.984   3.961   2.875  0.1370  0.1828  0.6349
 5306SOL    HW118550   4.909   3.904   2.889  0.0310  0.1757  0.0530
 5306SOL    HW218551   4.993   3.967   2.780 -0.7945  2.3456  0.6054
 5307SOL     OW18552   3.423   1.492   1.825 -0.4948 -0.1432 -0.0399
 5307SOL    HW118553   3.451   1.410   1.864 -1.5369 -1.2861 -1.5715
 5307SOL    HW218554   3.346   1.469   1.773  0.1352  1.4729 -1.8352
 5308SOL     OW18555   0.641   4.302   3.091 -0.2980  0.2268  0.1985
 5308SOL    HW118556   0.672   4.392   3.101  2.4957 -0.3611 -1.8919
 5308SOL    HW218557   0.694   4.252   3.154 -0.0410 -0.2632 -0.4008
 5309SOL     OW18558   2.890   1.270   8.953 -0.5612  0.4456 -0.0334
 5309SOL    HW118559   2.797   1.276   8.932 -0.2198  1.3069 -1.4517
 5309SOL    HW218560   2.922   1.359   8.942  0.2456  0.3707  1.4775
 5310SOL     OW18561   3.664   6.850   2.926  0.6923  0.6304 -0.6287
 5310SOL    HW118562   3.661   6.945   2.917  2.6885  0.8704  0.4589
 5310SOL    HW218563   3.748   6.834   2.970  0.7065 -1.6812 -1.3992
 5311SOL     OW18564   9.977   6.660   3.725  0.3763  0.2658  0.2486
 5311SOL    HW118565  10.024   6.580   3.700  1.1457 -0.0365  2.4289
 5311SOL    HW218566   9.888   6.631   3.743 -0.2152  0.5037 -2.0121
 5312SOL     OW18567   6.848   6.965   9.605  0.8352  0.1105 -0.9716
 5312SOL    HW118568   6.938   6.938   9.582  0.7154  0.8889 -2.4880
 5312SOL    HW218569   6.793   6.924   9.538  0.0851 -0.1082 -0.2350
 5313SOL     OW18570   2.140   9.486   0.150 -0.3957 -0.3723 -0.1074
 5313SOL    HW118571   2.061   9.462   0.103 -0.0639 -0.6621 -0.5230
 5313SOL    HW218572   2.109   9.523   0.232 -0.9449 -2.4019  0.6679
 5314SOL     OW18573   2.630  10.015   6.571  0.2925 -0.2571 -0.0766
 5314SOL    HW118574   2.640   9.951   6.641  0.5061  0.7615  0.8443
 5314SOL    HW218575   2.566   9.976   6.512  0.1872 -1.1815  0.6279
 5315SOL     OW18576  10.261   8.611   1.284 -0.8580  0.3926  0.3455
 5315SOL    HW118577  10.308   8.616   1.201 -1.1338  2.7111  0.2565
 5315SOL    HW218578  10.170   8.594   1.260 -0.4981 -1.8657  0.3928
 5316SOL     OW18579   1.131   2.916   4.179 -0.4553  0.2770 -0.2648
 5316SOL    HW118580   1.187   2.889   4.253 -0.1358  0.7868 -0.3175
 5316SOL    HW218581   1.170   2.873   4.103 -1.2831 -0.9381 -0.0241
 5317SOL     OW18582   6.893   9.174   2.122 -0.0360  0.0603  0.0638
 5317SOL    HW118583   6.949   9.182   2.199  1.1855  0.8696 -0.8844
 5317SOL    HW218584   6.892   9.080   2.103 -0.5917 -0.1918  1.2043
 5318SOL     OW18585   0.104   5.351   2.430  0.7968  0.4874  0.5724
 5318SOL    HW118586   0.070   5.441   2.431  0.5272  0.4619  4.1378
 5318SOL    HW218587   0.077   5.314   2.513  2.4106 -2.3780 -0.0558
 5319SOL     OW18588   2.241   1.299   7.450  0.2960 -0.7188 -0.1837
 5319SOL    HW118589   2.280   1.382   7.421 -0.7394 -0.3912 -0.6842
 5319SOL    HW218590   2.291   1.232   7.404 -1.8384 -0.2175 -3.6670
 5320SOL     OW18591   8.856   4.827   9.657 -0.3006 -0.3301 -0.4370
 5320SOL    HW118592   8.824   4.917   9.651 -1.2742 -0.6518 -0.1864
 5320SOL    HW218593   8.948   4.833   9.633 -0.2347  0.8114  0.0389
 5321SOL     OW18594   2.486   8.691   2.445  0.2656 -0.2147 -0.1425
 5321SOL    HW118595   2.500   8.768   2.499  0.4041  0.1690 -0.7186
 5321SOL    HW218596   2.511   8.718   2.357 -0.3710 -0.7019 -0.4814
 5322SOL     OW18597   4.127   7.334   0.182 -0.0900  0.7894  0.0473
 5322SOL    HW118598   4.100   7.426   0.191 -1.3344  0.3858  0.6793
 5322SOL    HW218599   4.185   7.334   0.106 -0.2790  2.0594 -0.1260
 5323SOL     OW18600   3.648   5.571   8.273  0.3614  0.0646 -0.0748
 5323SOL    HW118601   3.668   5.636   8.340 -0.7492 -1.9246  2.3479
 5323SOL    HW218602   3.553   5.575   8.263  0.4130 -0.3601 -0.8180
 5324SOL     OW18603   4.785   1.750   5.402 -0.0408  0.0726  0.0480
 5324SOL    HW118604   4.810   1.659   5.391 -1.8447 -0.4600  0.0719
 5324SOL    HW218605   4.790   1.788   5.314 -0.4105 -0.3500 -0.1540
 5325SOL     OW18606   4.379   8.725   2.959 -0.4851  0.0356 -0.5757
 5325SOL    HW118607   4.429   8.659   3.007 -0.5250 -0.0812 -0.6953
 5325SOL    HW218608   4.386   8.804   3.013 -1.8355 -0.4858  0.4389
 5326SOL     OW18609   5.687   6.405   3.796  0.0252  0.1435 -0.3950
 5326SOL    HW118610   5.641   6.415   3.879  2.3906 -1.2050  1.1688
 5326SOL    HW218611   5.665   6.317   3.767  0.3214  0.0997 -0.4844
 5327SOL     OW18612   4.792   4.428   3.149 -0.1180 -0.0920  0.7545
 5327SOL    HW118613   4.707   4.397   3.117 -0.3961 -0.8659  2.1828
 5327SOL    HW218614   4.855   4.373   3.103 -0.4250 -0.1313  0.3690
 5328SOL     OW18615   4.901   4.999   2.857 -0.2575 -0.0265 -0.4205
 5328SOL    HW118616   4.970   5.004   2.791 -0.4783 -1.7559 -0.8538
 5328SOL    HW218617   4.839   4.935   2.822 -0.5096 -0.8131  1.3277
 5329SOL     OW18618   1.621   5.875   2.669 -0.2722  0.0506 -0.1778
 5329SOL    HW118619   1.636   5.921   2.752  0.5233 -0.9880  0.2648
 5329SOL    HW218620   1.574   5.796   2.694  2.1275 -1.5207 -0.3731
 5330SOL     OW18621   8.362   5.681   3.219  0.4206  0.0244 -0.0835
 5330SOL    HW118622   8.450   5.719   3.220 -0.0774  1.2277  0.0611
 5330SOL    HW218623   8.339   5.675   3.126  1.6567 -2.8187 -0.3079
 5331SOL     OW18624   1.681   6.914   6.104  0.3123 -0.5470  0.1251
 5331SOL    HW118625   1.761   6.863   6.100 -0.9651 -2.6098 -0.5020
 5331SOL    HW218626   1.615   6.853   6.138 -1.5306  0.3358 -1.6684
 5332SOL     OW18627   7.624   0.857   6.413 -0.5876 -0.6070 -0.3742
 5332SOL    HW118628   7.715   0.839   6.436 -0.8759  0.6858  2.0776
 5332SOL    HW218629   7.626   0.944   6.372 -0.6088 -1.0848 -1.4227
 5333SOL     OW18630   2.419  10.242  10.120 -0.0324 -0.6279  0.3733
 5333SOL    HW118631   2.486  10.299  10.083 -0.2335  0.6626  1.8654
 5333SOL    HW218632   2.467  10.172  10.163  0.3283 -0.3045  0.4982
 5334SOL     OW18633   3.654   5.632   2.922 -0.4200 -0.0421 -0.6516
 5334SOL    HW118634   3.613   5.718   2.910  1.1190  0.6446 -1.2858
 5334SOL    HW218635   3.690   5.610   2.836 -1.5115 -1.7466 -0.7190
 5335SOL     OW18636   2.194   6.501   4.721  0.0002  0.3231  0.1355
 5335SOL    HW118637   2.104   6.499   4.751 -0.3432 -2.3259 -0.7927
 5335SOL    HW218638   2.188   6.504   4.626  0.8176 -1.0527  0.0068
 5336SOL     OW18639   2.569   3.460   8.816 -0.5733  0.0213  0.2352
 5336SOL    HW118640   2.658   3.445   8.785 -0.9124 -0.8286 -0.3477
 5336SOL    HW218641   2.577   3.460   8.911  0.2292  1.1333  0.1930
 5337SOL     OW18642   2.960   4.441   3.444 -0.0366 -0.0625  0.1027
 5337SOL    HW118643   2.969   4.493   3.523 -2.4593 -0.0645  0.4352
 5337SOL    HW218644   2.867   4.445   3.422  0.1506 -2.0579 -1.3630
 5338SOL     OW18645   0.279   4.461   4.684 -0.5476  0.2320  0.5031
 5338SOL    HW118646   0.355   4.504   4.643 -1.3874  0.2194 -1.1586
 5338SOL    HW218647   0.312   4.377   4.714  0.0306  0.0465 -0.5847
 5339SOL     OW18648   7.683   3.710   9.682  0.4178 -0.1856  0.4789
 5339SOL    HW118649   7.667   3.709   9.588  1.0264 -0.3996  0.3720
 5339SOL    HW218650   7.607   3.665   9.720  0.1959 -0.1425  0.0858
 5340SOL     OW18651   4.386   9.951   0.079  0.5883 -0.3563 -0.0628
 5340SOL    HW118652   4.432   9.933   0.161  1.1454  2.1812  0.2943
 5340SOL    HW218653   4.437  10.022   0.040 -0.7095 -0.2878 -1.7177
 5341SOL     OW18654   8.609   5.989   6.096  0.1061 -0.1869  0.3321
 5341SOL    HW118655   8.621   5.904   6.138 -0.3039 -0.4089  0.0139
 5341SOL    HW218656   8.553   5.970   6.020 -0.1651  0.3996  0.3816
 5342SOL     OW18657   1.169   6.430   8.936 -0.3884  0.1577  0.2061
 5342SOL    HW118658   1.225   6.469   8.869 -1.0579 -0.7493 -0.9321
 5342SOL    HW218659   1.229   6.388   8.997  0.2056 -0.4515 -0.7653
 5343SOL     OW18660   3.928  10.064   0.401  0.2799 -0.6961  0.3812
 5343SOL    HW118661   3.841  10.093   0.429  0.7703  0.5962  0.6688
 5343SOL    HW218662   3.937   9.976   0.436 -0.5699 -0.4974  1.1300
 5344SOL     OW18663   4.788   2.627   7.294  0.5581  0.4341 -0.2552
 5344SOL    HW118664   4.774   2.550   7.238  0.7756 -0.3635  0.7540
 5344SOL    HW218665   4.712   2.628   7.352  0.8539  0.6282  0.1290
 5345SOL     OW18666   8.118   3.174   7.462 -0.0165  0.2087  0.1482
 5345SOL    HW118667   8.032   3.134   7.472 -0.2823  1.1229  2.0376
 5345SOL    HW218668   8.148   3.189   7.551  0.4164  3.3814 -0.4045
 5346SOL     OW18669   1.130   2.407   3.000  0.0769  0.0631 -0.3930
 5346SOL    HW118670   1.093   2.495   3.007  0.9000  0.4327 -0.5041
 5346SOL    HW218671   1.079   2.363   2.932 -0.3769  0.4354 -0.2929
 5347SOL     OW18672   0.746   1.790   7.962 -0.0690 -0.0872 -0.1024
 5347SOL    HW118673   0.759   1.815   7.871  0.7620 -1.9267 -0.5222
 5347SOL    HW218674   0.818   1.730   7.982 -0.3456  0.1114  1.7092
 5348SOL     OW18675   7.588   0.389   2.111  0.4478  0.1532  0.3592
 5348SOL    HW118676   7.584   0.301   2.148 -0.4434  0.3859  0.8484
 5348SOL    HW218677   7.570   0.376   2.018 -1.1203 -0.0522  0.6672
 5349SOL     OW18678   1.536   6.510   8.507 -0.1619  0.2123 -0.5942
 5349SOL    HW118679   1.494   6.435   8.549 -1.0813  1.6368  1.1751
 5349SOL    HW218680   1.591   6.472   8.438  0.0917 -2.1247  0.8107
 5350SOL     OW18681   8.636   1.746   0.889  0.0539  0.0104  0.2156
 5350SOL    HW118682   8.624   1.817   0.826  1.4445 -2.7310 -3.5248
 5350SOL    HW218683   8.548   1.712   0.904 -0.4142  1.3585  0.6246
 5351SOL     OW18684   1.538   0.653   4.483  0.6138  0.0680 -0.0059
 5351SOL    HW118685   1.553   0.720   4.551 -0.7742 -0.7223  1.1327
 5351SOL    HW218686   1.445   0.661   4.462  0.2693 -1.8611  0.5822
 5352SOL     OW18687   1.339   9.305   6.568 -0.3156 -0.3070  0.0911
 5352SOL    HW118688   1.427   9.309   6.606  0.1029 -2.1207 -0.6193
 5352SOL    HW218689   1.296   9.384   6.601  1.1908  0.0240  1.3989
 5353SOL     OW18690   3.949  10.010   7.590 -0.1621  0.0734 -0.3489
 5353SOL    HW118691   3.912   9.949   7.655 -0.0979  0.1301 -0.2580
 5353SOL    HW218692   3.970  10.089   7.641  1.2581 -0.4074 -0.1471
 5354SOL     OW18693   7.296   3.604   6.437 -0.3949  0.0705  0.0481
 5354SOL    HW118694   7.334   3.517   6.451  0.3423  0.5446  1.1320
 5354SOL    HW218695   7.266   3.603   6.346 -1.7525 -1.8258  0.4486
 5355SOL     OW18696   8.087   2.184   6.621 -0.5972 -1.2384 -0.5100
 5355SOL    HW118697   8.000   2.203   6.588  0.5669  2.7314 -1.8985
 5355SOL    HW218698   8.102   2.250   6.688  2.5473  0.8655 -2.9568
 5356SOL     OW18699   9.580   3.727   6.014 -0.5964  0.2069 -0.4178
 5356SOL    HW118700   9.671   3.712   6.039 -0.4910  0.2315 -0.7888
 5356SOL    HW218701   9.562   3.818   6.041 -1.1567 -0.4399  1.5800
 5357SOL     OW18702   9.275   3.544   4.284  0.1010  0.4130  0.1094
 5357SOL    HW118703   9.299   3.461   4.243  0.4893  0.2987  0.5728
 5357SOL    HW218704   9.249   3.521   4.373  0.3160  0.8049  0.2742
 5358SOL     OW18705   6.235   8.341   8.272  0.3205  0.1635  0.2511
 5358SOL    HW118706   6.243   8.245   8.274 -1.0141  0.0277  0.5426
 5358SOL    HW218707   6.260   8.365   8.183 -1.1529 -0.6936 -0.4516
 5359SOL     OW18708   9.632   9.380  10.334 -0.4472  0.2566  0.5723
 5359SOL    HW118709   9.617   9.448  10.268  0.9336 -1.9098 -2.1618
 5359SOL    HW218710   9.551   9.328  10.334  0.3421 -1.0696 -1.2009
 5360SOL     OW18711   9.579   1.704   1.418 -0.3208  0.3199 -0.3450
 5360SOL    HW118712   9.661   1.668   1.451 -0.0620  0.0275 -1.2843
 5360SOL    HW218713   9.604   1.755   1.341 -0.9842  0.4804 -0.4605
 5361SOL     OW18714   5.248   3.397   3.844 -0.1691  0.0254  0.0387
 5361SOL    HW118715   5.185   3.461   3.877 -1.6506 -1.5891  0.4844
 5361SOL    HW218716   5.283   3.354   3.922  1.0647  0.4972 -0.2336
 5362SOL     OW18717   8.679   6.586   4.673 -0.4586  0.3747  0.2398
 5362SOL    HW118718   8.711   6.527   4.741  1.2057  2.7275  1.6318
 5362SOL    HW218719   8.584   6.589   4.687 -0.6331 -2.1123 -0.0680
 5363SOL     OW18720   9.923   2.812   0.356  0.2923  0.1754  0.3427
 5363SOL    HW118721   9.878   2.896   0.356  0.0430  0.0859 -1.3050
 5363SOL    HW218722  10.010   2.831   0.322 -0.4481 -0.4791 -2.1584
 5364SOL     OW18723   4.407   8.014   4.251 -0.7148  0.5432  0.6760
 5364SOL    HW118724   4.467   7.987   4.182  1.4252 -0.7969  2.9048
 5364SOL    HW218725   4.320   8.000   4.214  0.3336  0.3126 -1.8623
 5365SOL     OW18726   0.394   1.185   8.079 -0.1884  0.5157  0.6132
 5365SOL    HW118727   0.465   1.174   8.016 -0.2228  1.0446  0.4789
 5365SOL    HW218728   0.351   1.100   8.082  0.8969 -0.0330  1.2343
 5366SOL     OW18729   5.063   4.830   7.161 -0.2961  0.2876 -0.2779
 5366SOL    HW118730   5.037   4.783   7.240 -0.2626 -2.6707 -1.8817
 5366SOL    HW218731   4.981   4.847   7.114 -0.1018 -0.9029 -1.0892
 5367SOL     OW18732   8.511   2.566   2.334  0.5973 -0.0719  0.1416
 5367SOL    HW118733   8.491   2.552   2.426  0.4386  0.7926  0.2408
 5367SOL    HW218734   8.533   2.479   2.301  0.2158 -0.4560  0.8852
 5368SOL     OW18735   6.964   1.510   5.646 -0.0896 -0.0073  0.2835
 5368SOL    HW118736   6.984   1.455   5.722  1.4273 -1.3623 -1.0285
 5368SOL    HW218737   6.966   1.599   5.679 -0.6406 -0.6213  2.0674
 5369SOL     OW18738  10.002   2.126   8.956  0.4321 -0.0234  0.3530
 5369SOL    HW118739   9.946   2.051   8.935 -0.2043  0.8403 -1.1590
 5369SOL    HW218740   9.989   2.140   9.050  0.6242 -1.8387  0.6808
 5370SOL     OW18741   3.194   5.394   6.800 -0.2382 -0.1933 -0.2230
 5370SOL    HW118742   3.170   5.305   6.777  0.4512 -0.1851 -1.0389
 5370SOL    HW218743   3.184   5.398   6.895  4.8151 -2.8320  0.7849
 5371SOL     OW18744   5.689   6.292   6.387 -0.4872  0.0089 -0.0719
 5371SOL    HW118745   5.664   6.379   6.418 -0.4463  0.4887 -1.3322
 5371SOL    HW218746   5.607   6.244   6.380 -0.4118 -0.4789  1.7512
 5372SOL     OW18747   2.568   2.074   0.003  0.4805 -0.1160  0.5803
 5372SOL    HW118748   2.627   2.092  -0.070 -0.8006  0.8005 -0.2672
 5372SOL    HW218749   2.488   2.041  -0.038 -0.4896  0.9910  1.5090
 5373SOL     OW18750   4.698   8.044   8.370  0.0245 -0.3998 -0.3266
 5373SOL    HW118751   4.717   8.110   8.304  0.0582 -0.7905 -0.7099
 5373SOL    HW218752   4.603   8.033   8.367 -0.1731  0.7519  0.8228
 5374SOL     OW18753   4.952   7.925   8.023  0.4207 -0.5326  0.4314
 5374SOL    HW118754   5.012   7.867   7.975  0.7114  3.2517 -4.7017
 5374SOL    HW218755   5.007   7.999   8.048 -0.8701 -0.0595  1.9614
 5375SOL     OW18756   0.932   4.634  10.133 -0.0665  0.4714 -0.2436
 5375SOL    HW118757   0.991   4.606  10.203 -1.2574  1.7156  1.3464
 5375SOL    HW218758   0.846   4.606  10.163 -0.4272 -0.4386 -2.0435
 5376SOL     OW18759   8.823   1.422   1.368  0.3183 -0.3620  0.3967
 5376SOL    HW118760   8.878   1.475   1.427 -0.2425 -0.2424  0.8203
 5376SOL    HW218761   8.793   1.349   1.422 -0.6567  0.0483  0.4254
 5377SOL     OW18762   4.041   3.410   9.663 -0.0039  0.5833 -0.3713
 5377SOL    HW118763   4.090   3.348   9.609  0.8837 -0.6022  1.6567
 5377SOL    HW218764   4.098   3.426   9.738 -1.8497  0.8226  1.0568
 5378SOL     OW18765   1.377   0.723  10.293 -0.7009  0.1425  0.2342
 5378SOL    HW118766   1.389   0.630  10.274  1.0446  0.2400  0.6473
 5378SOL    HW218767   1.375   0.728  10.389  0.8647  0.6493  0.2773
 5379SOL     OW18768   3.917   1.929   9.664 -0.0226  0.7658  0.1789
 5379SOL    HW118769   3.995   1.977   9.693  0.0742  1.3746 -1.0208
 5379SOL    HW218770   3.940   1.899   9.576 -0.2939 -1.0282  0.6774
 5380SOL     OW18771   4.144   1.361   4.434 -0.1380  0.2565  0.5290
 5380SOL    HW118772   4.180   1.305   4.366 -0.7939 -0.8211  1.0481
 5380SOL    HW218773   4.213   1.366   4.500 -0.4890 -0.8953  1.0082
 5381SOL     OW18774   2.598   1.342   3.284 -0.0362 -0.3354 -0.3716
 5381SOL    HW118775   2.616   1.434   3.266 -0.5235 -0.1093  0.2464
 5381SOL    HW218776   2.569   1.306   3.200  0.4810 -0.0130 -0.6950
 5382SOL     OW18777   7.422   0.079   5.020 -0.1621 -0.2494  0.2155
 5382SOL    HW118778   7.328   0.061   5.022 -0.8531  2.8451  1.7813
 5382SOL    HW218779   7.430   0.158   4.967  1.7168 -0.9419 -0.6158
 5383SOL     OW18780   2.413   6.104   8.479 -0.2552  0.0699  0.3970
 5383SOL    HW118781   2.419   6.173   8.545  1.5916 -0.0849  0.4357
 5383SOL    HW218782   2.477   6.038   8.507 -1.1159 -1.1020 -0.2974
 5384SOL     OW18783   2.892   1.542   4.250 -0.2222  0.6862 -0.5982
 5384SOL    HW118784   2.975   1.590   4.250  0.1210  0.1341  0.6101
 5384SOL    HW218785   2.835   1.592   4.191  0.7041  1.5343 -0.8008
 5385SOL     OW18786   5.511   1.854   3.213 -0.4223 -0.1011  0.2200
 5385SOL    HW118787   5.605   1.869   3.202 -0.2011 -0.9866  0.8335
 5385SOL    HW218788   5.502   1.819   3.302 -1.1498 -1.4723 -0.3619
 5386SOL     OW18789   6.723   8.619   5.588  0.1567  0.3384  0.0884
 5386SOL    HW118790   6.745   8.713   5.594 -0.5530  0.4824  0.4571
 5386SOL    HW218791   6.806   8.575   5.606 -0.0281  0.8556  2.5854
 5387SOL     OW18792   8.210   1.126   0.545  0.6545 -0.2622 -0.0331
 5387SOL    HW118793   8.142   1.189   0.521  0.0887 -0.6955  0.4143
 5387SOL    HW218794   8.170   1.040   0.530  0.8170 -0.5260  1.0090
 5388SOL     OW18795   9.104   1.376   3.621 -0.6626 -1.0071  0.2371
 5388SOL    HW118796   9.011   1.380   3.601 -0.8572 -1.0178  1.0750
 5388SOL    HW218797   9.133   1.467   3.623 -0.6123 -1.0112 -0.1846
 5389SOL     OW18798   3.935   5.450   0.774  0.2554 -1.2162  0.1845
 5389SOL    HW118799   3.855   5.431   0.725 -0.3441 -0.2050  0.7402
 5389SOL    HW218800   3.920   5.412   0.861 -0.9292  1.5507  1.2879
 5390SOL     OW18801   1.634   7.034   1.488 -0.4076 -0.3255  0.2978
 5390SOL    HW118802   1.564   7.039   1.423 -1.3174  0.4654  1.3032
 5390SOL    HW218803   1.706   6.988   1.443 -0.0568  2.2914 -2.0791
 5391SOL     OW18804   8.406   7.938   9.318 -0.4318 -0.0441 -0.3155
 5391SOL    HW118805   8.462   7.967   9.246 -0.9019  3.4509  0.5470
 5391SOL    HW218806   8.317   7.954   9.288 -0.6470  1.1123  0.8341
 5392SOL     OW18807   1.357   3.671   4.302 -0.1019  0.5572  0.1059
 5392SOL    HW118808   1.297   3.607   4.340  0.0075  0.7400  0.6026
 5392SOL    HW218809   1.443   3.628   4.307  0.0071  0.8308  0.6611
 5393SOL     OW18810   8.057   3.566   1.326  0.1479 -0.2105  0.1015
 5393SOL    HW118811   8.140   3.602   1.293  0.5542  0.2439  1.5743
 5393SOL    HW218812   7.991   3.596   1.263  0.7124  1.7050  0.3753
 5394SOL     OW18813   0.619   8.542   4.878 -0.3005  0.0110 -0.2415
 5394SOL    HW118814   0.581   8.602   4.812 -1.0321 -1.6188 -1.3753
 5394SOL    HW218815   0.650   8.468   4.827  1.4721 -0.1867  1.0429
 5395SOL     OW18816   8.497   7.667   6.235  0.2399 -0.1131  0.0581
 5395SOL    HW118817   8.446   7.714   6.169  2.0668 -0.5576 -1.7897
 5395SOL    HW218818   8.510   7.580   6.198  0.2940 -0.7866  1.5906
 5396SOL     OW18819   1.879   4.087   6.449  0.4678  0.4615 -0.0452
 5396SOL    HW118820   1.863   3.992   6.453  0.9982  0.3994  0.9940
 5396SOL    HW218821   1.822   4.123   6.517  1.4821  0.7014  0.6908
 5397SOL     OW18822   6.659   7.248   4.651 -0.2219 -0.1182 -0.4841
 5397SOL    HW118823   6.567   7.244   4.626 -0.0042  0.6330 -1.4537
 5397SOL    HW218824   6.669   7.331   4.697 -0.3062 -0.8361  0.9031
 5398SOL     OW18825   3.899   3.949   9.034 -0.4798 -0.0402  0.5535
 5398SOL    HW118826   3.904   3.854   9.021 -1.5913 -0.0993  0.4794
 5398SOL    HW218827   3.814   3.963   9.074  0.3909  0.7660  2.2085
 5399SOL     OW18828   9.108   5.208   0.775 -0.7282  0.1634  0.0162
 5399SOL    HW118829   9.151   5.154   0.842  0.0999  0.4120 -0.3101
 5399SOL    HW218830   9.082   5.287   0.821 -0.0683  0.3771  0.0217
 5400SOL     OW18831   7.276   1.394   1.013 -0.5041  0.5894  0.1101
 5400SOL    HW118832   7.190   1.433   0.997 -0.0101  1.4577 -0.5121
 5400SOL    HW218833   7.318   1.453   1.075  0.2891  1.1315 -0.9147
 5401SOL     OW18834   5.269   9.914   6.302 -0.0368  0.0379 -0.4022
 5401SOL    HW118835   5.244   9.827   6.271  1.0198 -1.0204  1.5257
 5401SOL    HW218836   5.186   9.956   6.326 -0.5885 -0.2536 -1.7002
 5402SOL     OW18837   7.462   8.532   9.954  0.5610 -0.4408  0.2627
 5402SOL    HW118838   7.374   8.495   9.943  0.7187 -0.3352 -1.7359
 5402SOL    HW218839   7.497   8.490  10.032 -1.6883  0.3989  1.8165
 5403SOL     OW18840   1.869   4.753   7.285 -0.0089  0.0170 -0.3613
 5403SOL    HW118841   1.864   4.776   7.378  0.8004  0.0423 -0.3186
 5403SOL    HW218842   1.849   4.659   7.283  3.6377 -0.9129  0.3261
 5404SOL     OW18843   7.158   1.881   7.011  0.3108 -0.6121  0.0665
 5404SOL    HW118844   7.141   1.895   7.104 -1.0390  1.2482 -0.4105
 5404SOL    HW218845   7.104   1.946   6.967  1.2503 -1.1747 -2.0175
 5405SOL     OW18846   1.076  10.333   7.699 -0.0270 -0.3748  0.0218
 5405SOL    HW118847   1.076  10.368   7.788 -0.8897  0.4916 -0.3015
 5405SOL    HW218848   0.991  10.289   7.691 -1.0053  1.5864 -1.1085
 5406SOL     OW18849   9.092   9.693   2.556 -0.4021  0.3596 -0.6111
 5406SOL    HW118850   9.071   9.785   2.542 -2.2067  0.1956  0.7080
 5406SOL    HW218851   9.063   9.675   2.646 -0.8293 -1.6865 -1.1056
 5407SOL     OW18852   9.757   6.347   1.590  0.5658 -0.1778 -0.4673
 5407SOL    HW118853   9.681   6.369   1.644  0.3856 -1.7031 -0.0520
 5407SOL    HW218854   9.813   6.294   1.647  0.9132 -0.8667 -1.4222
 5408SOL     OW18855   0.438   7.834   2.700  0.0623  0.8024 -0.3235
 5408SOL    HW118856   0.486   7.864   2.623  0.3573  0.0972 -0.4255
 5408SOL    HW218857   0.458   7.740   2.705  0.6973  0.9901  1.0838
 5409SOL     OW18858   7.154   4.672   5.184 -0.0268  0.1946  0.0576
 5409SOL    HW118859   7.100   4.708   5.113  1.1219 -1.0380 -1.5068
 5409SOL    HW218860   7.095   4.610   5.229 -0.1780 -0.5227 -1.1050
 5410SOL     OW18861   7.659   3.469   4.634  0.4064 -0.0765  0.4471
 5410SOL    HW118862   7.720   3.483   4.562 -0.3422  0.7853 -0.0414
 5410SOL    HW218863   7.645   3.374   4.637  0.0809 -0.0816 -0.8561
 5411SOL     OW18864   7.978   3.395   3.131 -0.0973 -0.2049 -0.6075
 5411SOL    HW118865   8.032   3.454   3.184  0.2202 -1.1982  0.2143
 5411SOL    HW218866   7.892   3.397   3.173 -0.0940 -0.2946 -0.5955
 5412SOL     OW18867  10.220   4.713   0.414 -0.1174  0.0302  0.3382
 5412SOL    HW118868  10.144   4.765   0.441 -0.5813 -0.1902 -0.5088
 5412SOL    HW218869  10.294   4.773   0.424 -0.2940  0.0394  1.8242
 5413SOL     OW18870   4.918   8.988   8.109 -0.1148  0.0182 -0.1353
 5413SOL    HW118871   4.963   8.910   8.142  1.2529  0.9754  0.3609
 5413SOL    HW218872   4.959   9.006   8.024 -1.5190 -0.6766 -0.9975
 5414SOL     OW18873   9.762   1.391   2.031  0.4918 -0.2280 -0.3231
 5414SOL    HW118874   9.764   1.388   1.936  2.3250  1.1449 -0.3713
 5414SOL    HW218875   9.822   1.461   2.055  0.5427 -0.9321  1.8756
 5415SOL     OW18876   3.438  10.333   4.324 -0.6955  0.2594 -0.4093
 5415SOL    HW118877   3.455  10.427   4.323 -2.6011  0.6770 -1.8929
 5415SOL    HW218878   3.499  10.296   4.260 -0.5915  0.6449 -0.5306
 5416SOL     OW18879   6.633   8.062   1.758  0.0152 -0.2657 -0.5573
 5416SOL    HW118880   6.551   8.023   1.729 -1.0147  0.7887  0.7515
 5416SOL    HW218881   6.610   8.154   1.776  0.3089 -0.8873  4.0273
 5417SOL     OW18882   4.268   2.079   4.829  0.6107  0.0935 -0.0132
 5417SOL    HW118883   4.355   2.050   4.855  1.1906  1.1503 -0.7068
 5417SOL    HW218884   4.254   2.040   4.743  1.5898  2.1292 -1.1659
 5418SOL     OW18885   0.262   8.324   8.435 -0.8882  0.4413 -0.2943
 5418SOL    HW118886   0.246   8.335   8.529  0.7443  1.2794 -0.0798
 5418SOL    HW218887   0.346   8.279   8.430  0.1505  2.3886 -1.3453
 5419SOL     OW18888  10.052   4.498   7.611 -0.0519  0.0897  0.0387
 5419SOL    HW118889   9.987   4.432   7.636 -0.2824  0.4558  0.4202
 5419SOL    HW218890  10.017   4.581   7.645  0.6656  0.2760  0.3490
 5420SOL     OW18891   8.825   1.003   3.056 -0.1349  0.2778 -0.4481
 5420SOL    HW118892   8.871   1.085   3.039 -0.5278  0.4818 -0.5419
 5420SOL    HW218893   8.807   0.967   2.969  1.0268 -0.4746 -0.3961
 5421SOL     OW18894   8.100   1.888   2.588  0.3971  0.7440 -0.2426
 5421SOL    HW118895   8.017   1.934   2.576  0.6640  1.0850 -0.7721
 5421SOL    HW218896   8.148   1.940   2.652 -0.5039 -0.3963  1.4400
 5422SOL     OW18897   8.897   9.936   1.790 -0.0803  0.2315 -0.4535
 5422SOL    HW118898   8.984   9.972   1.772  0.3490 -1.3429 -1.7863
 5422SOL    HW218899   8.906   9.895   1.877  0.0520  1.3507  0.0756
 5423SOL     OW18900   4.966   6.283   4.591 -0.2168 -0.0228  0.0641
 5423SOL    HW118901   4.953   6.299   4.498 -2.3050  3.1486  0.7296
 5423SOL    HW218902   4.899   6.218   4.614 -1.0005  0.6016 -0.3735
 5424SOL     OW18903   4.359   2.567  10.255 -0.4548  0.0224  0.3143
 5424SOL    HW118904   4.294   2.550  10.323 -0.8543 -1.0784 -0.3134
 5424SOL    HW218905   4.367   2.662  10.252 -0.6838  0.0992  1.6467
 5425SOL     OW18906   1.039   7.539   9.786 -0.0824  0.0700 -0.1282
 5425SOL    HW118907   1.086   7.456   9.783  0.0993  0.1805 -2.6572
 5425SOL    HW218908   0.965   7.526   9.727 -0.6065  1.4027  0.2033
 5426SOL     OW18909   1.389   9.076   9.745 -0.4284  0.1494 -0.1962
 5426SOL    HW118910   1.358   9.060   9.834 -0.8625  0.7828 -0.2250
 5426SOL    HW218911   1.465   9.019   9.736  0.2786  0.8519  0.9600
 5427SOL     OW18912   0.654   1.018   6.740 -0.0453  0.2578  0.5031
 5427SOL    HW118913   0.609   1.011   6.655  0.3186 -0.8841  0.3880
 5427SOL    HW218914   0.642   0.932   6.780  0.0681  0.6870  1.4779
 5428SOL     OW18915   1.518   9.051   7.789  0.2100  0.0831 -0.3341
 5428SOL    HW118916   1.583   8.996   7.833 -1.4815 -1.0776  0.8202
 5428SOL    HW218917   1.547   9.141   7.806  0.6523 -0.3708  1.5328
 5429SOL     OW18918   6.106   9.555   3.537  0.4060  0.2368  0.0609
 5429SOL    HW118919   6.140   9.478   3.582 -0.0307 -0.9469 -1.5358
 5429SOL    HW218920   6.168   9.625   3.559  1.4306 -0.8198  0.6731
 5430SOL     OW18921   7.185   0.842   1.258  0.6181  0.0977 -0.7535
 5430SOL    HW118922   7.199   0.929   1.221 -1.9491 -0.1604 -2.6171
 5430SOL    HW218923   7.093   0.841   1.283  0.1504 -2.4981 -2.1717
 5431SOL     OW18924   0.100   4.889   3.362  0.5322 -0.8229 -0.1836
 5431SOL    HW118925   0.177   4.941   3.338 -0.2723  0.5778  0.1587
 5431SOL    HW218926   0.134   4.823   3.422  1.5006 -0.3191 -0.1478
 5432SOL     OW18927   0.342   3.495   8.155  0.0620 -0.0126  0.1009
 5432SOL    HW118928   0.350   3.435   8.082 -0.8422  0.1248 -0.1202
 5432SOL    HW218929   0.425   3.485   8.203  0.3133 -0.7219 -0.4565
 5433SOL     OW18930   9.346   3.193   1.121  0.2642 -0.2856  0.4026
 5433SOL    HW118931   9.366   3.286   1.110  0.3975 -0.3195  0.3499
 5433SOL    HW218932   9.425   3.148   1.091 -0.6543 -0.5063 -1.9031
 5434SOL     OW18933   2.858   3.141   9.869 -0.3647 -0.3757 -0.3510
 5434SOL    HW118934   2.798   3.069   9.848  0.5161 -1.2278 -0.0419
 5434SOL    HW218935   2.904   3.111   9.947 -1.6652  1.5694  1.2631
 5435SOL     OW18936   8.341   7.043   7.244 -0.4270 -0.1309  0.2957
 5435SOL    HW118937   8.262   7.073   7.198 -0.1051 -1.2351 -1.0110
 5435SOL    HW218938   8.324   7.067   7.336 -1.8614  0.5104 -0.0933
 5436SOL     OW18939   2.880   9.860   3.535  0.0865  0.6576  0.0550
 5436SOL    HW118940   2.936   9.862   3.458 -0.4615 -0.3427 -0.3938
 5436SOL    HW218941   2.936   9.825   3.604  0.2410  0.4042 -0.1983
 5437SOL     OW18942   0.506   0.877   9.664  0.6165 -0.1893 -0.0493
 5437SOL    HW118943   0.421   0.908   9.694 -0.7509 -1.4462 -2.3956
 5437SOL    HW218944   0.522   0.798   9.714  0.2865 -0.0984  0.2047
 5438SOL     OW18945   7.136   9.220   0.490  0.3159  0.8073  0.0356
 5438SOL    HW118946   7.205   9.223   0.425 -0.2247 -0.1301 -0.5964
 5438SOL    HW218947   7.069   9.163   0.452  0.2407 -0.2403  1.6476
 5439SOL     OW18948   7.423   1.893   7.913  0.4281  0.4744 -0.4737
 5439SOL    HW118949   7.349   1.832   7.915 -0.2909  1.2996 -1.2028
 5439SOL    HW218950   7.484   1.856   7.850  1.3741 -0.9944  1.2035
 5440SOL     OW18951   3.545   6.911   8.030  0.1174  0.4043 -0.2007
 5440SOL    HW118952   3.551   6.844   8.098 -0.1565 -0.1623 -0.7293
 5440SOL    HW218953   3.540   6.862   7.948  0.3685  1.0774 -0.6307
 5441SOL     OW18954   4.810   1.001   4.880 -0.0997 -0.6021 -0.0563
 5441SOL    HW118955   4.833   1.044   4.962 -0.5683 -1.2865  0.4493
 5441SOL    HW218956   4.717   0.980   4.890  0.2449 -2.2632 -0.0213
 5442SOL     OW18957   9.282   6.924   9.300 -0.5322  0.6013 -0.1452
 5442SOL    HW118958   9.270   6.981   9.225 -0.0449  0.9947  0.0703
 5442SOL    HW218959   9.290   6.836   9.263  4.0581  1.1392 -1.0115
 5443SOL     OW18960   2.210   7.759   4.903  0.4224 -0.0468 -0.3647
 5443SOL    HW118961   2.304   7.756   4.884  0.1972 -0.9094 -1.4353
 5443SOL    HW218962   2.205   7.785   4.995  1.7270 -0.5077 -0.1434
 5444SOL     OW18963   1.980   3.829   7.088 -0.3467 -0.1553  0.0711
 5444SOL    HW118964   1.919   3.841   7.161  1.0471  0.6142  1.1370
 5444SOL    HW218965   2.056   3.882   7.110  0.4090 -0.4695 -1.6131
 5445SOL     OW18966   5.434   1.352   2.418  0.7215 -0.6909  0.3687
 5445SOL    HW118967   5.398   1.429   2.374  0.6296 -1.3641 -0.7958
 5445SOL    HW218968   5.524   1.376   2.439 -0.0247  0.6209  2.3364
 5446SOL     OW18969   5.388   9.181   8.613 -0.1524 -0.0676  0.5036
 5446SOL    HW118970   5.361   9.263   8.653  0.1312  0.7156 -0.8371
 5446SOL    HW218971   5.484   9.186   8.609 -0.1754 -0.1140 -0.2796
 5447SOL     OW18972   4.081   5.081   5.354  0.4173  0.6415  0.0504
 5447SOL    HW118973   4.059   5.168   5.390  0.0655 -0.1108  1.7818
 5447SOL    HW218974   4.060   5.021   5.425  0.0870 -0.9362 -1.3325
 5448SOL     OW18975   0.061   9.678  10.337  0.4930 -0.1520  0.0585
 5448SOL    HW118976   0.089   9.620  10.267  1.3714  2.3469 -1.8057
 5448SOL    HW218977   0.001   9.739  10.295 -0.0459  0.5986  1.8237
 5449SOL     OW18978   1.730   8.211   1.549  0.2859  0.7508  0.0513
 5449SOL    HW118979   1.725   8.306   1.538 -0.0139  0.6294 -1.0237
 5449SOL    HW218980   1.639   8.183   1.564  0.2875  0.5733 -0.2563
 5450SOL     OW18981   5.522   7.699   2.941  0.4377  0.2034 -0.1456
 5450SOL    HW118982   5.509   7.679   2.848 -1.8336  1.4838 -0.1813
 5450SOL    HW218983   5.497   7.792   2.949  1.2155  0.2946  1.6399
 5451SOL     OW18984   5.377   6.199   3.338  0.2270  0.6127 -0.3513
 5451SOL    HW118985   5.300   6.182   3.283  0.5504 -1.1572 -0.3260
 5451SOL    HW218986   5.360   6.151   3.419  1.6658 -0.4699 -0.6462
 5452SOL     OW18987   6.396   3.590   0.840  0.2693  0.0888 -0.3799
 5452SOL    HW118988   6.339   3.520   0.869  0.5759  0.0836  0.2338
 5452SOL    HW218989   6.339   3.650   0.792 -0.2161  0.0006  0.0827
 5453SOL     OW18990   1.001   8.551   0.776 -0.1728  0.2484 -0.1493
 5453SOL    HW118991   0.986   8.477   0.717  0.4808 -2.1445  2.4585
 5453SOL    HW218992   1.095   8.569   0.768  0.2003 -1.0082  1.0931
 5454SOL     OW18993   2.879   2.143   1.489 -0.2585  0.8143  0.1718
 5454SOL    HW118994   2.843   2.065   1.446 -1.3735  0.5921  1.4216
 5454SOL    HW218995   2.818   2.213   1.467  0.2594  1.1388 -0.2307
 5455SOL     OW18996   0.848   8.619   9.831  0.5592  0.4129 -0.4427
 5455SOL    HW118997   0.796   8.648   9.905 -1.1555  2.1151 -2.2063
 5455SOL    HW218998   0.885   8.699   9.794  3.0207 -0.5784 -0.3377
 5456SOL     OW18999   1.839   7.955   3.186 -0.2984  0.1294  0.0940
 5456SOL    HW119000   1.773   7.957   3.116 -1.6152 -2.2796  1.1347
 5456SOL    HW219001   1.904   8.020   3.160 -0.9875 -0.3158 -3.0917
 5457SOL     OW19002   1.906   5.725   2.919  0.3248  0.2504 -0.1782
 5457SOL    HW119003   1.858   5.799   2.882 -1.5852 -1.1385 -0.6293
 5457SOL    HW219004   1.861   5.706   3.002  0.2716 -0.8793 -0.4496
 5458SOL     OW19005   1.394   0.669   2.794  0.9179 -0.4283 -0.0339
 5458SOL    HW119006   1.377   0.575   2.784  0.6717 -0.4820  0.7685
 5458SOL    HW219007   1.424   0.698   2.708 -1.8954 -0.6347 -1.1892
 5459SOL     OW19008   5.409   9.427   4.170 -0.5909  0.4297  0.0528
 5459SOL    HW119009   5.423   9.495   4.236 -0.0116  0.6633 -0.2987
 5459SOL    HW219010   5.323   9.446   4.134 -0.1855  1.3604 -0.4676
 5460SOL     OW19011   1.616   6.930   4.358  0.5302  0.0746 -0.4414
 5460SOL    HW119012   1.654   7.014   4.384 -0.0335  0.3612 -0.5248
 5460SOL    HW219013   1.614   6.879   4.438 -0.0998  0.5260 -0.1565
 5461SOL     OW19014   6.685   6.198   3.419 -0.4023 -0.1101 -0.1674
 5461SOL    HW119015   6.639   6.274   3.452 -0.5095 -0.3468  0.2439
 5461SOL    HW219016   6.660   6.127   3.479  1.9021  0.1338  1.2017
 5462SOL     OW19017   7.660   5.874   1.878 -0.4957 -0.3775  0.2328
 5462SOL    HW119018   7.667   5.951   1.935 -0.3019 -0.5356  0.4276
 5462SOL    HW219019   7.605   5.902   1.805  1.7159  0.7587 -1.0873
 5463SOL     OW19020   9.865   5.394   8.914  0.2488  0.0318  0.2927
 5463SOL    HW119021   9.798   5.354   8.970  0.3996 -1.5934 -0.6373
 5463SOL    HW219022   9.942   5.339   8.925  1.4119  1.7295  1.1397
 5464SOL     OW19023   4.672   2.784   6.613 -0.3036  0.1364  0.0171
 5464SOL    HW119024   4.721   2.729   6.552 -1.8481 -1.0103 -0.2664
 5464SOL    HW219025   4.705   2.759   6.699  2.9080  2.7758 -0.2768
 5465SOL     OW19026   4.371   6.202   6.198 -0.5943 -0.0787 -0.4471
 5465SOL    HW119027   4.427   6.242   6.131  0.5780  1.1052  1.1502
 5465SOL    HW219028   4.418   6.122   6.222  1.1087  1.4152  1.6180
 5466SOL     OW19029   7.374   0.539   5.847  0.2680 -0.1012  0.4825
 5466SOL    HW119030   7.393   0.452   5.882  0.0292 -0.5885 -0.5502
 5466SOL    HW219031   7.364   0.595   5.924  0.2808 -1.0172  1.1626
 5467SOL     OW19032   8.018  10.261   2.637  0.4889  0.8420 -0.4211
 5467SOL    HW119033   8.017  10.357   2.643 -0.1901  0.7783  0.7742
 5467SOL    HW219034   8.089  10.233   2.694  0.5672  0.6312 -0.6213
 5468SOL     OW19035   9.402   8.201   2.740  0.0861  0.3157  0.4201
 5468SOL    HW119036   9.380   8.109   2.757 -0.7838  0.1475 -1.4221
 5468SOL    HW219037   9.327   8.250   2.775  0.3638  0.3085  1.0386
 5469SOL     OW19038   2.174   6.448   3.896  0.0556 -0.1354 -0.2980
 5469SOL    HW119039   2.200   6.356   3.896  0.5251 -0.0503  1.3560
 5469SOL    HW219040   2.250   6.495   3.860 -0.4402 -0.4328 -1.7649
 5470SOL     OW19041   7.169   7.594   1.596  0.1683  0.2779  0.0853
 5470SOL    HW119042   7.155   7.685   1.623 -2.9654 -0.0916  0.0258
 5470SOL    HW219043   7.163   7.544   1.677 -0.7553 -0.0912 -0.2028
 5471SOL     OW19044   7.545   7.191   9.842 -0.0777 -0.1739  0.0528
 5471SOL    HW119045   7.540   7.204   9.747  0.5445 -0.8363 -0.0806
 5471SOL    HW219046   7.628   7.231   9.867 -1.0822  1.6923  0.6417
 5472SOL     OW19047   6.102   2.359   2.017 -0.1755 -0.6168 -0.3947
 5472SOL    HW119048   6.068   2.429   1.963  0.8542  0.1204 -0.1254
 5472SOL    HW219049   6.066   2.279   1.979 -0.1427 -0.0574 -1.6504
 5473SOL     OW19050   0.569   2.631   4.224 -0.1866  0.5692  0.2669
 5473SOL    HW119051   0.526   2.613   4.140 -1.2662  0.3298  0.8648
 5473SOL    HW219052   0.648   2.680   4.200 -0.9503  1.2895 -0.8186
 5474SOL     OW19053   9.958   0.976  10.312  0.3507  0.0218 -0.1958
 5474SOL    HW119054  10.022   1.040  10.344  1.6254 -1.4465  0.3244
 5474SOL    HW219055   9.938   0.922  10.388 -0.5408 -0.3347 -0.6726
 5475SOL     OW19056  10.196   5.841   4.941  0.2480  0.1409  0.2758
 5475SOL    HW119057  10.225   5.844   4.850 -0.7236 -1.1516 -0.0967
 5475SOL    HW219058  10.174   5.932   4.962  0.8797  0.5156 -0.6457
 5476SOL     OW19059   5.879   4.143   0.535 -0.1987  0.3414 -0.1770
 5476SOL    HW119060   5.934   4.108   0.605 -0.1655  0.2799 -0.2339
 5476SOL    HW219061   5.929   4.216   0.498  0.2978 -0.3543 -0.9051
 5477SOL     OW19062   1.970   7.506   2.162  0.0661  0.2478  0.2619
 5477SOL    HW119063   2.016   7.537   2.085  2.5691 -0.9994  1.1547
 5477SOL    HW219064   1.878   7.524   2.144  0.5784  0.2012 -2.8853
 5478SOL     OW19065   0.683   9.925   5.653 -0.3881 -0.2882 -0.1180
 5478SOL    HW119066   0.697   9.832   5.670 -0.6345 -0.4405 -0.7288
 5478SOL    HW219067   0.703   9.968   5.736 -0.9732 -0.9577  0.3815
 5479SOL     OW19068   1.979   8.811   5.769  0.1892 -0.2148  0.2337
 5479SOL    HW119069   2.007   8.887   5.819 -1.2157 -0.0521  0.8250
 5479SOL    HW219070   2.060   8.770   5.740  1.0006  0.5978  1.2677
 5480SOL     OW19071   0.787   2.532   4.903 -0.4359  0.1518  0.0082
 5480SOL    HW119072   0.826   2.444   4.905 -1.2588 -0.2265 -0.1007
 5480SOL    HW219073   0.860   2.590   4.882 -0.2913 -0.7795 -2.3736
 5481SOL     OW19074   5.563   1.431   7.655  0.3827 -0.0898 -0.2879
 5481SOL    HW119075   5.500   1.467   7.718  1.7628  1.0854  0.5036
 5481SOL    HW219076   5.543   1.476   7.573  0.6728  0.9066  0.1608
 5482SOL     OW19077   8.398   3.444   6.788  0.1541  0.2118 -0.2845
 5482SOL    HW119078   8.316   3.410   6.752  0.4091  0.0386 -0.7105
 5482SOL    HW219079   8.437   3.369   6.833  0.7783 -0.1058 -1.3341
 5483SOL     OW19080   2.412   2.577   0.653  0.0458 -0.6371 -0.7777
 5483SOL    HW119081   2.319   2.582   0.632  0.1474 -0.1327 -1.1113
 5483SOL    HW219082   2.450   2.524   0.583 -0.2743 -2.3816  0.3149
 5484SOL     OW19083   9.511   6.843   2.069 -0.1686  0.2311  0.2722
 5484SOL    HW119084   9.589   6.841   2.125  0.5174 -2.6051 -0.5886
 5484SOL    HW219085   9.447   6.894   2.118  0.8795 -0.9084  3.0295
 5485SOL     OW19086   3.498   9.111   3.133 -0.3206  0.2527  0.1380
 5485SOL    HW119087   3.555   9.038   3.159  0.8754  0.9397 -0.4485
 5485SOL    HW219088   3.550   9.189   3.151 -1.1292  0.9175 -0.3414
 5486SOL     OW19089   3.478   3.697   2.461  0.0376 -0.2181  0.1436
 5486SOL    HW119090   3.504   3.775   2.412  1.5107  0.0661  1.3105
 5486SOL    HW219091   3.513   3.624   2.410 -0.5865 -0.0786 -0.4961
 5487SOL     OW19092   6.794   2.876   6.770 -0.1350 -0.7136  0.0544
 5487SOL    HW119093   6.794   2.810   6.840 -0.0650  0.3352  1.0771
 5487SOL    HW219094   6.882   2.871   6.733  1.1610  1.2799  2.5948
 5488SOL     OW19095   3.038   7.444   0.472 -0.0026  0.0860  0.4595
 5488SOL    HW119096   3.106   7.489   0.423 -0.9802  1.3377  0.2013
 5488SOL    HW219097   3.085   7.384   0.531  1.3935  2.0672  1.4423
 5489SOL     OW19098   9.899   5.470   2.933  0.0582 -0.1161  0.4314
 5489SOL    HW119099   9.833   5.430   2.990  0.8039 -0.0213  1.3942
 5489SOL    HW219100   9.939   5.396   2.887 -0.9915 -0.1347 -0.4744
 5490SOL     OW19101   0.255   0.982   9.730  0.0955 -0.1553 -0.1918
 5490SOL    HW119102   0.181   1.011   9.677 -0.6017 -0.1589  0.7556
 5490SOL    HW219103   0.229   0.897   9.764 -0.0453  0.4307  1.2325
 5491SOL     OW19104   4.881   9.516   7.975  0.7848 -0.3740 -0.8265
 5491SOL    HW119105   4.835   9.560   8.047  0.6937 -1.0483 -0.4544
 5491SOL    HW219106   4.835   9.543   7.896 -1.3861 -2.3300 -0.3472
 5492SOL     OW19107   5.766   9.316   7.011  0.1478  0.2845 -0.1349
 5492SOL    HW119108   5.683   9.274   7.033  0.1902 -0.4320 -1.2333
 5492SOL    HW219109   5.818   9.310   7.091 -1.1239  1.4605  0.8207
 5493SOL     OW19110   5.959   6.276   3.947  0.5871 -0.0022  0.8168
 5493SOL    HW119111   5.867   6.250   3.938  0.6470 -0.7151  2.0568
 5493SOL    HW219112   6.007   6.219   3.887  0.4290 -1.0447  1.6482
 5494SOL     OW19113   4.901   3.248   8.785  0.2525  0.2989 -0.5697
 5494SOL    HW119114   4.994   3.226   8.780  1.0667  3.1615  0.0331
 5494SOL    HW219115   4.895   3.337   8.748 -2.5877 -0.4994 -2.3288
 5495SOL     OW19116   0.269   3.735   6.149 -0.0750  0.2787 -0.0894
 5495SOL    HW119117   0.334   3.693   6.092  0.5653 -0.5404  1.1899
 5495SOL    HW219118   0.270   3.827   6.122 -1.5953 -0.4482 -3.0441
 5496SOL     OW19119   8.198   3.762   7.903 -0.5461 -0.5958  0.1596
 5496SOL    HW119120   8.142   3.781   7.978 -0.2320 -0.9169  0.4734
 5496SOL    HW219121   8.287   3.759   7.938 -0.3744 -0.5261 -0.2628
 5497SOL     OW19122   2.085   0.894   4.911 -0.5789 -0.4693 -0.4331
 5497SOL    HW119123   2.126   0.947   4.843  0.3057  0.3997  0.7358
 5497SOL    HW219124   2.006   0.859   4.870 -0.3161  0.4096 -1.7462
 5498SOL     OW19125   8.024   9.450   0.423  0.0209 -0.0551  0.6622
 5498SOL    HW119126   8.070   9.372   0.392  1.7833  0.3676  2.0896
 5498SOL    HW219127   7.931   9.427   0.417  0.3457 -1.0369 -2.0369
 5499SOL     OW19128   7.176   4.046   3.551  0.5331 -0.5526  0.3002
 5499SOL    HW119129   7.141   4.126   3.512  0.4439 -1.1566 -0.9090
 5499SOL    HW219130   7.269   4.065   3.566  0.2381  0.2099  1.2269
 5500SOL     OW19131   0.979   5.765   1.716 -0.6874 -0.1562  0.1046
 5500SOL    HW119132   0.947   5.773   1.806 -1.2596  0.6593 -0.1568
 5500SOL    HW219133   1.021   5.680   1.713 -1.0514 -0.3819  1.0283
 5501SOL     OW19134   8.982   6.242   1.509  0.4048  0.5064 -0.0717
 5501SOL    HW119135   8.972   6.329   1.547 -0.7951  0.9677 -1.3827
 5501SOL    HW219136   9.077   6.227   1.509  0.5744  1.3994  1.0198
 5502SOL     OW19137   6.945   7.556   6.125  0.3634  0.6485 -0.1164
 5502SOL    HW119138   6.943   7.584   6.217  1.3438  0.3731  0.0003
 5502SOL    HW219139   6.901   7.472   6.124 -0.2251  0.9494 -0.0135
 5503SOL     OW19140   6.272   9.329   6.785 -0.2151  0.3973 -0.2366
 5503SOL    HW119141   6.231   9.395   6.841  1.1765  0.8343  0.3136
 5503SOL    HW219142   6.257   9.247   6.831 -0.0538  0.6085  0.1972
 5504SOL     OW19143   9.216   2.204   3.054  0.4668 -0.7955  0.6431
 5504SOL    HW119144   9.282   2.135   3.049  1.4871 -0.0002  2.1791
 5504SOL    HW219145   9.221   2.249   2.969  0.6785 -1.8038  0.1120
 5505SOL     OW19146   2.506   0.410   1.939  0.1608  0.3279 -0.0433
 5505SOL    HW119147   2.491   0.322   1.973  1.3085  0.3770  0.6510
 5505SOL    HW219148   2.594   0.407   1.902  0.1372  1.1278 -0.1936
 5506SOL     OW19149   9.690   3.099   7.450  0.4416 -0.2521  0.0385
 5506SOL    HW119150   9.752   3.067   7.516  1.2988  0.9506 -0.1536
 5506SOL    HW219151   9.740   3.099   7.368 -0.4477 -1.1993 -0.5312
 5507SOL     OW19152   2.850   0.627   2.784 -0.2194 -0.6187  0.2814
 5507SOL    HW119153   2.816   0.629   2.874  0.9347  0.3026  0.7321
 5507SOL    HW219154   2.840   0.536   2.757  1.2763 -1.4260  2.1337
 5508SOL     OW19155   1.605   4.149  10.084 -0.3998  0.8109 -0.5780
 5508SOL    HW119156   1.624   4.230  10.131 -1.8380  1.0914 -0.4574
 5508SOL    HW219157   1.660   4.153  10.006  1.5524  0.6441  0.7119
 5509SOL     OW19158   8.971   5.078   8.978  0.1252 -0.2663 -0.6567
 5509SOL    HW119159   9.029   5.015   9.022 -0.2672 -0.2760 -0.1533
 5509SOL    HW219160   8.995   5.071   8.886  2.1166  0.9482 -0.2778
 5510SOL     OW19161   8.099   9.425   8.170 -0.0324 -0.2208  0.1680
 5510SOL    HW119162   8.009   9.427   8.137  0.0190 -2.4454 -0.2513
 5510SOL    HW219163   8.090   9.416   8.265 -0.2058  1.3835  0.3289
 5511SOL     OW19164   3.356   8.304   1.860 -0.1170 -0.0110 -0.1064
 5511SOL    HW119165   3.362   8.368   1.930 -0.9403 -0.2027  0.1542
 5511SOL    HW219166   3.262   8.289   1.849 -0.0055 -0.0066 -1.2304
 5512SOL     OW19167   0.842  10.192   1.079 -0.1328  0.4176 -0.2326
 5512SOL    HW119168   0.852  10.287   1.089  0.5697  0.5290 -1.6588
 5512SOL    HW219169   0.930  10.161   1.056 -0.4358 -0.5177 -0.1667
 5513SOL     OW19170   1.331   9.465   8.468 -0.0869 -0.1623 -0.3544
 5513SOL    HW119171   1.423   9.490   8.475 -0.2095  0.0501  0.5856
 5513SOL    HW219172   1.328   9.375   8.500 -0.2881  0.0276  0.1758
 5514SOL     OW19173   1.086   0.362   3.070 -0.7317 -0.4257 -0.0769
 5514SOL    HW119174   1.179   0.367   3.051 -0.5832 -0.8707  0.4737
 5514SOL    HW219175   1.077   0.404   3.156 -0.3148 -4.0352  1.9560
 5515SOL     OW19176   8.701   0.973   3.737  0.2822 -0.4329 -0.0784
 5515SOL    HW119177   8.684   1.035   3.667  2.2488  1.8251  1.2677
 5515SOL    HW219178   8.747   0.900   3.694 -2.5514 -1.3546 -1.7796
 5516SOL     OW19179   6.587   1.952   9.936  0.2362  0.2547  0.0510
 5516SOL    HW119180   6.558   2.043   9.935  1.6352  0.7212 -0.5511
 5516SOL    HW219181   6.664   1.950   9.879  1.6794 -0.7973  1.9103
 5517SOL     OW19182   1.228   8.137   2.629  0.4389 -0.1132  0.5185
 5517SOL    HW119183   1.203   8.089   2.708  1.9108 -0.5404  0.7531
 5517SOL    HW219184   1.276   8.073   2.576  0.1621  0.3892 -0.3661
 5518SOL     OW19185  10.167   7.420   0.619 -0.3132  0.0627  0.1523
 5518SOL    HW119186  10.108   7.490   0.648 -0.2588 -0.6701  2.2142
 5518SOL    HW219187  10.254   7.461   0.616 -0.4072  0.2934  0.5378
 5519SOL     OW19188   9.222   0.202   8.782 -0.3719  0.0783  0.4321
 5519SOL    HW119189   9.204   0.192   8.688  0.8462  0.7635  0.1094
 5519SOL    HW219190   9.216   0.296   8.798  0.6519  0.1010  0.7601
 5520SOL     OW19191   5.577   9.031   9.969  0.2160 -0.5902 -0.0907
 5520SOL    HW119192   5.493   9.050   9.928  0.8350  0.9956 -0.6894
 5520SOL    HW219193   5.637   9.015   9.895  0.7950 -0.1167  0.2681
 5521SOL     OW19194   7.843   1.835   1.365  0.3226  0.5269 -0.1208
 5521SOL    HW119195   7.915   1.881   1.406  0.9500  0.6017 -1.2705
 5521SOL    HW219196   7.765   1.884   1.391  0.8856  1.6974 -0.5859
 5522SOL     OW19197  10.321   4.209   7.420  0.2132 -1.0666  0.2844
 5522SOL    HW119198  10.379   4.224   7.346  0.1002 -0.0119  0.3835
 5522SOL    HW219199  10.266   4.287   7.423 -0.5700 -1.6225  0.7678
 5523SOL     OW19200   1.485   8.064   8.182 -0.3571 -0.3687  0.5333
 5523SOL    HW119201   1.460   8.138   8.237 -1.3959 -0.8845  0.7902
 5523SOL    HW219202   1.555   8.098   8.126  0.5603  0.2359  1.9861
 5524SOL     OW19203   2.688   7.213   8.398 -0.2251  0.4175  0.3168
 5524SOL    HW119204   2.737   7.159   8.337 -0.0862  0.9979 -0.1009
 5524SOL    HW219205   2.714   7.303   8.376 -0.4958  0.6557  0.9495
 5525SOL     OW19206   5.432   7.972   6.000 -0.1999 -0.2387  0.3298
 5525SOL    HW119207   5.373   8.047   6.009  0.3197  0.2744 -0.4726
 5525SOL    HW219208   5.375   7.901   5.971 -0.2975  0.4922 -1.3872
 5526SOL     OW19209   3.261   2.441   7.967  0.2714  0.4002  0.2776
 5526SOL    HW119210   3.272   2.521   7.915  1.7243  0.4222  0.5588
 5526SOL    HW219211   3.311   2.375   7.919  0.4770  0.0804  0.9211
 5527SOL     OW19212   0.734   2.046   5.398  0.2987  0.4165  0.2006
 5527SOL    HW119213   0.796   2.110   5.432  2.0360 -0.7027 -0.6899
 5527SOL    HW219214   0.747   2.048   5.303 -0.8451 -0.0379  0.0189
 5528SOL     OW19215   1.775   4.113   9.832  0.1896 -0.2779  0.0791
 5528SOL    HW119216   1.809   4.038   9.882 -0.2019  0.4017  1.4228
 5528SOL    HW219217   1.700   4.078   9.785  1.4233 -1.2870 -1.2564
 5529SOL     OW19218   8.555   2.040   2.545 -0.2743  0.1824 -0.5987
 5529SOL    HW119219   8.645   2.069   2.551 -0.2782  0.5015 -1.7532
 5529SOL    HW219220   8.530   2.059   2.454 -1.6088  0.4267 -0.2026
 5530SOL     OW19221   5.348   6.190   0.364  0.8171 -0.8611  0.1405
 5530SOL    HW119222   5.281   6.163   0.427 -0.1648 -1.4788 -1.1140
 5530SOL    HW219223   5.419   6.127   0.377  0.7650 -0.7819  0.8416
 5531SOL     OW19224   3.066   6.902   5.469  0.6304  0.1925  0.6072
 5531SOL    HW119225   3.089   6.879   5.379 -1.4952 -1.5965  0.4440
 5531SOL    HW219226   3.036   6.993   5.464  0.1362 -0.0198 -0.6097
 5532SOL     OW19227   7.838   6.062   5.645 -0.3026 -0.2693 -0.0106
 5532SOL    HW119228   7.840   6.131   5.711  0.4500  0.2140 -0.5251
 5532SOL    HW219229   7.858   6.107   5.563 -1.1195 -0.8804 -0.5635
 5533SOL     OW19230   8.580   5.635   9.276  0.3389 -0.3843  0.1317
 5533SOL    HW119231   8.509   5.642   9.340 -0.9319 -1.7324 -1.0482
 5533SOL    HW219232   8.630   5.559   9.305  0.3009 -0.4470  0.0336
 5534SOL     OW19233   9.940   4.206   4.230 -0.3596 -0.4800  0.0446
 5534SOL    HW119234   9.849   4.191   4.207 -0.9469 -0.1488  1.9308
 5534SOL    HW219235   9.978   4.119   4.237 -0.1868 -0.5884 -1.8938
 5535SOL     OW19236   4.752   4.364   7.566 -0.5503  0.3128 -0.1454
 5535SOL    HW119237   4.764   4.445   7.517  0.6892  0.9261  1.0898
 5535SOL    HW219238   4.662   4.370   7.600 -0.9573  0.4887 -1.2302
 5536SOL     OW19239   7.263   2.711   0.152 -0.1747  0.0145 -0.1591
 5536SOL    HW119240   7.168   2.709   0.137 -0.2705 -1.3315  0.5138
 5536SOL    HW219241   7.276   2.781   0.216 -0.7057  0.1826 -0.2322
 5537SOL     OW19242   4.001   0.645   7.217 -0.0249  0.1588 -0.2975
 5537SOL    HW119243   4.035   0.639   7.127 -1.0665  1.0393 -0.7628
 5537SOL    HW219244   3.948   0.724   7.218 -0.0085  0.1805  1.1206
 5538SOL     OW19245   8.001   0.391   9.148  0.0780 -0.5042 -0.4832
 5538SOL    HW119246   8.034   0.349   9.068 -1.3197  0.6750 -1.7302
 5538SOL    HW219247   7.942   0.327   9.187  1.9504 -1.7156  0.5271
 5539SOL     OW19248   2.777   6.957   4.169 -0.4105  0.2269  0.3613
 5539SOL    HW119249   2.804   7.026   4.108 -0.9200  1.0737  1.0527
 5539SOL    HW219250   2.696   6.991   4.209 -0.3263 -0.4962  1.1786
 5540SOL     OW19251   8.842  10.005   5.032 -0.1227 -0.8346 -0.3163
 5540SOL    HW119252   8.748   9.991   5.021 -0.7182  3.1899 -1.8359
 5540SOL    HW219253   8.876  10.017   4.944  1.1084  1.2415  0.3701
 5541SOL     OW19254   4.503   2.174   7.824  0.0165  0.1038 -0.5115
 5541SOL    HW119255   4.482   2.265   7.802 -0.0714  0.2763  0.2497
 5541SOL    HW219256   4.491   2.169   7.919 -0.9758 -0.9617 -0.6719
 5542SOL     OW19257   3.499   0.807   1.753 -0.4202 -0.3928 -0.4923
 5542SOL    HW119258   3.470   0.727   1.709  1.8065 -3.0932  2.4498
 5542SOL    HW219259   3.564   0.846   1.694 -0.3879 -1.6484 -1.3099
 5543SOL     OW19260   5.021   8.721   4.427  0.0460  0.1200  0.4198
 5543SOL    HW119261   5.087   8.788   4.411  1.5852 -2.0150 -3.3365
 5543SOL    HW219262   5.063   8.660   4.487  0.9068 -0.3487 -0.6255
 5544SOL     OW19263   4.350   0.106   0.607  0.4168  0.2071  0.0082
 5544SOL    HW119264   4.280   0.155   0.564  0.5390  0.0795 -0.3436
 5544SOL    HW219265   4.323   0.101   0.699  0.6447  1.3542  0.1468
 5545SOL     OW19266   3.852   6.687   7.381  0.0629 -0.2776  0.0467
 5545SOL    HW119267   3.939   6.723   7.399  0.5845 -1.8635  0.9664
 5545SOL    HW219268   3.870   6.607   7.331 -0.7489 -1.2435  1.2332
 5546SOL     OW19269   0.355   2.771   2.213  0.0571 -0.2706  0.0086
 5546SOL    HW119270   0.425   2.797   2.154  0.2502 -1.0422 -0.1141
 5546SOL    HW219271   0.275   2.807   2.174  0.4538  1.3392  0.5913
 5547SOL     OW19272   7.119   1.850   0.029  0.2951 -0.0695  0.6589
 5547SOL    HW119273   7.200   1.897   0.010  0.4223 -0.0462  1.2595
 5547SOL    HW219274   7.129   1.765  -0.014  0.5502  0.0066  0.5699
 5548SOL     OW19275   3.094   4.759   7.002  0.4108 -0.0294 -0.4998
 5548SOL    HW119276   3.140   4.697   7.059 -0.2740  0.3022  0.4501
 5548SOL    HW219277   3.002   4.737   7.013  0.2878 -0.3254 -1.9494
 5549SOL     OW19278   8.870   7.953   5.667 -0.1197 -0.0636  0.4356
 5549SOL    HW119279   8.778   7.973   5.687  0.1048  0.1870  1.2768
 5549SOL    HW219280   8.876   7.858   5.676 -0.0341  0.0357  1.6049
 5550SOL     OW19281   9.166   7.844   6.615  0.1215 -0.3676  0.0281
 5550SOL    HW119282   9.149   7.876   6.527 -0.5307  2.2894  1.0304
 5550SOL    HW219283   9.230   7.905   6.652 -1.9156  0.5065  2.3982
 5551SOL     OW19284   5.155   6.669   5.507 -0.1156 -0.0866 -0.1587
 5551SOL    HW119285   5.083   6.709   5.557 -0.1673  0.5291 -0.7112
 5551SOL    HW219286   5.113   6.600   5.455 -0.4391  0.6953 -0.9715
 5552SOL     OW19287   2.391   4.424   3.754  0.0317 -0.6929  0.1093
 5552SOL    HW119288   2.389   4.477   3.674 -0.5367 -1.3534 -0.3237
 5552SOL    HW219289   2.466   4.458   3.803  1.2283 -1.1659 -1.3186
 5553SOL     OW19290   8.300   7.799   7.793  0.5335  0.1446  0.3364
 5553SOL    HW119291   8.363   7.787   7.864 -1.7527 -1.9927  2.1878
 5553SOL    HW219292   8.230   7.852   7.831 -0.2238 -0.0882 -0.6793
 5554SOL     OW19293   9.215   0.850   4.323 -0.1091  0.5976 -0.3042
 5554SOL    HW119294   9.122   0.870   4.314 -0.1617  0.1330 -0.9010
 5554SOL    HW219295   9.259   0.925   4.283 -0.2024  1.1410  0.5988
 5555SOL     OW19296   9.960   4.768   0.735 -0.0055  0.2539  0.4916
 5555SOL    HW119297   9.922   4.687   0.767  0.6716 -0.5936 -0.7669
 5555SOL    HW219298  10.050   4.767   0.766  0.0280  0.4995  0.4115
 5556SOL     OW19299   0.836   8.686   0.401 -0.0412 -0.3827  0.2602
 5556SOL    HW119300   0.854   8.605   0.449 -1.5551 -0.6004  0.5085
 5556SOL    HW219301   0.851   8.662   0.309 -2.8442 -1.7472  0.0471
 5557SOL     OW19302   3.853  10.353   2.560  0.1795  0.4852  0.2467
 5557SOL    HW119303   3.897  10.304   2.491 -1.4387 -0.1498 -0.3944
 5557SOL    HW219304   3.903  10.332   2.639  1.6420  0.6564 -0.5870
 5558SOL     OW19305   1.929   6.477   1.223  0.6447 -0.1397 -1.0381
 5558SOL    HW119306   2.003   6.510   1.274 -0.1633 -0.7089  0.5715
 5558SOL    HW219307   1.870   6.552   1.215 -0.6958 -0.7362  1.7062
 5559SOL     OW19308   0.836   5.571   5.581 -0.0725 -0.4117 -0.3352
 5559SOL    HW119309   0.925   5.569   5.618 -0.2247 -0.4541  0.0309
 5559SOL    HW219310   0.800   5.484   5.601 -0.1433 -0.4466 -0.6155
 5560SOL     OW19311   9.588   8.429   8.808 -0.3188 -0.2324 -0.4112
 5560SOL    HW119312   9.660   8.463   8.755 -0.3535 -1.0865 -1.0351
 5560SOL    HW219313   9.511   8.478   8.781  0.1251  1.1742  0.7518
 5561SOL     OW19314   8.243   6.306   4.416 -0.4217  0.3006  0.2642
 5561SOL    HW119315   8.209   6.290   4.504  1.2168 -1.0404  0.7204
 5561SOL    HW219316   8.266   6.399   4.415 -1.0131  0.4652  1.0422
 5562SOL     OW19317   1.012   5.692   6.271 -0.3264  0.4037  0.1055
 5562SOL    HW119318   0.972   5.643   6.342  1.1379 -1.0650 -0.0110
 5562SOL    HW219319   0.964   5.775   6.269 -2.1688 -0.5701  1.0286
 5563SOL     OW19320   4.128   7.393   0.982 -0.2518  0.2657  0.0076
 5563SOL    HW119321   4.199   7.420   1.040  0.9296 -0.0395 -1.2370
 5563SOL    HW219322   4.167   7.395   0.894 -1.5816 -0.6112 -0.6377
 5564SOL     OW19323   3.911   6.707   9.888 -0.1723 -0.1097 -0.0598
 5564SOL    HW119324   4.002   6.724   9.914 -0.7876  1.3584  1.2972
 5564SOL    HW219325   3.914   6.621   9.845  1.5833 -0.8540  1.4186
 5565SOL     OW19326   7.047   7.027   0.966 -0.0034  0.3608 -0.2062
 5565SOL    HW119327   6.964   6.979   0.965  0.6308 -0.8540  1.2346
 5565SOL    HW219328   7.022   7.117   0.987 -0.9723  0.0112  0.2380
 5566SOL     OW19329   7.720   8.831   0.968 -0.1138  0.8123 -0.7364
 5566SOL    HW119330   7.722   8.924   0.991  0.8089  0.7046 -0.3504
 5566SOL    HW219331   7.803   8.815   0.923  0.3534 -0.1165  0.3900
 5567SOL     OW19332   8.026   3.780   7.692 -0.1313 -0.0370  0.9471
 5567SOL    HW119333   7.991   3.858   7.735  2.6239  2.1663 -0.4794
 5567SOL    HW219334   8.098   3.752   7.749  0.2507 -0.2381  0.3664
 5568SOL     OW19335   0.307   9.068   6.220  0.4964 -0.3619 -0.0864
 5568SOL    HW119336   0.309   9.045   6.127  0.8042  1.9349 -0.7096
 5568SOL    HW219337   0.393   9.108   6.236  0.2906 -0.3753  1.0892
 5569SOL     OW19338   5.502   9.958   6.131 -0.6243 -0.1714 -0.2575
 5569SOL    HW119339   5.488  10.048   6.100 -1.7709 -1.0358 -2.4740
 5569SOL    HW219340   5.450   9.951   6.211 -2.3339  0.5194 -1.2673
 5570SOL     OW19341   2.785   6.191   1.744  0.2687 -0.7932  0.0699
 5570SOL    HW119342   2.773   6.188   1.650 -1.0642  0.7180  0.1480
 5570SOL    HW219343   2.699   6.172   1.781  0.2840  0.6018  0.9181
 5571SOL     OW19344   3.066   8.528  10.166 -0.2590 -0.2491  0.4304
 5571SOL    HW119345   3.146   8.475  10.169  0.8701  1.4143  2.7856
 5571SOL    HW219346   2.998   8.471  10.202 -0.1432 -1.6273 -1.4400
 5572SOL     OW19347   2.950   9.214   7.960 -0.4748 -0.5072 -0.7512
 5572SOL    HW119348   2.908   9.174   7.884 -2.7950  0.7035 -0.2007
 5572SOL    HW219349   2.885   9.209   8.029  0.9920 -0.1417  0.7200
 5573SOL     OW19350   4.210   4.089   6.536  0.1177 -0.1063 -0.2142
 5573SOL    HW119351   4.161   4.159   6.492 -1.9796 -0.0640  1.9810
 5573SOL    HW219352   4.259   4.047   6.465  0.1400  2.4727 -1.8875
 5574SOL     OW19353   6.253   0.182   5.221  0.4145  0.4695 -0.2665
 5574SOL    HW119354   6.167   0.205   5.255  0.4005 -0.2595  0.2188
 5574SOL    HW219355   6.253   0.086   5.220  1.1792  0.4663 -0.3507
 5575SOL     OW19356  10.108   9.656   9.355 -0.0646 -0.5576 -0.5009
 5575SOL    HW119357  10.062   9.738   9.340 -1.3413 -1.0687  0.4876
 5575SOL    HW219358  10.196   9.682   9.380  0.4385  0.4338 -2.9435
 5576SOL     OW19359   7.600   3.184   3.079 -0.3200 -0.9126  0.3452
 5576SOL    HW119360   7.517   3.232   3.086 -0.6424 -1.3846 -0.1341
 5576SOL    HW219361   7.621   3.159   3.169  0.3392  0.9071  0.7373
 5577SOL     OW19362   5.829   9.325   0.196  0.2095 -0.6948  0.3252
 5577SOL    HW119363   5.800   9.276   0.272 -2.2974  2.2931  1.4911
 5577SOL    HW219364   5.817   9.264   0.123 -2.5271 -1.9660  1.6705
 5578SOL     OW19365   2.813   8.420   7.121  0.7132  0.8584 -0.3827
 5578SOL    HW119366   2.901   8.404   7.155  0.4353  0.5136  0.1909
 5578SOL    HW219367   2.775   8.332   7.112  0.0566  1.0584  0.3810
 5579SOL     OW19368   1.794   1.408   2.659 -0.2175  0.3026 -0.3912
 5579SOL    HW119369   1.833   1.491   2.630  0.4264  0.4386  0.8099
 5579SOL    HW219370   1.863   1.343   2.644 -0.1951  0.2317  0.0186
 5580SOL     OW19371   5.850   8.636   8.509  0.3501  0.0332  0.1918
 5580SOL    HW119372   5.921   8.677   8.559 -1.7639  2.4409  1.4443
 5580SOL    HW219373   5.799   8.589   8.575  0.7937 -1.7889 -0.7150
 5581SOL     OW19374   6.162   5.157   5.700 -0.1178 -0.1915  0.2298
 5581SOL    HW119375   6.153   5.063   5.717  0.8059 -0.0109  1.8488
 5581SOL    HW219376   6.127   5.199   5.779  0.0035  0.8231 -0.2441
 5582SOL     OW19377   7.501   2.075   4.274  0.0044  0.1989 -0.0693
 5582SOL    HW119378   7.577   2.115   4.231  0.2082 -1.2957 -1.1749
 5582SOL    HW219379   7.513   2.095   4.367  2.2886 -0.7871 -0.0844
 5583SOL     OW19380   3.913   0.625   0.606  0.0160  0.0398  0.1654
 5583SOL    HW119381   3.903   0.626   0.510  3.0309 -0.3260 -0.2461
 5583SOL    HW219382   3.931   0.534   0.627 -0.8633  0.0817  1.1495
 5584SOL     OW19383   8.209  10.274   5.752  0.0225  0.1069  0.4683
 5584SOL    HW119384   8.123  10.272   5.794 -0.9621 -0.8252 -1.4748
 5584SOL    HW219385   8.201  10.340   5.683 -0.0535 -1.8237 -1.4649
 5585SOL     OW19386   1.222   8.424   2.716  0.0301 -0.7469 -0.6722
 5585SOL    HW119387   1.290   8.374   2.760  2.3419  0.0076 -3.1235
 5585SOL    HW219388   1.246   8.516   2.732 -0.9483 -0.4481 -0.8301
 5586SOL     OW19389   8.385   3.161   9.441  0.1827 -0.4009  0.4646
 5586SOL    HW119390   8.345   3.219   9.506  0.4144  0.7191 -0.3711
 5586SOL    HW219391   8.312   3.108   9.409 -0.5194  1.0605 -0.4544
 5587SOL     OW19392   6.066   4.157   3.375 -0.1097 -0.0803 -0.1602
 5587SOL    HW119393   5.972   4.158   3.359 -0.3027 -2.3238  0.5356
 5587SOL    HW219394   6.083   4.072   3.416  2.2827  0.1168 -0.5865
 5588SOL     OW19395   0.247   5.876   2.223 -0.8916  0.1687  0.2846
 5588SOL    HW119396   0.336   5.842   2.212 -1.2279 -0.5950 -0.2508
 5588SOL    HW219397   0.249   5.927   2.304  0.3071  1.1213 -0.3231
 5589SOL     OW19398   5.517   4.704   4.674 -0.1093 -0.2348  0.1154
 5589SOL    HW119399   5.552   4.786   4.639  0.4740 -0.2679  0.6078
 5589SOL    HW219400   5.510   4.719   4.768  1.1584 -1.1667  0.3734
 5590SOL     OW19401   3.721   7.448   0.781 -0.1391 -0.3992  0.0045
 5590SOL    HW119402   3.731   7.543   0.786  0.0066 -0.4848  1.6802
 5590SOL    HW219403   3.797   7.419   0.731  0.2752  0.2943  0.2141
 5591SOL     OW19404   1.052   4.251   2.077  0.1118  0.0506  0.2371
 5591SOL    HW119405   1.077   4.174   2.128  1.6919  0.9336  0.8763
 5591SOL    HW219406   0.979   4.289   2.126 -0.4258 -0.8264  0.1230
 5592SOL     OW19407   9.165   5.345   6.033 -0.5027 -0.3175  0.2621
 5592SOL    HW119408   9.073   5.363   6.050 -0.6871 -0.7789 -0.2199
 5592SOL    HW219409   9.209   5.429   6.049 -1.2130  0.3258 -0.9436
 5593SOL     OW19410   8.702   0.344   9.955  0.5189 -0.4376 -0.2070
 5593SOL    HW119411   8.658   0.370   9.874 -0.6398 -0.5476  0.3657
 5593SOL    HW219412   8.753   0.267   9.931  2.1656  0.9443 -1.3954
 5594SOL     OW19413   5.400   9.861   0.815 -0.6977 -0.4343 -0.1900
 5594SOL    HW119414   5.441   9.873   0.730 -0.4115 -1.1480 -0.1642
 5594SOL    HW219415   5.472   9.871   0.878 -0.6696 -1.0964 -0.1083
 5595SOL     OW19416   5.735   0.295   3.304  0.6739 -0.1961  0.2498
 5595SOL    HW119417   5.745   0.313   3.397  1.4272 -1.0439  0.3399
 5595SOL    HW219418   5.799   0.352   3.261  0.0859  0.4525  0.2095
 5596SOL     OW19419   2.129   3.526   8.170  0.7703  0.2673  0.2586
 5596SOL    HW119420   2.158   3.554   8.083  3.0190 -0.7491  0.5899
 5596SOL    HW219421   2.202   3.549   8.228 -0.0377 -0.4248  1.6059
 5597SOL     OW19422   5.580   8.070   9.797  0.3173 -0.0398 -0.3729
 5597SOL    HW119423   5.643   8.131   9.760  0.8492 -0.4862 -0.2204
 5597SOL    HW219424   5.615   7.983   9.777 -0.1822 -0.2950 -0.1773
 5598SOL     OW19425   5.828   7.458   7.933 -0.6577 -0.6662 -0.1431
 5598SOL    HW119426   5.878   7.510   7.996  0.8380  0.1249 -1.9067
 5598SOL    HW219427   5.748   7.435   7.980 -0.4755  1.5274  1.4024
 5599SOL     OW19428   5.409   2.459   2.153 -0.3102  0.4299  0.4569
 5599SOL    HW119429   5.422   2.421   2.240 -0.1116  1.0682  0.7081
 5599SOL    HW219430   5.326   2.421   2.123  0.1523 -0.6306  0.4689
 5600SOL     OW19431   3.117   8.339   8.412  0.6549  0.2432 -0.0434
 5600SOL    HW119432   3.101   8.265   8.353 -0.6336  0.5552 -0.1102
 5600SOL    HW219433   3.067   8.411   8.374  0.9292  0.8259  0.6789
 5601SOL     OW19434   1.225   0.474   2.330 -0.2913  0.0010  0.2960
 5601SOL    HW119435   1.254   0.390   2.296  0.9626  0.3181  0.5296
 5601SOL    HW219436   1.129   0.467   2.333 -0.4171 -0.4757 -2.1280
 5602SOL     OW19437   8.827   2.138   3.852 -0.3011 -0.1161 -0.1353
 5602SOL    HW119438   8.899   2.192   3.885 -0.6753 -0.4106  1.2108
 5602SOL    HW219439   8.853   2.116   3.763  1.1135  0.0698  0.2122
 5603SOL     OW19440   2.157   9.446   0.696 -0.1521  0.5431  0.6837
 5603SOL    HW119441   2.152   9.362   0.649  1.5155 -0.0248  1.4228
 5603SOL    HW219442   2.096   9.436   0.769 -1.4420  0.7615 -0.3262
 5604SOL     OW19443   2.307   8.442   4.137 -0.3683 -0.5760 -0.4141
 5604SOL    HW119444   2.379   8.406   4.189 -0.8071 -1.0424 -0.1174
 5604SOL    HW219445   2.236   8.457   4.200  0.0353  1.5084 -0.4070
 5605SOL     OW19446   6.814   4.588   6.508  0.5325 -0.3956 -0.3449
 5605SOL    HW119447   6.882   4.524   6.528  0.6296 -0.9775 -2.3198
 5605SOL    HW219448   6.803   4.583   6.413  0.3041  2.3042 -0.5353
 5606SOL     OW19449   6.217   6.052   9.098 -0.3706  0.5275 -0.4253
 5606SOL    HW119450   6.258   6.088   9.020  2.6892 -1.7876 -0.0467
 5606SOL    HW219451   6.284   6.057   9.166 -1.9207 -0.2554  1.2693
 5607SOL     OW19452   1.411   6.937   1.363 -0.6938 -0.5594  0.5749
 5607SOL    HW119453   1.443   6.852   1.393 -1.5406 -1.3271 -0.6240
 5607SOL    HW219454   1.316   6.932   1.373 -1.0216 -0.8068 -1.9660
 5608SOL     OW19455   7.241   9.618   6.878  0.1659  0.2349 -0.1998
 5608SOL    HW119456   7.185   9.579   6.945 -0.7317  1.7062 -0.0525
 5608SOL    HW219457   7.228   9.562   6.801  0.8493 -1.1934  0.6982
 5609SOL     OW19458   0.428   8.705   2.938 -0.2238  1.1064 -0.0695
 5609SOL    HW119459   0.437   8.776   3.001 -0.1050  0.4450  0.6805
 5609SOL    HW219460   0.345   8.663   2.961  0.4844 -0.0002  0.5749
 5610SOL     OW19461   1.839   1.601   2.313 -0.4099  0.3775 -0.2642
 5610SOL    HW119462   1.904   1.659   2.275  0.6774 -0.5540  0.0965
 5610SOL    HW219463   1.885   1.558   2.386 -1.6497  0.2331  0.4634
 5611SOL     OW19464   3.271   3.302   5.144  0.0381  0.5208  0.2346
 5611SOL    HW119465   3.355   3.325   5.103  0.8273  0.6790  1.8846
 5611SOL    HW219466   3.230   3.243   5.081  1.3998  0.4078 -0.5959
 5612SOL     OW19467   4.433   5.628  10.254 -0.5745 -0.6113  0.0572
 5612SOL    HW119468   4.484   5.707  10.238 -2.6001  0.4006 -1.8271
 5612SOL    HW219469   4.359   5.658  10.307  0.0621 -1.8438  1.7523
 5613SOL     OW19470   1.531   2.870   5.404 -0.1784  0.2342  0.4823
 5613SOL    HW119471   1.557   2.954   5.366  0.4326  0.3206  1.0680
 5613SOL    HW219472   1.455   2.842   5.352 -0.8322  1.4877  0.7279
 5614SOL     OW19473   2.754   1.642   4.007 -0.2083  0.0751  0.5624
 5614SOL    HW119474   2.826   1.704   4.020  1.3701 -1.8272  1.3860
 5614SOL    HW219475   2.678   1.685   4.046  0.7247  1.6670  0.7147
 5615SOL     OW19476   9.822   7.426   3.036  0.4173 -0.6430 -0.0166
 5615SOL    HW119477   9.864   7.340   3.041  0.8369 -0.6336 -2.3416
 5615SOL    HW219478   9.893   7.488   3.052  0.0528 -0.6631  1.9953
 5616SOL     OW19479   0.698   2.174   0.789 -0.3290  0.1075  0.1315
 5616SOL    HW119480   0.762   2.227   0.838 -1.1379  1.6480 -0.4228
 5616SOL    HW219481   0.615   2.219   0.802 -0.7531 -0.0766 -1.7548
 5617SOL     OW19482   5.171   2.031   9.764 -0.5517 -0.3609 -0.3207
 5617SOL    HW119483   5.234   1.961   9.782 -0.1156  0.7135  3.2568
 5617SOL    HW219484   5.087   1.987   9.758 -0.3989 -1.2696  2.6869
 5618SOL     OW19485   4.313  10.278   3.239  0.3320 -0.5107 -0.2789
 5618SOL    HW119486   4.407  10.296   3.228  0.1573  0.6066 -0.0737
 5618SOL    HW219487   4.300  10.277   3.334 -0.0431  0.3604 -0.3185
 5619SOL     OW19488   0.226   8.466   1.825  0.4070  0.1632  0.0486
 5619SOL    HW119489   0.134   8.474   1.799 -0.3199 -1.3199  1.9159
 5619SOL    HW219490   0.224   8.468   1.921  2.4263  0.8539  0.1227
 5620SOL     OW19491   1.656   7.692   1.393  0.2490 -0.0008  0.2018
 5620SOL    HW119492   1.744   7.721   1.369 -0.0206  0.1915 -0.5670
 5620SOL    HW219493   1.669   7.644   1.475  0.9625  0.6685  0.4963
 5621SOL     OW19494   4.601   6.837   0.731 -0.3872  0.2289 -0.2505
 5621SOL    HW119495   4.653   6.916   0.713 -0.0977 -0.0665 -0.7440
 5621SOL    HW219496   4.515   6.869   0.757  0.3313  0.7705  1.6153
 5622SOL     OW19497   8.486   7.915   8.694 -0.1302  0.2838  0.2577
 5622SOL    HW119498   8.521   7.875   8.773  0.1330 -0.4282 -0.2089
 5622SOL    HW219499   8.431   7.987   8.726 -0.7620 -0.5596  1.1182
 5623SOL     OW19500   4.965  10.208   2.770 -0.0210  0.6712  0.1968
 5623SOL    HW119501   4.993  10.246   2.686 -0.0100  0.5953  0.1653
 5623SOL    HW219502   4.885  10.255   2.792 -0.1798  0.4944  0.0014
 5624SOL     OW19503   8.087   2.144   6.216 -0.0730  0.0521 -0.7009
 5624SOL    HW119504   8.018   2.106   6.271  0.3294 -1.1439 -0.9870
 5624SOL    HW219505   8.080   2.097   6.133  1.9433 -1.1254 -0.2797
 5625SOL     OW19506   4.207   0.991   0.091  0.3988 -0.2795 -0.2344
 5625SOL    HW119507   4.192   1.084   0.106 -0.6896 -0.5890  0.7604
 5625SOL    HW219508   4.293   0.973   0.129  0.0411  0.0672  0.7706
 5626SOL     OW19509   7.009   3.190   9.784 -0.1243 -0.3805  0.3946
 5626SOL    HW119510   7.046   3.105   9.759 -1.6034 -0.4800 -1.7535
 5626SOL    HW219511   6.969   3.223   9.704 -0.0700  2.1286  1.3145
 5627SOL     OW19512   0.211   1.667   1.414 -0.1080 -0.3276 -0.0188
 5627SOL    HW119513   0.147   1.647   1.483  0.1547  1.7587  0.9077
 5627SOL    HW219514   0.158   1.702   1.342 -0.0982  0.8442  0.5231
 5628SOL     OW19515   7.943   0.412   5.979  0.1472 -0.1246 -0.1404
 5628SOL    HW119516   7.941   0.347   5.909  1.4468 -0.7379  0.3566
 5628SOL    HW219517   7.935   0.362   6.060 -1.5942  0.5969  0.1748
 5629SOL     OW19518   3.319   4.286   0.446 -0.2427  0.2674 -0.4789
 5629SOL    HW119519   3.244   4.236   0.414  0.1135 -0.2663 -0.4982
 5629SOL    HW219520   3.296   4.308   0.536 -1.2784  1.8337 -1.0812
 5630SOL     OW19521   0.023   0.689   7.378  0.3687  0.5270 -0.1165
 5630SOL    HW119522  -0.010   0.630   7.446  0.1472  0.8682  0.0734
 5630SOL    HW219523   0.058   0.764   7.426  0.4769  0.6386 -0.3678
 5631SOL     OW19524   6.312   5.398   4.277 -0.3655  0.1647 -0.0413
 5631SOL    HW119525   6.256   5.474   4.294 -0.0829  0.0868  1.3212
 5631SOL    HW219526   6.401   5.428   4.295 -0.0324  0.0221 -1.3170
 5632SOL     OW19527   3.970   7.850  10.138  0.5888  0.6751  0.1286
 5632SOL    HW119528   3.999   7.806  10.058 -0.8903  0.3980 -0.2708
 5632SOL    HW219529   4.029   7.925  10.147  0.0215  1.4162 -1.8935
 5633SOL     OW19530   4.051   1.976   7.080 -0.2345 -0.2343 -0.1582
 5633SOL    HW119531   4.063   1.999   6.988 -0.7710  0.5813 -0.0384
 5633SOL    HW219532   4.001   2.050   7.117 -1.0730 -1.0991  0.5055
 5634SOL     OW19533   3.001   3.957   6.396  0.0846  0.0874 -0.5573
 5634SOL    HW119534   2.931   3.908   6.355  0.7224 -0.1012 -1.4611
 5634SOL    HW219535   3.026   4.023   6.331 -0.4172  1.2920  0.4328
 5635SOL     OW19536   3.733   5.327  10.098 -0.0820  0.3019 -0.2904
 5635SOL    HW119537   3.673   5.322  10.023  0.7693  1.2657 -1.0801
 5635SOL    HW219538   3.729   5.240  10.138 -0.7364 -0.1664 -1.3260
 5636SOL     OW19539   6.976   8.043   2.739 -0.7957 -0.2343  0.1339
 5636SOL    HW119540   7.057   8.076   2.699 -1.1452 -0.2157 -0.5852
 5636SOL    HW219541   6.972   7.951   2.713 -0.3229 -0.6004  1.3136
 5637SOL     OW19542   5.571   6.083   5.208  0.7914 -0.5079 -0.2040
 5637SOL    HW119543   5.489   6.117   5.242  1.7746  1.3460  0.4284
 5637SOL    HW219544   5.551   5.992   5.185 -1.1677 -0.3846  0.7941
 5638SOL     OW19545   7.187   1.957   4.489  0.7085  0.5160 -0.4867
 5638SOL    HW119546   7.236   2.001   4.559  2.0054  1.1854 -1.7570
 5638SOL    HW219547   7.227   1.871   4.483 -1.5328 -0.8137  1.6938
 5639SOL     OW19548   2.262   1.767   4.415 -0.1122  0.1280  0.4940
 5639SOL    HW119549   2.344   1.815   4.415  0.5489 -0.9238  1.7745
 5639SOL    HW219550   2.199   1.826   4.375  1.3129  0.8545 -0.7755
 5640SOL     OW19551   9.525   9.357   3.178 -0.1553 -0.0719  0.5801
 5640SOL    HW119552   9.489   9.444   3.190 -1.3507 -0.2747 -1.1755
 5640SOL    HW219553   9.560   9.357   3.089 -1.5768 -1.8047 -0.0551
 5641SOL     OW19554   5.269   9.504   8.452 -0.0213  0.4757  0.6169
 5641SOL    HW119555   5.254   9.496   8.358 -0.6145  1.4871  0.6100
 5641SOL    HW219556   5.221   9.430   8.490 -1.1446  0.9882  0.2304
 5642SOL     OW19557   1.210   7.666   8.346 -0.4176 -0.3710 -0.1711
 5642SOL    HW119558   1.300   7.655   8.376 -0.1433  1.4517 -0.1693
 5642SOL    HW219559   1.218   7.706   8.259 -1.1876  0.9724  0.3418
 5643SOL     OW19560   1.082   1.027   5.579  0.2493 -0.4810  0.0656
 5643SOL    HW119561   1.098   1.094   5.513 -2.1842  0.1266  0.0009
 5643SOL    HW219562   1.045   0.954   5.530 -0.1352 -0.6255  0.5649
 5644SOL     OW19563   9.322   7.303   8.104 -0.2954  0.2280  0.6575
 5644SOL    HW119564   9.279   7.255   8.033  0.1846  0.7540 -0.0128
 5644SOL    HW219565   9.413   7.311   8.075 -0.4390  1.8231  0.5775
 5645SOL     OW19566   7.368   8.102   5.202 -0.2953  0.0198 -0.0154
 5645SOL    HW119567   7.429   8.088   5.274  0.3071 -1.7830 -0.8238
 5645SOL    HW219568   7.289   8.056   5.228  0.1175 -1.1243 -0.7139
 5646SOL     OW19569   7.822   0.328   5.538  0.2016 -0.5445 -0.0542
 5646SOL    HW119570   7.810   0.421   5.559 -0.5627 -0.2357 -1.6795
 5646SOL    HW219571   7.733   0.292   5.538  0.3642 -0.9665 -0.6884
 5647SOL     OW19572   0.066   5.701   8.067 -0.1486 -0.1427 -0.1724
 5647SOL    HW119573  -0.003   5.635   8.055 -0.3111 -0.1648  0.7947
 5647SOL    HW219574   0.140   5.650   8.100  0.4351 -0.1620 -1.4716
 5648SOL     OW19575   2.272   7.297   9.835 -0.2968  0.2801  0.7839
 5648SOL    HW119576   2.289   7.385   9.867  1.0355  0.3631 -0.0715
 5648SOL    HW219577   2.343   7.243   9.870  0.8524  0.2561 -1.3896
 5649SOL     OW19578   1.836   2.752   9.047  0.2848  0.1978  0.2200
 5649SOL    HW119579   1.777   2.680   9.026  2.2246 -1.8474  1.3407
 5649SOL    HW219580   1.921   2.725   9.013  1.0293  2.1373  0.3756
 5650SOL     OW19581   9.087   3.587   7.069  0.1689  0.0104 -0.1983
 5650SOL    HW119582   9.145   3.657   7.100 -0.3497  0.1350  0.5209
 5650SOL    HW219583   9.103   3.582   6.975  2.3112 -0.8414  0.1373
 5651SOL     OW19584   5.480   2.772   0.098 -0.1163 -0.3109 -0.2796
 5651SOL    HW119585   5.566   2.805   0.125 -0.1378  0.3037 -0.9346
 5651SOL    HW219586   5.498   2.722   0.018 -0.0911 -1.8933  0.6759
 5652SOL     OW19587   5.028   2.527   0.830 -0.0669 -0.4381 -0.3240
 5652SOL    HW119588   5.103   2.521   0.771 -0.0664  0.1442 -0.3935
 5652SOL    HW219589   4.995   2.438   0.837  0.6116 -0.6935 -0.3232
 5653SOL     OW19590   1.636   8.297   1.016 -0.6146 -0.0240 -0.2690
 5653SOL    HW119591   1.613   8.369   0.956 -0.4519  0.8041  0.6356
 5653SOL    HW219592   1.566   8.298   1.081 -1.5989 -1.8873 -1.2302
 5654SOL     OW19593   7.293   7.316   6.054  0.0154 -0.6299  0.3358
 5654SOL    HW119594   7.287   7.233   6.008 -0.8938  0.1568 -1.0436
 5654SOL    HW219595   7.264   7.381   5.990  1.0600  0.7997  1.2449
 5655SOL     OW19596   6.890   8.789   8.835  0.1771  0.3343 -0.0127
 5655SOL    HW119597   6.929   8.854   8.893  0.4317 -0.3246  0.5751
 5655SOL    HW219598   6.964   8.737   8.804 -0.1231 -0.3388  0.3696
 5656SOL     OW19599   1.092   1.381   4.768 -0.5070 -0.4236  0.4198
 5656SOL    HW119600   1.029   1.366   4.697 -1.0011 -1.5457  1.0726
 5656SOL    HW219601   1.087   1.475   4.785  0.2797  0.0371 -1.6134
 5657SOL     OW19602   9.636   1.247   4.906  0.2587 -0.6601 -0.3921
 5657SOL    HW119603   9.683   1.174   4.866 -1.1068 -1.4494 -0.6002
 5657SOL    HW219604   9.667   1.247   4.997  0.7613 -1.0787 -0.5547
 5658SOL     OW19605   9.254   5.627   5.080  0.2273 -0.0788 -0.2297
 5658SOL    HW119606   9.248   5.719   5.106  1.3733 -0.0757  0.0964
 5658SOL    HW219607   9.176   5.586   5.116  0.5186  0.4512  1.0425
 5659SOL     OW19608   4.370   6.522  10.008  1.1070  0.3737  0.6844
 5659SOL    HW119609   4.292   6.502  10.059 -0.1075  1.9185 -0.4538
 5659SOL    HW219610   4.421   6.581  10.064  0.7060  0.5635  0.8542
 5660SOL     OW19611   4.523   3.322   1.515  0.1711  0.3091  0.2098
 5660SOL    HW119612   4.460   3.346   1.447 -0.1769 -0.7242  0.1617
 5660SOL    HW219613   4.502   3.232   1.537  1.5686 -0.0289  0.2616
 5661SOL     OW19614   4.291   4.009   2.042 -0.1920  0.2525  0.1792
 5661SOL    HW119615   4.358   4.030   1.976 -0.6569  2.5199  0.3360
 5661SOL    HW219616   4.216   3.980   1.991  0.2973 -0.5361 -0.1101
 5662SOL     OW19617   9.834   5.093   0.985  0.4328  0.5337 -0.6181
 5662SOL    HW119618   9.836   5.166   0.924  2.0865  0.6618 -0.4551
 5662SOL    HW219619   9.859   5.132   1.069  1.6374 -0.2370 -0.5887
 5663SOL     OW19620   7.680   7.599   9.721  0.4217 -0.1282 -0.1515
 5663SOL    HW119621   7.603   7.625   9.671  1.1660  1.8448 -0.3340
 5663SOL    HW219622   7.649   7.589   9.811 -0.5789 -2.0895 -0.6558
 5664SOL     OW19623   4.767   0.955   2.946  0.1883  0.2708 -0.2922
 5664SOL    HW119624   4.816   0.876   2.924 -1.1880 -0.9028  0.6355
 5664SOL    HW219625   4.725   0.980   2.863 -1.5205 -1.6013 -0.0702
 5665SOL     OW19626   9.755   5.380   5.533 -0.2279  0.1281 -0.2048
 5665SOL    HW119627   9.695   5.373   5.459 -2.0980 -1.5310  1.3651
 5665SOL    HW219628   9.758   5.292   5.569  3.3453  0.0886 -0.2584
 5666SOL     OW19629   9.033   0.049   3.396 -0.5336 -0.1724  0.7038
 5666SOL    HW119630   9.093   0.080   3.327  0.8290  0.8334  2.2694
 5666SOL    HW219631   8.947   0.079   3.368  0.1012  0.8794 -0.2048
 5667SOL     OW19632   4.023   6.021   9.874  0.1264  0.5044 -0.0933
 5667SOL    HW119633   3.985   5.951   9.928  0.4148  0.4173  0.0054
 5667SOL    HW219634   3.955   6.087   9.868 -0.4307 -0.1193 -0.8194
 5668SOL     OW19635   4.508   8.659   9.567  0.2245 -0.7070  0.4146
 5668SOL    HW119636   4.583   8.650   9.626 -0.1894 -0.0062  1.0718
 5668SOL    HW219637   4.435   8.620   9.617 -0.6217  1.8930  1.3791
 5669SOL     OW19638   9.972   2.277   4.166  0.1413  0.2917 -0.9346
 5669SOL    HW119639  10.037   2.243   4.105 -0.0391  0.1210 -1.0311
 5669SOL    HW219640   9.976   2.372   4.153 -0.3830  0.2167 -1.7124
 5670SOL     OW19641   2.152   1.933   7.037 -0.1171  0.7820 -0.3304
 5670SOL    HW119642   2.124   2.004   7.095 -1.1909  0.5227 -0.5094
 5670SOL    HW219643   2.106   1.856   7.070  2.1236 -0.1797  0.7648
 5671SOL     OW19644   4.491   4.024   0.592 -0.3283 -0.4675 -0.5018
 5671SOL    HW119645   4.396   4.019   0.600 -0.1371 -2.2196  1.4448
 5671SOL    HW219646   4.512   4.116   0.606 -1.7373  0.0173 -1.3853
 5672SOL     OW19647   9.878   0.979   5.344 -0.0300  0.2050  0.4500
 5672SOL    HW119648   9.848   1.048   5.285  0.2629 -0.2854 -0.2860
 5672SOL    HW219649   9.802   0.922   5.355  0.2878 -0.4521 -0.5658
 5673SOL     OW19650   3.857   3.730   7.398 -0.4638  0.7012 -0.1503
 5673SOL    HW119651   3.772   3.685   7.397 -0.8793  1.4750 -0.4071
 5673SOL    HW219652   3.921   3.661   7.380 -1.0611  0.1591 -0.2208
 5674SOL     OW19653   8.449   4.991   0.885  0.8803 -0.9390 -0.1852
 5674SOL    HW119654   8.544   4.983   0.895  0.9720  0.2832  0.0869
 5674SOL    HW219655   8.425   5.063   0.943 -0.1957 -1.1313 -0.3774
 5675SOL     OW19656   6.172   6.398   0.484  0.1024  0.0906 -0.1162
 5675SOL    HW119657   6.172   6.387   0.389  0.1853  1.2703 -0.2699
 5675SOL    HW219658   6.257   6.365   0.512  0.2861  0.2095 -0.5197
 5676SOL     OW19659   2.224   9.648   1.802  0.2002 -0.3918  0.0715
 5676SOL    HW119660   2.269   9.608   1.728 -0.5052  0.1959 -0.6904
 5676SOL    HW219661   2.149   9.591   1.818  0.0862 -0.2594  0.0158
 5677SOL     OW19662   9.422   2.261   1.737 -0.2547 -0.1423  0.8015
 5677SOL    HW119663   9.349   2.307   1.696 -0.6285 -0.3820  1.1976
 5677SOL    HW219664   9.498   2.284   1.683 -0.2204  1.8629  1.6148
 5678SOL     OW19665   2.593   7.730   0.883  0.1195 -0.1644  0.5601
 5678SOL    HW119666   2.615   7.738   0.791 -1.2693  0.3901  0.2552
 5678SOL    HW219667   2.531   7.801   0.899 -3.0231 -2.7415  0.8534
 5679SOL     OW19668   8.065   3.372   4.225  0.3644  0.0032 -0.2730
 5679SOL    HW119669   8.078   3.278   4.210 -1.4728 -0.3435  0.0173
 5679SOL    HW219670   8.130   3.395   4.291  2.2788 -0.5533 -1.8913
 5680SOL     OW19671  10.354   3.737   4.052  0.1537  0.0786 -0.5669
 5680SOL    HW119672  10.400   3.774   4.128  0.2789  1.4315 -1.2779
 5680SOL    HW219673  10.389   3.648   4.044  1.0178  0.3311  0.2302
 5681SOL     OW19674   3.309   1.560   8.550 -0.2864 -0.8092  0.1300
 5681SOL    HW119675   3.291   1.627   8.616 -0.3963 -0.3456 -0.3644
 5681SOL    HW219676   3.392   1.521   8.578  0.2109  0.1093 -0.0273
 5682SOL     OW19677   9.449   2.229   5.728  0.7912 -0.3828  0.2804
 5682SOL    HW119678   9.366   2.188   5.753  0.2576 -0.3466 -1.2608
 5682SOL    HW219679   9.478   2.177   5.653  1.4877  0.4174 -0.0054
 5683SOL     OW19680   3.886   3.686   7.685  0.3933  0.0011 -0.2350
 5683SOL    HW119681   3.976   3.716   7.701  0.8599 -1.9768  1.1446
 5683SOL    HW219682   3.874   3.697   7.591  2.3758 -0.4342 -0.5885
 5684SOL     OW19683  10.304   5.659   1.345 -0.2113  0.0285  0.7517
 5684SOL    HW119684  10.305   5.597   1.272 -0.4513  0.3701  0.4453
 5684SOL    HW219685  10.218   5.701   1.338  0.4304  1.3195  0.1378
 5685SOL     OW19686   8.946   5.079   7.587 -0.2040 -0.1285  0.1047
 5685SOL    HW119687   9.030   5.048   7.551  1.6352  1.8510  2.3011
 5685SOL    HW219688   8.899   5.114   7.512  0.7219 -1.6675 -1.2678
 5686SOL     OW19689   5.854   3.128   9.154  0.0601 -0.1049  0.3946
 5686SOL    HW119690   5.785   3.147   9.217 -1.0606 -1.5321 -0.3464
 5686SOL    HW219691   5.857   3.033   9.148 -0.0899 -0.0272 -1.9094
 5687SOL     OW19692   8.584   8.381   6.227  0.6610 -0.3925 -0.2079
 5687SOL    HW119693   8.583   8.296   6.182  3.0047 -0.3105 -0.5415
 5687SOL    HW219694   8.555   8.443   6.160 -0.2169 -0.8203 -0.2305
 5688SOL     OW19695   6.594   7.323   3.791 -0.0180 -0.1781  0.2816
 5688SOL    HW119696   6.630   7.276   3.715  1.2882 -0.6734  1.1786
 5688SOL    HW219697   6.623   7.413   3.779  2.5266 -0.7471  1.4987
 5689SOL     OW19698   3.675   8.399   5.054  0.2472  0.6265  0.3459
 5689SOL    HW119699   3.727   8.421   5.131 -1.5739 -1.9952  2.5033
 5689SOL    HW219700   3.712   8.316   5.023 -0.8073  0.2039  0.1641
 5690SOL     OW19701   0.644   2.085   4.162  0.2564  0.0081 -0.0303
 5690SOL    HW119702   0.602   2.045   4.085  1.0071  0.0204 -0.4577
 5690SOL    HW219703   0.731   2.045   4.165  0.8159  1.1812 -0.1227
 5691SOL     OW19704   5.336   3.301   2.123 -0.1437 -0.5383 -0.5097
 5691SOL    HW119705   5.420   3.302   2.169 -0.4350 -0.1986  0.0301
 5691SOL    HW219706   5.358   3.327   2.033  0.4336 -1.2359 -0.5751
 5692SOL     OW19707  10.197   3.452   6.523  0.0985 -0.4517  0.1642
 5692SOL    HW119708  10.160   3.365   6.535 -0.5687  0.1542  3.5781
 5692SOL    HW219709  10.148   3.490   6.451 -1.6573 -1.8763  0.5421
 5693SOL     OW19710   6.239   4.129   4.055 -0.2090  0.3691  0.3403
 5693SOL    HW119711   6.332   4.109   4.054 -0.0232  1.1676  0.6121
 5693SOL    HW219712   6.195   4.045   4.067  0.5088  0.1007  1.1082
 5694SOL     OW19713   8.848   1.314   6.271  0.1193  0.1841 -0.0868
 5694SOL    HW119714   8.884   1.251   6.332  0.7454 -1.9017 -2.4466
 5694SOL    HW219715   8.888   1.398   6.295  1.7067 -0.9037  1.1918
 5695SOL     OW19716   8.529   2.030  10.073 -0.5834 -0.0219 -1.0286
 5695SOL    HW119717   8.476   2.105  10.045 -0.8594 -0.7293 -2.5058
 5695SOL    HW219718   8.600   2.069  10.124 -3.4875  0.8170  2.8480
 5696SOL     OW19719   4.364   0.739   6.996 -0.2739  0.0838  0.5270
 5696SOL    HW119720   4.407   0.654   7.003 -0.0586  0.1070 -0.3644
 5696SOL    HW219721   4.361   0.757   6.902  1.1857  1.8077  0.7406
 5697SOL     OW19722   9.698   7.453   9.768 -0.8108  0.6390 -0.6282
 5697SOL    HW119723   9.738   7.538   9.750  0.8424  0.8115  3.0606
 5697SOL    HW219724   9.770   7.390   9.760 -1.1077  0.1348  0.5276
 5698SOL     OW19725  10.212   1.107   0.023 -0.1888 -0.3031  0.6808
 5698SOL    HW119726  10.163   1.127   0.103 -0.1517 -0.0944  0.6516
 5698SOL    HW219727  10.263   1.186   0.006 -1.1972  0.1543 -0.2887
 5699SOL     OW19728   1.948   4.528   2.670 -0.4244  0.0436 -0.2020
 5699SOL    HW119729   1.922   4.530   2.762  1.0388  1.1358  0.2269
 5699SOL    HW219730   2.039   4.499   2.671 -0.3374  0.2242 -1.2875
 5700SOL     OW19731   6.294   4.854   6.642  0.5515 -0.1008 -0.7790
 5700SOL    HW119732   6.377   4.806   6.634 -0.3226 -1.4624 -2.1494
 5700SOL    HW219733   6.234   4.808   6.585 -2.5853 -2.1132  3.5731
 5701SOL     OW19734   0.638   0.756   2.300 -0.2391  0.0701 -0.8053
 5701SOL    HW119735   0.552   0.782   2.333 -0.4312 -0.6172 -0.7428
 5701SOL    HW219736   0.678   0.837   2.271  0.9495  1.2046  3.3113
 5702SOL     OW19737   8.677   4.239   9.059 -0.2274  0.5376 -0.5642
 5702SOL    HW119738   8.660   4.149   9.030  0.7243  0.2737 -0.3218
 5702SOL    HW219739   8.594   4.284   9.046 -0.6480 -0.3191 -0.9152
 5703SOL     OW19740   4.904   2.857   0.006 -0.3729  0.0437 -0.0730
 5703SOL    HW119741   4.842   2.880   0.075 -0.9179  1.0726 -0.8951
 5703SOL    HW219742   4.878   2.768  -0.020 -1.8924  0.6595 -0.7935
 5704SOL     OW19743   2.544   9.676   2.524  0.2356  0.3108  0.2707
 5704SOL    HW119744   2.532   9.639   2.437 -1.9711 -0.2944  0.7711
 5704SOL    HW219745   2.578   9.603   2.577  2.2499  0.8611 -0.1767
 5705SOL     OW19746   3.528   9.937   0.583 -0.3190 -0.0723  0.0088
 5705SOL    HW119747   3.539   9.848   0.548  2.8335  0.6815 -1.3503
 5705SOL    HW219748   3.463   9.977   0.526  0.0553 -0.8108 -0.9772
 5706SOL     OW19749   3.148   3.812   5.123  0.4582 -0.1755 -0.1237
 5706SOL    HW119750   3.199   3.734   5.143  0.9673 -0.3333 -1.8524
 5706SOL    HW219751   3.080   3.781   5.063 -0.0923  0.5005  0.1333
 5707SOL     OW19752   6.984   7.614   3.982  0.1081  0.9024 -0.1487
 5707SOL    HW119753   6.898   7.641   3.949  0.6014  2.5446 -0.1926
 5707SOL    HW219754   6.965   7.564   4.061 -0.8838  1.4812 -0.0053
 5708SOL     OW19755   9.412   8.202   8.615  0.4736  0.6501  0.3898
 5708SOL    HW119756   9.328   8.159   8.602  1.5456 -1.0554 -1.6206
 5708SOL    HW219757   9.403   8.285   8.569  0.7382 -0.8173 -2.5830
 5709SOL     OW19758   7.800   8.244   0.963 -0.1536 -0.5983 -0.5850
 5709SOL    HW119759   7.757   8.310   1.018  2.1031  0.3783  0.1079
 5709SOL    HW219760   7.805   8.286   0.877  1.2216  0.1682 -0.1603
 5710SOL     OW19761   6.613   6.090   1.839 -0.2492  0.1280  0.6973
 5710SOL    HW119762   6.651   6.103   1.751 -0.5272  0.4385  0.6209
 5710SOL    HW219763   6.521   6.113   1.828 -0.5089 -0.7933  0.8403
 5711SOL     OW19764   1.400   5.448   9.450 -0.2856  0.0998 -0.5067
 5711SOL    HW119765   1.336   5.508   9.487  0.1950  0.8202 -0.8026
 5711SOL    HW219766   1.437   5.402   9.525 -0.0084  0.8477 -0.1715
 5712SOL     OW19767  10.032   8.191  10.081 -0.4335 -0.1810 -0.1306
 5712SOL    HW119768   9.979   8.214  10.005 -2.0972 -1.8753  0.4167
 5712SOL    HW219769  10.031   8.095  10.082  2.2373 -0.2653  0.2468
 5713SOL     OW19770   2.772   8.893   9.410 -0.4469 -0.5507 -0.5499
 5713SOL    HW119771   2.796   8.983   9.386  0.6219 -0.3394  1.1933
 5713SOL    HW219772   2.809   8.880   9.497 -0.1562 -2.8691 -0.9561
 5714SOL     OW19773   3.160   0.064   5.432 -0.3123 -0.3108 -0.4488
 5714SOL    HW119774   3.141   0.104   5.347 -0.1496  1.0641  0.1221
 5714SOL    HW219775   3.187   0.138   5.487 -0.5539 -1.1487  0.8386
 5715SOL     OW19776   9.763   8.233   5.744 -0.4562 -0.4622  0.7301
 5715SOL    HW119777   9.718   8.150   5.760 -1.5345 -0.3383 -1.3353
 5715SOL    HW219778   9.712   8.276   5.676  1.6373  0.6595 -0.2364
 5716SOL     OW19779   7.385   3.888   1.178  0.3425 -0.0283  0.1478
 5716SOL    HW119780   7.310   3.837   1.146 -0.0985  0.3764  0.5167
 5716SOL    HW219781   7.378   3.972   1.132  2.1564 -0.9112 -1.9307
 5717SOL     OW19782   5.342   8.902   3.826  0.1259 -0.6994  0.3077
 5717SOL    HW119783   5.406   8.916   3.756 -0.6712 -1.8527 -0.6960
 5717SOL    HW219784   5.393   8.906   3.907  1.3659 -1.0477 -0.4403
 5718SOL     OW19785   4.635   1.449   5.811 -0.0024  0.2226 -0.7187
 5718SOL    HW119786   4.688   1.402   5.746  0.3400  0.2278 -0.4483
 5718SOL    HW219787   4.561   1.392   5.828  1.0093 -0.7953  0.4906
 5719SOL     OW19788   9.964   6.502   2.242  0.0784 -0.0910  0.6867
 5719SOL    HW119789  10.035   6.516   2.304  0.5814  0.6886 -0.0350
 5719SOL    HW219790   9.964   6.407   2.226  0.2402 -0.2320  1.5194
 5720SOL     OW19791   7.359   4.589   9.445  0.1259 -0.2722  0.2373
 5720SOL    HW119792   7.311   4.670   9.462  0.2787 -0.2971  0.8230
 5720SOL    HW219793   7.342   4.535   9.523  1.0269 -0.3176  0.4080
 5721SOL     OW19794   2.325   1.013   5.629  0.0919  0.0901 -0.5533
 5721SOL    HW119795   2.351   0.971   5.547 -1.7414 -0.1186 -1.0663
 5721SOL    HW219796   2.289   1.097   5.603  0.5636  0.5277  0.1588
 5722SOL     OW19797   0.698   0.604   5.433  1.0039  0.2695 -0.6650
 5722SOL    HW119798   0.619   0.562   5.468  2.1531 -0.4574  1.2681
 5722SOL    HW219799   0.677   0.698   5.432  0.2874  0.1425  0.3841
 5723SOL     OW19800   6.154   3.094   8.279 -0.4302  0.0351 -0.1466
 5723SOL    HW119801   6.226   3.080   8.219 -0.9285  0.6598 -0.9059
 5723SOL    HW219802   6.081   3.045   8.241 -2.1568  4.0959 -2.7540
 5724SOL     OW19803   9.684   4.971   2.676 -0.8450 -0.2548  0.5739
 5724SOL    HW119804   9.633   4.891   2.678 -1.6498  0.2548  1.1058
 5724SOL    HW219805   9.653   5.018   2.598 -1.2606  0.0901  0.9398
 5725SOL     OW19806   9.138   4.931   9.145 -0.0493 -0.5643 -0.6221
 5725SOL    HW119807   9.231   4.914   9.136  0.7963  3.0301 -0.2575
 5725SOL    HW219808   9.122   4.929   9.240  0.1145  0.5710 -0.5551
 5726SOL     OW19809  10.275   5.207  10.297  0.2926  0.1106 -0.2371
 5726SOL    HW119810  10.264   5.147  10.223  1.0174  2.1381 -2.1175
 5726SOL    HW219811  10.187   5.216  10.333 -0.1402 -0.7137 -1.0345
 5727SOL     OW19812   8.725   9.388   2.794 -0.5533  0.2234 -0.4389
 5727SOL    HW119813   8.764   9.429   2.871 -1.4010  1.2310 -0.5177
 5727SOL    HW219814   8.772   9.426   2.720 -0.2629 -0.1589 -0.4521
 5728SOL     OW19815   5.087   4.005   5.401 -0.0597 -0.4050 -0.0617
 5728SOL    HW119816   5.059   4.077   5.345 -0.8561 -1.1110 -0.6048
 5728SOL    HW219817   5.008   3.952   5.413  0.0650 -0.2653  1.7616
 5729SOL     OW19818   7.315   7.249   6.445  0.2929  0.1911 -0.1906
 5729SOL    HW119819   7.245   7.270   6.383 -0.2893 -1.4773 -0.1587
 5729SOL    HW219820   7.272   7.195   6.512  0.7463  2.4766  2.0997
 5730SOL     OW19821   5.195   6.843   6.505 -0.9098 -0.2830 -0.1045
 5730SOL    HW119822   5.261   6.820   6.570 -2.2346 -0.5216  1.2003
 5730SOL    HW219823   5.182   6.937   6.516 -0.7027 -0.2108 -0.4536
 5731SOL     OW19824   9.823   9.648   1.748  0.2808  0.4163  0.6326
 5731SOL    HW119825   9.892   9.628   1.684  0.0682  0.1226  0.4926
 5731SOL    HW219826   9.770   9.716   1.706 -1.4382 -1.6060 -0.6629
 5732SOL     OW19827   4.948   0.153   4.723  0.2502  0.5049 -0.1260
 5732SOL    HW119828   4.995   0.130   4.804 -0.1157  1.3093  0.3192
 5732SOL    HW219829   5.015   0.194   4.668  0.4944 -0.0184 -0.2271
 5733SOL     OW19830   1.319   4.015   1.364 -0.1658 -0.2969  0.1675
 5733SOL    HW119831   1.315   4.089   1.424 -1.1070  0.7240 -1.1115
 5733SOL    HW219832   1.231   3.977   1.367 -0.5040  0.3178 -1.2028
 5734SOL     OW19833   4.680   7.005   8.924 -1.0336  0.4969  0.5721
 5734SOL    HW119834   4.706   7.092   8.955 -0.8276  0.9720 -0.8734
 5734SOL    HW219835   4.699   6.947   8.998 -0.1479  1.5156  1.1743
 5735SOL     OW19836   3.422   8.504   8.139  0.4347 -0.2042 -0.6462
 5735SOL    HW119837   3.406   8.442   8.068  0.6066 -0.6297 -0.3164
 5735SOL    HW219838   3.447   8.450   8.214 -0.9301  0.1456  0.0922
 5736SOL     OW19839   9.271   5.275   9.031  0.0262 -0.1133  0.7050
 5736SOL    HW119840   9.257   5.338   8.961  2.5895  1.4647  1.4550
 5736SOL    HW219841   9.198   5.288   9.091  0.8121  2.8051  1.1972
 5737SOL     OW19842   7.627   3.212   3.448  0.2199  0.0969  0.1424
 5737SOL    HW119843   7.719   3.222   3.423 -0.2142 -1.4331 -2.4281
 5737SOL    HW219844   7.618   3.119   3.468 -0.4748  0.5204  2.0308
 5738SOL     OW19845   9.929   3.641   7.092 -0.6766 -0.0883  0.9796
 5738SOL    HW119846   9.875   3.677   7.021  0.7090 -1.9983 -1.2041
 5738SOL    HW219847   9.997   3.707   7.107 -0.0172 -0.3442 -0.6973
 5739SOL     OW19848   0.249   4.663   5.059 -0.3068 -0.3108  0.3684
 5739SOL    HW119849   0.167   4.655   5.010 -0.7808 -0.8696  1.2119
 5739SOL    HW219850   0.299   4.586   5.034 -0.0439  0.0155 -0.1249
 5740SOL     OW19851   2.252   6.956   3.784  0.8227  0.1579 -0.0643
 5740SOL    HW119852   2.273   7.031   3.840  1.0522 -0.5277  0.7855
 5740SOL    HW219853   2.190   6.991   3.720 -0.0526  0.7960  1.0771
 5741SOL     OW19854   8.663   2.859   1.187  0.0236 -0.0194 -0.5130
 5741SOL    HW119855   8.643   2.952   1.172  0.9829  0.1228 -1.0032
 5741SOL    HW219856   8.646   2.845   1.280  1.8509  1.1799  0.0330
 5742SOL     OW19857   4.433  10.244   8.476  0.1098  0.3589  0.1022
 5742SOL    HW119858   4.400  10.183   8.542 -2.1213  0.4001 -0.8638
 5742SOL    HW219859   4.379  10.323   8.488 -1.2149 -0.0512 -2.4361
 5743SOL     OW19860   6.520   8.719   7.612 -0.1140  0.8741 -0.0537
 5743SOL    HW119861   6.485   8.630   7.616 -0.1025  0.7867 -1.4337
 5743SOL    HW219862   6.585   8.722   7.683 -0.2557 -0.1517  0.1343
 5744SOL     OW19863   2.625   8.904   0.184  0.1276 -0.5178  0.2166
 5744SOL    HW119864   2.631   8.967   0.256 -0.0962  0.5199 -0.6386
 5744SOL    HW219865   2.716   8.883   0.162  0.3598  1.8434 -1.4270
 5745SOL     OW19866   6.984   1.560   2.335  0.0706 -0.1120 -0.0116
 5745SOL    HW119867   6.995   1.614   2.414  2.6448  1.0175 -1.0513
 5745SOL    HW219868   6.931   1.614   2.277 -0.4399 -0.2611  0.3059
 5746SOL     OW19869   7.092   4.897   7.671 -0.3152 -0.5719  0.1965
 5746SOL    HW119870   7.007   4.942   7.663 -0.2875 -0.3946  0.8971
 5746SOL    HW219871   7.127   4.926   7.755 -0.0930 -1.5594  0.4578
 5747SOL     OW19872   6.703   0.166   7.679 -0.2395 -0.1314 -0.3103
 5747SOL    HW119873   6.754   0.185   7.758 -1.5592  0.5227  0.4301
 5747SOL    HW219874   6.751   0.096   7.635  1.0626  0.1936  0.5491
 5748SOL     OW19875   7.104   9.632   0.379  0.2263 -0.3208  0.7726
 5748SOL    HW119876   7.177   9.690   0.357  0.1349  0.1929  1.7651
 5748SOL    HW219877   7.057   9.678   0.449 -0.8715 -0.7875  0.3693
 5749SOL     OW19878   3.995   4.446   3.476 -0.6922 -0.7371 -0.1667
 5749SOL    HW119879   3.954   4.381   3.418 -2.4202  2.1542 -2.4840
 5749SOL    HW219880   4.076   4.469   3.432 -1.1070  0.1249 -0.5027
 5750SOL     OW19881   7.109   2.935   9.685  0.0557  0.0291 -0.7340
 5750SOL    HW119882   7.123   2.933   9.590 -1.9995  0.8317 -1.1105
 5750SOL    HW219883   7.171   2.871   9.720  0.7578 -0.3948 -2.6238
 5751SOL     OW19884   5.650   6.421   9.525 -0.4089  0.4651 -0.4382
 5751SOL    HW119885   5.713   6.349   9.523 -0.5022  0.3924 -2.1140
 5751SOL    HW219886   5.609   6.414   9.611 -0.9011 -1.9061 -0.7900
 5752SOL     OW19887   6.873   9.775   2.326 -0.2683  0.3984  0.3803
 5752SOL    HW119888   6.964   9.806   2.325 -0.1041 -0.0215 -1.2138
 5752SOL    HW219889   6.849   9.769   2.233 -1.8381  0.2162  0.7671
 5753SOL     OW19890   1.504   3.836   1.267 -0.2500 -0.2465  0.2235
 5753SOL    HW119891   1.540   3.825   1.355 -1.4589 -0.1656  0.7481
 5753SOL    HW219892   1.440   3.907   1.276 -1.5994 -1.3425 -0.3153
 5754SOL     OW19893   9.262   0.332   9.079 -0.1643  0.4716 -0.0705
 5754SOL    HW119894   9.286   0.390   9.007  1.3262  1.0373  0.8467
 5754SOL    HW219895   9.289   0.245   9.050  0.6507  0.7324 -0.1220
 5755SOL     OW19896   1.528   0.245   2.461  0.0970 -0.9799  0.4841
 5755SOL    HW119897   1.560   0.240   2.551  0.9256  2.0245  0.4383
 5755SOL    HW219898   1.598   0.205   2.409  0.9405 -0.1596  0.9559
 5756SOL     OW19899   6.897   2.549   3.565  0.2993  0.4856 -0.0006
 5756SOL    HW119900   6.890   2.641   3.542  2.7656  0.7483  0.0505
 5756SOL    HW219901   6.924   2.506   3.484  0.8751  0.0896  0.3991
 5757SOL     OW19902   1.829   5.620   9.359 -0.3662  0.5840 -0.1660
 5757SOL    HW119903   1.826   5.701   9.409  0.2087 -0.2569  1.2959
 5757SOL    HW219904   1.737   5.593   9.350 -0.5501  1.3124 -0.5672
 5758SOL     OW19905   7.370   1.515   7.792  0.1834 -0.5921 -0.3852
 5758SOL    HW119906   7.326   1.434   7.818  1.7743 -1.6019 -0.6740
 5758SOL    HW219907   7.412   1.494   7.709 -2.0426  1.5702 -2.2048
 5759SOL     OW19908   8.730   7.093   0.469  0.0238  0.2804  0.1835
 5759SOL    HW119909   8.799   7.081   0.403 -1.2640  0.2344 -1.1988
 5759SOL    HW219910   8.745   7.182   0.502  0.1766  0.6326 -0.7950
 5760SOL     OW19911   7.244   8.852   3.742 -0.3198 -0.1738 -0.3417
 5760SOL    HW119912   7.205   8.834   3.657 -0.0077 -0.1741 -0.4876
 5760SOL    HW219913   7.244   8.767   3.787 -3.0847  0.3314  0.7780
 5761SOL     OW19914   7.166   6.094   0.458  0.5027 -0.0056 -0.2781
 5761SOL    HW119915   7.072   6.115   0.459  0.5048 -0.0069  0.4721
 5761SOL    HW219916   7.170   6.001   0.478  0.7064  0.2033  0.6998
 5762SOL     OW19917   6.904   3.766   1.352 -0.1875  0.2836 -0.0378
 5762SOL    HW119918   6.974   3.831   1.339 -1.0141  1.0453 -0.8358
 5762SOL    HW219919   6.897   3.721   1.268 -0.4083 -0.0389  0.1520
 5763SOL     OW19920   0.386   4.789  10.049  0.0004 -0.3538  0.1165
 5763SOL    HW119921   0.377   4.718  10.111 -2.7053 -0.8038 -0.6933
 5763SOL    HW219922   0.463   4.765   9.996 -1.0924 -2.9429 -0.4299
 5764SOL     OW19923   5.157   0.737   2.662  0.0921  0.0006  0.0494
 5764SOL    HW119924   5.226   0.672   2.649 -1.6235 -1.8923  0.0413
 5764SOL    HW219925   5.128   0.758   2.574  2.2496  2.7475 -0.1563
 5765SOL     OW19926   5.255   9.731   9.640 -0.7786 -1.0586  0.1227
 5765SOL    HW119927   5.321   9.786   9.598  0.4448 -1.1132  1.8643
 5765SOL    HW219928   5.264   9.645   9.599 -0.6122 -0.7590 -0.4817
 5766SOL     OW19929   0.901   3.455   2.576 -1.0161 -0.0885  0.0155
 5766SOL    HW119930   0.954   3.490   2.504  0.2064  1.2111  1.4621
 5766SOL    HW219931   0.947   3.376   2.603 -1.0008 -0.1135 -0.0827
 5767SOL     OW19932   5.187   3.271   1.550 -0.0042 -0.0788  0.4829
 5767SOL    HW119933   5.100   3.273   1.511 -0.0633  0.2814  0.6293
 5767SOL    HW219934   5.233   3.201   1.503 -0.6096 -0.7928  0.9165
 5768SOL     OW19935   0.617   8.427   8.207  0.4190  0.0692  0.1699
 5768SOL    HW119936   0.530   8.424   8.167  0.1864  1.1126  0.5699
 5768SOL    HW219937   0.599   8.426   8.301  0.8886 -0.6821  0.2548
 5769SOL     OW19938   3.109   7.252   2.846 -0.2139  0.1231 -0.6489
 5769SOL    HW119939   3.140   7.240   2.936 -0.6328  2.7691 -0.0872
 5769SOL    HW219940   3.090   7.163   2.815  2.1188 -1.0601  1.0499
 5770SOL     OW19941   8.657   4.652   5.530  0.2349 -0.1182  0.5824
 5770SOL    HW119942   8.565   4.628   5.538  0.4189 -1.0698  0.0368
 5770SOL    HW219943   8.705   4.574   5.556  0.8602 -0.5058 -1.5535
 5771SOL     OW19944   7.133   3.614   6.191 -0.3649 -0.2013  0.2867
 5771SOL    HW119945   7.115   3.539   6.135  1.3206 -0.3776 -0.0727
 5771SOL    HW219946   7.213   3.653   6.155 -0.7651  1.2979  0.9406
 5772SOL     OW19947   8.779   9.846   1.347 -0.6999 -0.4209  0.3324
 5772SOL    HW119948   8.711   9.784   1.321 -0.5917  0.9219 -3.9299
 5772SOL    HW219949   8.853   9.792   1.373 -1.4060 -2.0598 -0.9234
 5773SOL     OW19950   7.917   2.879   6.243  0.4135  0.3406 -0.5225
 5773SOL    HW119951   7.866   2.959   6.233 -0.0505  0.2620  0.9621
 5773SOL    HW219952   7.950   2.860   6.155  0.7016  2.2641 -0.8806
 5774SOL     OW19953   8.226   0.620   1.188  0.6754 -0.7785  0.3329
 5774SOL    HW119954   8.245   0.643   1.097  0.1398  0.4589  0.5234
 5774SOL    HW219955   8.259   0.530   1.196  0.6170 -0.9668 -1.1125
 5775SOL     OW19956   8.241   2.729   9.543  0.3141 -0.4637 -0.6435
 5775SOL    HW119957   8.281   2.731   9.457 -1.4922  0.8200 -1.5273
 5775SOL    HW219958   8.191   2.647   9.544  0.5397 -0.6031 -0.7072
 5776SOL     OW19959   9.052   9.805   4.004  0.6214  0.7799  0.0930
 5776SOL    HW119960   9.058   9.898   4.028 -0.5366  0.7390  0.6415
 5776SOL    HW219961   9.039   9.760   4.087 -0.0867  0.2664 -0.2908
 5777SOL     OW19962   9.728   7.801   7.793 -0.2639  0.4238  0.7750
 5777SOL    HW119963   9.723   7.878   7.735  0.0956  0.7689  1.1970
 5777SOL    HW219964   9.641   7.797   7.834  0.0062  1.1603  1.4450
 5778SOL     OW19965   5.264   5.111   6.036  0.3615  0.0816  0.2526
 5778SOL    HW119966   5.355   5.102   6.063  0.0201 -2.1909  0.8764
 5778SOL    HW219967   5.250   5.040   5.973 -0.6952  1.0855 -0.7011
 5779SOL     OW19968   8.975   3.660   5.289  0.1625  0.3678  0.5538
 5779SOL    HW119969   8.993   3.700   5.375 -1.1028 -1.2894  1.6493
 5779SOL    HW219970   9.022   3.577   5.291  1.4599  1.0021 -1.0678
 5780SOL     OW19971   7.889   9.193   7.972  0.2431  0.0830  0.2441
 5780SOL    HW119972   7.855   9.198   7.882 -0.7919 -1.2496  0.5298
 5780SOL    HW219973   7.859   9.274   8.013  0.1931  0.4165 -0.4327
 5781SOL     OW19974   5.656   4.318   2.952  0.4667  0.0579 -0.9216
 5781SOL    HW119975   5.659   4.283   2.863 -0.9225 -0.3148 -0.8403
 5781SOL    HW219976   5.575   4.368   2.956  0.0559 -0.6601  0.3776
 5782SOL     OW19977   9.002  10.277   9.077 -0.3446 -0.0635  0.3511
 5782SOL    HW119978   8.990  10.182   9.068  0.6817 -0.3690  1.7461
 5782SOL    HW219979   8.986  10.294   9.170  0.2478  1.0026  0.2701
 5783SOL     OW19980   4.399   2.735   1.344 -0.6556 -0.3509  0.0832
 5783SOL    HW119981   4.455   2.806   1.310 -0.9032 -0.1280  0.1392
 5783SOL    HW219982   4.461   2.673   1.383 -0.4519 -0.0552  0.2347
 5784SOL     OW19983   4.309   2.455   0.741  0.4264  0.3317  0.2092
 5784SOL    HW119984   4.283   2.363   0.745  0.3902  0.3664  1.4760
 5784SOL    HW219985   4.305   2.479   0.649 -1.6095 -0.3587  0.0848
 5785SOL     OW19986   7.489   6.728   9.701 -0.2905  0.1969  0.2871
 5785SOL    HW119987   7.556   6.682   9.751 -1.4873 -2.1410 -0.1421
 5785SOL    HW219988   7.419   6.664   9.689 -1.9607  2.0807 -0.5784
 5786SOL     OW19989   3.601   0.997   8.406  0.1352 -0.2931  0.0592
 5786SOL    HW119990   3.600   1.077   8.352  1.0325  0.1887  0.7296
 5786SOL    HW219991   3.515   0.995   8.447 -0.1620 -0.0748 -0.5414
 5787SOL     OW19992   4.937   0.740   1.874  0.1459 -0.1937  0.2594
 5787SOL    HW119993   4.946   0.712   1.965 -0.2449 -0.3195  0.2634
 5787SOL    HW219994   4.864   0.802   1.876  0.0091 -0.3443  0.0048
 5788SOL     OW19995   3.664   6.828   2.637 -0.1603  0.5426  0.0063
 5788SOL    HW119996   3.574   6.834   2.603 -0.4177 -0.9540  0.3527
 5788SOL    HW219997   3.653   6.821   2.732  0.3654  0.9775  0.1052
 5789SOL     OW19998   8.941   7.512   3.856 -0.3109  0.1744 -0.5536
 5789SOL    HW119999   8.862   7.549   3.817 -1.3524 -1.2837  0.1246
 5789SOL    HW220000   8.928   7.418   3.854  1.1536 -0.0725  0.1173
 5790SOL     OW20001   8.702   2.377   4.529  0.7312 -0.3786 -0.1597
 5790SOL    HW120002   8.752   2.328   4.464 -0.5551 -3.2280  0.8324
 5790SOL    HW220003   8.611   2.355   4.510  0.2860 -0.7939  2.1553
 5791SOL     OW20004   7.061   4.932   0.490  0.1547  0.1583 -0.2140
 5791SOL    HW120005   6.997   5.001   0.471  2.0001  1.8524 -0.5616
 5791SOL    HW220006   7.080   4.942   0.583 -2.2000 -2.3139  0.6794
 5792SOL     OW20007   3.187   7.164   3.672 -0.1220 -0.3912  0.0177
 5792SOL    HW120008   3.235   7.101   3.617 -1.3855 -1.2203 -0.1770
 5792SOL    HW220009   3.101   7.171   3.631 -0.3808  0.6197  0.6909
 5793SOL     OW20010   3.376   7.588   2.837 -0.5609  0.1581  0.6103
 5793SOL    HW120011   3.287   7.577   2.870 -0.5041 -0.1885  0.6464
 5793SOL    HW220012   3.369   7.658   2.772 -0.9953 -0.3935  0.0622
 5794SOL     OW20013   7.418  10.061   5.243 -0.0698 -0.0180  0.0979
 5794SOL    HW120014   7.338  10.057   5.191  1.0099 -3.1980 -1.5509
 5794SOL    HW220015   7.392  10.032   5.331 -0.8254 -0.4707 -0.2701
 5795SOL     OW20016   9.352   4.256   0.494 -0.5287  0.1382  0.2126
 5795SOL    HW120017   9.295   4.286   0.565 -0.1868 -0.0502  0.5665
 5795SOL    HW220018   9.421   4.206   0.537 -0.4537 -0.1885 -0.2716
 5796SOL     OW20019   9.710   2.466   6.193 -0.1675  0.0559  0.5128
 5796SOL    HW120020   9.669   2.384   6.167 -0.5256  0.0080  1.2090
 5796SOL    HW220021   9.649   2.505   6.256  0.4933  0.3411  1.0008
 5797SOL     OW20022   3.699   8.584   6.117 -0.1891  0.3434 -0.3596
 5797SOL    HW120023   3.702   8.674   6.148 -2.2022  0.7818 -1.2042
 5797SOL    HW220024   3.618   8.580   6.065  1.8058 -0.8640 -3.7059
 5798SOL     OW20025   7.811   1.954   7.423 -0.4622 -0.2669 -0.6443
 5798SOL    HW120026   7.740   1.998   7.376 -1.0857 -0.5550  0.0087
 5798SOL    HW220027   7.801   1.862   7.400  0.3558 -0.1775 -1.3847
 5799SOL     OW20028   9.104   9.122   3.489 -0.0394  0.0428 -0.7541
 5799SOL    HW120029   9.144   9.209   3.491 -1.5799  0.7613  0.4443
 5799SOL    HW220030   9.043   9.125   3.416 -1.7385  0.7970  0.6153
 5800SOL     OW20031   4.124   8.281   3.875  0.3939 -0.6140  0.2626
 5800SOL    HW120032   4.211   8.301   3.910  0.5393  0.8692 -0.8580
 5800SOL    HW220033   4.068   8.347   3.914  0.4046  0.5377 -1.5728
 5801SOL     OW20034   8.638  10.113   2.995 -0.7404 -0.0754  0.2724
 5801SOL    HW120035   8.717  10.082   3.038 -1.2325 -0.7575  0.7181
 5801SOL    HW220036   8.604  10.036   2.948 -0.3653  0.5787 -1.1349
 5802SOL     OW20037  10.196   7.492   4.313 -0.1913  0.5020  0.5417
 5802SOL    HW120038  10.157   7.503   4.227 -0.4047 -0.4331  0.5030
 5802SOL    HW220039  10.274   7.438   4.297 -1.9274 -2.4593  1.2664
 5803SOL     OW20040   5.272   0.087   1.710  0.2127 -0.0582  0.0343
 5803SOL    HW120041   5.223   0.149   1.764  0.3308 -1.1659  1.4968
 5803SOL    HW220042   5.216   0.071   1.635 -1.0594 -0.2467  0.9912
 5804SOL     OW20043   1.776   6.070   0.741 -0.7782 -0.3949  0.0668
 5804SOL    HW120044   1.824   6.121   0.806  0.6141 -2.8982  1.1530
 5804SOL    HW220045   1.790   6.117   0.659  0.6610  0.8206  0.9473
 5805SOL     OW20046   6.755   3.309   5.531 -0.0691  0.0655 -0.8607
 5805SOL    HW120047   6.700   3.236   5.560 -0.0870  0.0654 -0.8945
 5805SOL    HW220048   6.773   3.359   5.610 -0.2685  0.1670 -0.8781
 5806SOL     OW20049   7.702   2.616   1.634  0.0894 -0.1220 -0.0679
 5806SOL    HW120050   7.673   2.684   1.574 -1.0423 -0.1249  0.4488
 5806SOL    HW220051   7.653   2.538   1.607 -0.1296 -0.2214  0.5862
 5807SOL     OW20052   0.913   2.201   5.561  0.0824 -0.0586  0.3759
 5807SOL    HW120053   0.978   2.131   5.556  0.3292  0.0583  1.5375
 5807SOL    HW220054   0.880   2.197   5.651 -0.4624  0.8159  0.2343
 5808SOL     OW20055   1.623   5.450   0.564 -0.1472 -0.4538  0.4413
 5808SOL    HW120056   1.686   5.392   0.608 -0.0081 -1.4997 -1.0708
 5808SOL    HW220057   1.560   5.472   0.633  0.7187 -1.0498  1.4689
 5809SOL     OW20058   4.530   1.786   0.734  0.1911 -0.7011 -0.0614
 5809SOL    HW120059   4.470   1.765   0.806 -0.3701 -1.1744 -0.6466
 5809SOL    HW220060   4.532   1.881   0.731 -1.2147 -0.6572 -0.5559
 5810SOL     OW20061   7.399   6.511   9.272  0.2921  0.2381  0.6894
 5810SOL    HW120062   7.376   6.586   9.328  0.5353  1.1502 -0.3984
 5810SOL    HW220063   7.412   6.549   9.186 -2.2743 -1.3908 -0.5573
 5811SOL     OW20064   1.562   1.977   1.593 -0.4239  0.1026  0.1159
 5811SOL    HW120065   1.646   1.984   1.639 -1.5624 -2.7298  2.9977
 5811SOL    HW220066   1.507   1.924   1.651 -2.6988 -2.2131 -3.7387
 5812SOL     OW20067  10.224   6.356   0.918  0.1482  0.1791 -0.3180
 5812SOL    HW120068  10.199   6.392   0.832  0.8491  0.4869 -0.3983
 5812SOL    HW220069  10.156   6.291   0.937 -0.6458  0.9071 -0.5876
 5813SOL     OW20070   4.515   9.475   1.906 -0.3535  0.3485  0.3138
 5813SOL    HW120071   4.589   9.500   1.962 -1.4558  0.2899  1.8597
 5813SOL    HW220072   4.510   9.380   1.916 -1.1468  0.4441  0.9030
 5814SOL     OW20073   2.975   5.585   4.262  0.5379 -0.2207 -0.4212
 5814SOL    HW120074   3.016   5.502   4.284 -0.2990 -0.8522 -1.1311
 5814SOL    HW220075   2.921   5.607   4.338  0.7424 -0.3417 -0.2429
 5815SOL     OW20076   9.953   4.649   4.150 -0.4513 -0.2010 -0.3449
 5815SOL    HW120077  10.017   4.720   4.155 -0.6487 -0.0949  1.4541
 5815SOL    HW220078   9.935   4.639   4.057  1.2877  0.5563 -0.8001
 5816SOL     OW20079   4.516   2.417   5.379  0.1220  0.0749 -0.4530
 5816SOL    HW120080   4.580   2.412   5.450  0.7243  0.1937 -0.9855
 5816SOL    HW220081   4.515   2.509   5.353  1.9920 -0.4188 -2.4805
 5817SOL     OW20082   5.784   0.705   7.148 -1.3312 -0.1402 -0.6997
 5817SOL    HW120083   5.837   0.722   7.070 -1.5451  1.0297 -0.5997
 5817SOL    HW220084   5.835   0.741   7.220 -0.8332 -1.7877 -0.1856
 5818SOL     OW20085   5.913   1.244   2.194  0.1065  0.4153 -0.0951
 5818SOL    HW120086   5.916   1.327   2.145  0.3161 -0.3639 -1.4544
 5818SOL    HW220087   5.971   1.185   2.145 -0.3838 -0.6701  0.5905
 5819SOL     OW20088   8.749   5.659   8.504 -0.1583 -0.2316  0.1083
 5819SOL    HW120089   8.658   5.671   8.531 -0.0988 -0.8466  0.5874
 5819SOL    HW220090   8.751   5.572   8.464 -0.0770  0.3434 -1.2052
 5820SOL     OW20091   9.486   7.424   9.495  0.5974 -0.2372  0.6865
 5820SOL    HW120092   9.413   7.469   9.537 -1.2765 -0.8567 -1.7126
 5820SOL    HW220093   9.517   7.362   9.561 -2.1646 -1.1287  1.2765
 5821SOL     OW20094   7.537   7.996   9.542 -0.3164 -0.1763  0.0418
 5821SOL    HW120095   7.515   8.070   9.599  0.4117 -1.4088  2.0266
 5821SOL    HW220096   7.605   8.031   9.484 -0.6456  0.9604  0.3004
 5822SOL     OW20097   0.514   5.375   6.655 -0.0044 -0.4388 -0.0217
 5822SOL    HW120098   0.522   5.460   6.612 -1.3129 -0.6549 -0.7499
 5822SOL    HW220099   0.425   5.374   6.691  1.2081  0.0066  3.3742
 5823SOL     OW20100   6.153   5.992   5.176 -0.5150  0.1967 -0.1107
 5823SOL    HW120101   6.082   6.049   5.207 -0.5884 -0.2995  0.6518
 5823SOL    HW220102   6.155   5.920   5.239  0.7158  0.2414 -0.0844
 5824SOL     OW20103   3.715   6.712   6.835  0.3763 -0.9978  0.4675
 5824SOL    HW120104   3.727   6.639   6.774  0.3901 -3.2896  3.0266
 5824SOL    HW220105   3.622   6.733   6.829  0.1755 -1.8882  0.3843
 5825SOL     OW20106   9.145   2.987   8.669 -0.2599  0.1151 -0.1750
 5825SOL    HW120107   9.234   2.994   8.706  0.1464 -2.9413 -0.3413
 5825SOL    HW220108   9.141   3.058   8.605  2.2948  0.0271 -0.5599
 5826SOL     OW20109   1.686   4.783   0.251 -0.3081  0.7744  0.3485
 5826SOL    HW120110   1.765   4.834   0.268 -0.6993  1.8064 -0.8314
 5826SOL    HW220111   1.650   4.766   0.338  1.7166 -0.5903  0.9852
 5827SOL     OW20112   3.088   6.610  10.143 -0.5598 -0.5160 -0.7015
 5827SOL    HW120113   3.088   6.526  10.187  1.3546  0.3752  1.1530
 5827SOL    HW220114   3.069   6.674  10.212  0.1264  0.7369 -1.6248
 5828SOL     OW20115   5.163   4.433  10.300  0.8655  0.0699  0.2558
 5828SOL    HW120116   5.169   4.362  10.236 -1.9321  0.0167 -0.0745
 5828SOL    HW220117   5.143   4.389  10.382  1.0061  0.3687  0.4510
 5829SOL     OW20118   6.673   1.024   3.383  0.2746  0.4989 -0.7572
 5829SOL    HW120119   6.708   1.113   3.388  0.9060  0.2549 -0.7227
 5829SOL    HW220120   6.633   1.009   3.468  0.4821  0.6280 -0.6348
 5830SOL     OW20121   2.175   2.360   6.043  0.0633  0.9678  0.1776
 5830SOL    HW120122   2.264   2.392   6.062  0.4531  0.3426 -0.5385
 5830SOL    HW220123   2.184   2.265   6.044 -0.5896  0.9017  0.0050
 5831SOL     OW20124   4.596   6.432   4.739  0.3580 -0.2157 -0.4582
 5831SOL    HW120125   4.545   6.393   4.809 -2.2019  0.8455 -1.5898
 5831SOL    HW220126   4.592   6.369   4.667  3.1306 -1.3901  0.2717
 5832SOL     OW20127   1.652   4.105   3.821 -0.3133 -0.5661  0.0975
 5832SOL    HW120128   1.731   4.120   3.873 -0.5150 -0.8272  0.4838
 5832SOL    HW220129   1.638   4.010   3.826 -1.0472 -0.4392  0.6276
 5833SOL     OW20130   2.654   6.386   5.481  0.6370 -0.4456 -0.4270
 5833SOL    HW120131   2.722   6.340   5.530 -0.8208 -1.3620  0.8105
 5833SOL    HW220132   2.697   6.464   5.447  2.5985 -1.5723 -0.6750
 5834SOL     OW20133   8.366   5.409   5.801 -0.6148  0.0099  0.2883
 5834SOL    HW120134   8.417   5.374   5.873  0.4665  0.3876 -0.2722
 5834SOL    HW220135   8.409   5.374   5.722 -0.7770  0.9121 -0.2123
 5835SOL     OW20136   3.299   4.376  10.128  0.0730 -0.7576 -0.1711
 5835SOL    HW120137   3.383   4.329  10.127 -1.5876 -4.0719  0.2345
 5835SOL    HW220138   3.287   4.404  10.037  0.8975 -1.7416 -0.6180
 5836SOL     OW20139   0.105   7.199   0.025 -0.2751 -0.0823 -0.4921
 5836SOL    HW120140   0.139   7.130   0.081  0.0562  0.8222  0.4410
 5836SOL    HW220141   0.181   7.251   0.002 -0.5207 -0.0339 -1.2222
 5837SOL     OW20142   1.761   1.478   7.726 -0.3306 -0.8260 -0.5060
 5837SOL    HW120143   1.814   1.401   7.749  1.9416  0.5465 -0.9128
 5837SOL    HW220144   1.752   1.526   7.809 -1.4425 -1.3071 -0.3275
 5838SOL     OW20145   4.746   6.544   0.737  0.3900  0.9687  0.3501
 5838SOL    HW120146   4.768   6.491   0.813  0.3319  0.4118 -0.0145
 5838SOL    HW220147   4.668   6.593   0.763 -0.4944 -0.2837  0.1775
 5839SOL     OW20148   3.455   9.145   6.070 -0.4459 -0.1185 -0.2006
 5839SOL    HW120149   3.488   9.197   6.144 -1.1075 -1.6579  1.2571
 5839SOL    HW220150   3.533   9.110   6.028 -0.0744 -0.0753  0.4332
 5840SOL     OW20151   4.519   7.412   2.702  0.2049  0.3287  0.0711
 5840SOL    HW120152   4.584   7.346   2.680 -1.7106 -2.9130  3.0230
 5840SOL    HW220153   4.450   7.401   2.637 -0.1092 -0.7095  0.5514
 5841SOL     OW20154   1.709   3.882   8.715 -0.3128 -0.5722 -0.2489
 5841SOL    HW120155   1.725   3.801   8.763 -1.4944  0.0034  1.1644
 5841SOL    HW220156   1.788   3.893   8.661  0.4842 -1.9130  0.5715
 5842SOL     OW20157   3.098   6.689   6.135  0.3572 -0.5310 -0.3228
 5842SOL    HW120158   3.166   6.648   6.082  0.3850  0.3294 -0.9868
 5842SOL    HW220159   3.077   6.625   6.202  2.6251 -0.4064  0.6005
 5843SOL     OW20160   7.136   0.882   4.589  0.4801 -0.6495  0.4122
 5843SOL    HW120161   7.102   0.951   4.532  2.4007  1.6131  1.7995
 5843SOL    HW220162   7.061   0.853   4.640 -0.7671 -1.0129 -1.5476
 5844SOL     OW20163   1.446   9.722  10.248  0.8403  0.6006 -0.4351
 5844SOL    HW120164   1.491   9.787  10.194  0.4348  1.5874  0.3729
 5844SOL    HW220165   1.482   9.735  10.336  0.2364  0.2241 -0.1293
 5845SOL     OW20166   4.068   3.816   8.594  0.2343  0.3482  0.0231
 5845SOL    HW120167   4.040   3.848   8.508  0.7700 -0.5080 -0.4877
 5845SOL    HW220168   4.079   3.896   8.647  0.9021  0.9665 -1.0107
 5846SOL     OW20169   2.745   9.623   5.082  0.2289 -0.2422 -0.2374
 5846SOL    HW120170   2.704   9.679   5.148  0.6444 -1.0871  0.7653
 5846SOL    HW220171   2.825   9.669   5.056  0.3021 -0.1260  0.1980
 5847SOL     OW20172   7.135   5.956   7.544 -0.2971  0.2063  0.4293
 5847SOL    HW120173   7.187   5.933   7.467 -0.9314  1.3450 -0.3622
 5847SOL    HW220174   7.063   6.009   7.510 -1.7494 -0.9730  1.5635
 5848SOL     OW20175   7.979   6.795   6.313  0.3172  0.5510 -0.8713
 5848SOL    HW120176   8.029   6.817   6.392 -0.2548 -1.4840  0.1246
 5848SOL    HW220177   8.032   6.830   6.241  2.2497  0.1128  0.2533
 5849SOL     OW20178  10.299   7.111   1.718 -0.0517  0.1076  0.0653
 5849SOL    HW120179  10.304   7.019   1.741  1.7941  0.6168  2.0627
 5849SOL    HW220180  10.233   7.148   1.776  0.5537  0.3501  0.6203
 5850SOL     OW20181   9.549   0.459   5.551  0.6649  0.1019 -0.1688
 5850SOL    HW120182   9.636   0.429   5.524  0.7735 -0.9307  1.2025
 5850SOL    HW220183   9.489   0.405   5.501  0.8358 -0.2001 -0.0536
 5851SOL     OW20184   0.305   7.180   0.880  0.4368  0.1764  0.1105
 5851SOL    HW120185   0.268   7.258   0.921 -1.2742 -0.1127 -0.8130
 5851SOL    HW220186   0.392   7.172   0.919  0.2084  1.8763  1.0746
 5852SOL     OW20187   0.462   7.459   9.789  0.5853 -0.3515  0.0280
 5852SOL    HW120188   0.517   7.390   9.827  0.6237  0.0466  0.7215
 5852SOL    HW220189   0.509   7.489   9.712  0.1890 -1.6419 -0.7400
 5853SOL     OW20190   7.798   3.216   5.500 -0.2686 -0.5809 -0.9366
 5853SOL    HW120191   7.706   3.241   5.491 -0.0164  0.4643 -0.7098
 5853SOL    HW220192   7.817   3.230   5.593 -0.3871 -2.6272 -0.5666
 5854SOL     OW20193   6.884   1.664   8.553 -0.3113 -0.1138  0.3968
 5854SOL    HW120194   6.874   1.578   8.593 -0.6039 -0.9806 -1.4428
 5854SOL    HW220195   6.814   1.669   8.488  0.1357  1.2142 -0.0212
 5855SOL     OW20196   7.067   6.432   6.548  0.0966  0.1489 -0.3621
 5855SOL    HW120197   6.984   6.472   6.574  1.1224  2.3713 -0.2246
 5855SOL    HW220198   7.133   6.497   6.573  1.6361 -0.2393 -3.0153
 5856SOL     OW20199   8.307   6.573   4.443  0.5028 -0.0499  0.3087
 5856SOL    HW120200   8.373   6.598   4.379 -0.6359 -1.6005 -1.5779
 5856SOL    HW220201   8.342   6.603   4.527  3.5540 -0.7662 -0.5899
 5857SOL     OW20202   1.535   9.217   9.226 -0.2338  0.0123 -1.1638
 5857SOL    HW120203   1.595   9.275   9.273 -0.3701 -0.2983 -0.6000
 5857SOL    HW220204   1.466   9.197   9.289 -0.7113  0.0326 -1.6753
 5858SOL     OW20205   3.834   6.997   0.912 -0.2647  0.1961 -0.5432
 5858SOL    HW120206   3.902   7.053   0.948 -0.8779  0.8301 -0.3618
 5858SOL    HW220207   3.766   7.057   0.882 -1.6139 -0.4972  1.0120
 5859SOL     OW20208   2.166   6.943   8.719  0.4507  0.6184  0.3188
 5859SOL    HW120209   2.198   7.013   8.776 -0.0783  0.0798  1.3155
 5859SOL    HW220210   2.071   6.955   8.719  0.1668 -1.1619  1.9965
 5860SOL     OW20211   4.321   7.982   6.128 -0.3533  0.1042  0.3127
 5860SOL    HW120212   4.382   8.045   6.168  0.2718  0.1316 -0.6449
 5860SOL    HW220213   4.255   8.037   6.085  1.0369  0.2241 -1.8545
 5861SOL     OW20214   4.564   2.320   4.004  0.3353 -0.4679  0.0495
 5861SOL    HW120215   4.643   2.356   4.044  1.0726 -1.3683 -0.5562
 5861SOL    HW220216   4.592   2.290   3.917 -0.2423 -2.3393  0.4567
 5862SOL     OW20217   4.569   7.230   6.223  0.8027 -0.2677  0.2449
 5862SOL    HW120218   4.657   7.193   6.225  0.3722 -1.5492 -1.7182
 5862SOL    HW220219   4.531   7.208   6.308  2.1263 -0.2725  0.8558
 5863SOL     OW20220   8.002   0.355   0.106 -0.0481  0.0713  0.2413
 5863SOL    HW120221   8.094   0.371   0.086  0.0370 -0.1532  0.4512
 5863SOL    HW220222   7.988   0.264   0.082  0.0048 -0.1442  1.0139
 5864SOL     OW20223   5.933   1.504   2.514 -0.0736 -0.2809 -0.3392
 5864SOL    HW120224   5.919   1.488   2.607  0.0858 -1.4110 -0.4963
 5864SOL    HW220225   5.909   1.596   2.502  0.5960  0.0893  0.9440
 5865SOL     OW20226   9.303   7.368   4.405  0.0831 -0.1814  0.1566
 5865SOL    HW120227   9.272   7.380   4.316 -1.1672 -0.2637  0.5660
 5865SOL    HW220228   9.318   7.273   4.413 -0.1599 -0.2234  0.1355
 5866SOL     OW20229   9.807   9.637   8.968  0.0923  0.3428  0.0887
 5866SOL    HW120230   9.856   9.555   8.964  0.4983  0.5279  0.8852
 5866SOL    HW220231   9.747   9.634   8.894 -3.0197 -2.6925  2.4163
 5867SOL     OW20232   8.229   7.100   5.895 -0.7035 -0.3315 -0.2337
 5867SOL    HW120233   8.197   7.162   5.960 -0.9242 -1.1486  0.4437
 5867SOL    HW220234   8.296   7.149   5.847 -1.7752  0.8472 -0.5757
 5868SOL     OW20235   0.635   7.237   8.173  0.6503  0.5452 -0.2593
 5868SOL    HW120236   0.702   7.218   8.108  1.6460  1.0762  0.6014
 5868SOL    HW220237   0.581   7.157   8.175  2.1022 -0.4604  0.0625
 5869SOL     OW20238   3.668   6.376   2.234 -0.1184 -0.1028 -0.1048
 5869SOL    HW120239   3.602   6.435   2.197 -1.0912  0.7495  2.7303
 5869SOL    HW220240   3.656   6.294   2.186 -0.8223  1.0508 -2.0455
 5870SOL     OW20241   4.290   4.472   6.642 -0.0522  0.3801 -0.2197
 5870SOL    HW120242   4.355   4.418   6.688 -0.4663 -0.6550 -0.8027
 5870SOL    HW220243   4.330   4.559   6.638  0.5421  0.1788  0.9456
 5871SOL     OW20244   1.506   7.524   0.906  0.4524 -0.3915  0.0780
 5871SOL    HW120245   1.528   7.575   0.984  1.6343  1.9146 -1.6429
 5871SOL    HW220246   1.415   7.548   0.886  0.7451  0.4509 -0.2678
 5872SOL     OW20247   2.627   0.403   6.639  0.0697 -0.6196 -0.7145
 5872SOL    HW120248   2.648   0.442   6.554  0.9780 -0.0168 -0.2235
 5872SOL    HW220249   2.588   0.318   6.617  1.7191 -1.1646 -1.7113
 5873SOL     OW20250   1.571   2.217   6.743  0.2013 -0.1017  0.6176
 5873SOL    HW120251   1.649   2.175   6.778  0.8246  1.8617  1.6723
 5873SOL    HW220252   1.580   2.309   6.765 -2.0715  0.3069  0.1151
 5874SOL     OW20253   5.512   0.412   3.533  0.3336  0.1425  0.2008
 5874SOL    HW120254   5.575   0.388   3.600 -0.3845  2.1970  1.7219
 5874SOL    HW220255   5.533   0.503   3.511 -2.1858  1.0047  0.9686
 5875SOL     OW20256   4.917   7.927   2.057 -0.3004  0.0166 -0.0021
 5875SOL    HW120257   4.998   7.890   2.021 -0.2817 -1.2089  1.2251
 5875SOL    HW220258   4.926   8.022   2.044 -0.9985 -0.2938 -4.6697
 5876SOL     OW20259   4.892   0.862   5.683 -0.2368 -0.0457 -0.5786
 5876SOL    HW120260   4.934   0.861   5.769 -1.7121  0.8886  0.1894
 5876SOL    HW220261   4.830   0.789   5.685 -2.4522  1.7176  0.3720
 5877SOL     OW20262   8.945   3.880   5.071 -0.3838  0.3859 -0.0026
 5877SOL    HW120263   8.957   3.841   4.984 -0.5948  1.0910 -0.3558
 5877SOL    HW220264   8.959   3.807   5.131 -2.5399 -0.6941 -0.6877
 5878SOL     OW20265  10.346   2.186   8.360  0.0305 -0.3784  0.2883
 5878SOL    HW120266  10.311   2.263   8.315 -0.1102  0.0909  1.1747
 5878SOL    HW220267  10.420   2.158   8.306 -1.0422 -0.7619 -1.0611
 5879SOL     OW20268   1.059   4.173   1.372 -0.2774 -0.0294 -0.2154
 5879SOL    HW120269   1.081   4.249   1.427 -0.7854  0.2953 -0.4557
 5879SOL    HW220270   1.093   4.196   1.285 -2.4637  0.9761 -0.8845
 5880SOL     OW20271   1.247   1.195   9.658  0.4061  0.1327  0.8282
 5880SOL    HW120272   1.223   1.230   9.744 -1.7677 -0.5488  0.5689
 5880SOL    HW220273   1.290   1.112   9.677 -0.4940 -0.2439  1.2695
 5881SOL     OW20274   8.272   1.092   7.635 -0.5339 -0.0056 -0.0571
 5881SOL    HW120275   8.235   1.048   7.558 -1.5810 -0.0426  0.4423
 5881SOL    HW220276   8.345   1.143   7.601 -0.8952 -0.1294 -1.0550
 5882SOL     OW20277   8.826   7.272   4.657  0.0416 -0.0811  0.3652
 5882SOL    HW120278   8.818   7.178   4.669  1.9236 -0.2293  0.8411
 5882SOL    HW220279   8.749   7.297   4.606 -1.4304 -1.5748  1.7440
 5883SOL     OW20280   5.078   1.281  10.236 -0.2046 -0.5635  0.2661
 5883SOL    HW120281   5.017   1.355  10.229  1.0298  0.3740 -1.5257
 5883SOL    HW220282   5.026   1.205  10.212 -0.9838  0.0500 -0.0482
 5884SOL     OW20283   8.772   4.430   2.911  0.3575  0.0709 -0.3087
 5884SOL    HW120284   8.750   4.508   2.860  0.0860 -0.2723 -0.7162
 5884SOL    HW220285   8.700   4.421   2.974 -0.0095 -0.2961 -0.7756
 5885SOL     OW20286   0.554   9.378   5.300 -0.2476 -0.2351  0.1064
 5885SOL    HW120287   0.573   9.461   5.255  2.5574 -0.1670  1.2256
 5885SOL    HW220288   0.638   9.333   5.304 -1.8014 -3.5704 -1.1178
 5886SOL     OW20289   9.782   4.492   1.610  0.1635 -0.1059 -0.2186
 5886SOL    HW120290   9.808   4.438   1.535  1.3050 -2.3940  1.6887
 5886SOL    HW220291   9.697   4.457   1.636 -0.1507  0.5616 -0.3476
 5887SOL     OW20292   9.509   7.214   0.576  0.1841 -0.1429  0.3777
 5887SOL    HW120293   9.599   7.224   0.543  0.0895  0.4230  0.2801
 5887SOL    HW220294   9.461   7.287   0.536  0.1037  0.6813  1.9161
 5888SOL     OW20295   1.835   6.512   9.264  0.5407  0.1162  0.0808
 5888SOL    HW120296   1.833   6.556   9.349  0.7615  0.8143 -0.2664
 5888SOL    HW220297   1.918   6.465   9.263  1.7331  2.1470 -0.7343
 5889SOL     OW20298   8.769   7.687   8.666 -0.0284  0.3511 -0.0365
 5889SOL    HW120299   8.748   7.762   8.721  0.2033  0.3433  0.0645
 5889SOL    HW220300   8.705   7.620   8.691  0.7857 -0.0519  1.0567
 5890SOL     OW20301   4.776   4.341   5.761  0.4518 -0.9021  0.1487
 5890SOL    HW120302   4.716   4.404   5.723  0.0826 -1.2568  0.1370
 5890SOL    HW220303   4.858   4.389   5.772  0.4323 -0.6628 -0.6698
 5891SOL     OW20304   3.415   7.599   4.323 -0.3476 -0.3041 -0.7221
 5891SOL    HW120305   3.475   7.590   4.398 -1.3053 -0.7131  0.0088
 5891SOL    HW220306   3.473   7.595   4.247  0.7002  0.5297 -0.0100
 5892SOL     OW20307   1.549  10.011   1.745  0.2257 -0.2438  0.2737
 5892SOL    HW120308   1.566   9.930   1.793 -0.6073 -1.0077 -0.6898
 5892SOL    HW220309   1.475  10.051   1.790  0.3983 -0.2077  0.5253
 5893SOL     OW20310   1.482   2.733   1.851  0.1640  0.0525 -0.4693
 5893SOL    HW120311   1.466   2.782   1.932  0.1547  1.3778 -1.2426
 5893SOL    HW220312   1.425   2.656   1.858 -0.3701  0.5111  0.4731
 5894SOL     OW20313   7.233   5.284   8.920 -0.2401  0.0667  0.2308
 5894SOL    HW120314   7.288   5.308   8.995  0.2827 -0.9854  0.2043
 5894SOL    HW220315   7.155   5.246   8.959  1.0607 -2.7813  0.3180
 5895SOL     OW20316   1.155   5.433   9.950 -0.2579 -0.3737  0.4142
 5895SOL    HW120317   1.127   5.454   9.861 -1.7772  0.6461  1.0717
 5895SOL    HW220318   1.250   5.443   9.949 -0.3283  0.4037 -0.8939
 5896SOL     OW20319   4.089   1.182   2.813  0.4831  0.0650 -0.0516
 5896SOL    HW120320   4.028   1.205   2.884 -1.7864  1.0959 -2.1661
 5896SOL    HW220321   4.107   1.089   2.827  0.1641  0.2456  1.8940
 5897SOL     OW20322   5.964   8.114   4.761  0.2686  0.0832 -0.1572
 5897SOL    HW120323   5.976   8.110   4.856  2.0280  0.9594 -0.3142
 5897SOL    HW220324   5.996   8.201   4.736 -1.4132  0.4007 -1.4104
 5898SOL     OW20325   9.362   2.948   0.206 -0.4155  0.0501 -0.1786
 5898SOL    HW120326   9.387   2.911   0.291 -2.1270 -1.8077 -0.4069
 5898SOL    HW220327   9.362   3.043   0.221  2.1138 -0.0472  1.0238
 5899SOL     OW20328   0.089   9.997  10.317  0.2454  0.2739  0.1112
 5899SOL    HW120329   0.168  10.032  10.276  0.9571 -0.7051  0.6251
 5899SOL    HW220330   0.095  10.025  10.408 -0.1568  0.4428  0.0888
 5900SOL     OW20331   3.734   1.745   2.870 -0.2935 -0.4228 -0.0226
 5900SOL    HW120332   3.684   1.824   2.888  0.8039  0.4678 -0.7530
 5900SOL    HW220333   3.796   1.739   2.942  1.6757  1.1324 -1.4940
 5901SOL     OW20334   1.681  10.244   5.719 -0.0402 -0.0052 -0.0526
 5901SOL    HW120335   1.644  10.263   5.806 -0.5556  1.4965 -0.5691
 5901SOL    HW220336   1.674  10.327   5.671  1.4201 -0.4560 -1.1180
 5902SOL     OW20337   9.136   7.550   6.665 -0.2804  0.4777 -0.5678
 5902SOL    HW120338   9.101   7.638   6.652 -0.9582  0.4776  1.0579
 5902SOL    HW220339   9.223   7.563   6.702 -0.1292  0.4631 -0.9173
 5903SOL     OW20340   8.781   7.759   3.972 -0.3665  0.0741 -0.0467
 5903SOL    HW120341   8.739   7.712   4.044  0.0046 -0.4039 -0.1383
 5903SOL    HW220342   8.744   7.720   3.893 -0.8355  0.6556 -0.1215
 5904SOL     OW20343   0.656   2.950   7.818 -0.3194  0.0862 -0.8685
 5904SOL    HW120344   0.687   2.923   7.732 -0.2469  3.2114 -1.9718
 5904SOL    HW220345   0.561   2.957   7.808 -0.1936  1.7524 -1.1824
 5905SOL     OW20346   3.561   9.565   1.587  0.2927  0.0291  0.2961
 5905SOL    HW120347   3.581   9.647   1.631  0.0477  0.6693 -0.7410
 5905SOL    HW220348   3.466   9.557   1.590  0.3270 -0.3061  0.5487
 5906SOL     OW20349   2.037   8.977   1.480  0.6472 -0.2292 -0.6868
 5906SOL    HW120350   2.086   9.057   1.462 -1.6335  1.8683  1.5619
 5906SOL    HW220351   1.994   8.957   1.397  1.2109  0.9184 -1.2886
 5907SOL     OW20352   9.574   8.795   5.324 -0.3013 -0.5720 -0.0034
 5907SOL    HW120353   9.655   8.825   5.365 -0.8819  0.4714  0.4326
 5907SOL    HW220354   9.566   8.850   5.246 -0.8248 -0.3388  0.2119
 5908SOL     OW20355   8.350   9.695   1.002 -0.0991  0.1920 -0.0363
 5908SOL    HW120356   8.331   9.605   1.028  0.2877 -0.2956 -1.3688
 5908SOL    HW220357   8.266   9.741   1.014 -0.9145 -0.8567 -1.4042
 5909SOL     OW20358   1.826   3.207   4.180 -0.0426 -0.2411 -0.5768
 5909SOL    HW120359   1.912   3.230   4.143 -0.3943 -0.9923 -1.9504
 5909SOL    HW220360   1.838   3.213   4.274  1.1512  0.9558 -0.7632
 5910SOL     OW20361   0.866   5.818   3.603 -0.6460  0.0514 -0.3430
 5910SOL    HW120362   0.798   5.778   3.657 -1.5501 -1.0337 -2.2016
 5910SOL    HW220363   0.932   5.749   3.592 -0.5483  0.2036 -0.7450
 5911SOL     OW20364   0.628   9.043   9.848  0.5719 -0.1102  0.0927
 5911SOL    HW120365   0.699   9.064   9.908 -0.2552 -2.3691  2.0196
 5911SOL    HW220366   0.553   9.093   9.879  0.5717  0.0264 -0.1241
 5912SOL     OW20367   2.336   8.711   4.229  0.0751 -0.4349 -0.0682
 5912SOL    HW120368   2.402   8.727   4.162 -0.8049  1.8703 -0.4684
 5912SOL    HW220369   2.275   8.649   4.189  0.5799 -0.5523 -0.6587
 5913SOL     OW20370   9.376   7.244   2.213  0.0749 -0.2527 -0.7302
 5913SOL    HW120371   9.328   7.311   2.164  0.0213 -0.2329 -0.6522
 5913SOL    HW220372   9.468   7.258   2.191  0.0421 -0.3028 -0.8966
 5914SOL     OW20373   5.107   6.328   2.296 -0.2306 -0.0302  0.0318
 5914SOL    HW120374   5.027   6.285   2.266 -1.0578  1.6115 -0.1924
 5914SOL    HW220375   5.126   6.285   2.380 -0.8674 -1.0061 -0.2972
 5915SOL     OW20376   2.251   8.188   9.108  0.4286 -0.1615  0.0273
 5915SOL    HW120377   2.314   8.249   9.071  0.1802 -0.0727 -0.2485
 5915SOL    HW220378   2.186   8.174   9.039 -1.0474  1.4140  1.0047
 5916SOL     OW20379   8.898   1.220   1.055  0.0716  0.0716 -0.1513
 5916SOL    HW120380   8.877   1.127   1.044  0.2611 -0.0485  0.4879
 5916SOL    HW220381   8.974   1.221   1.112 -0.0184  0.6295 -0.0365
 5917SOL     OW20382   9.200   1.683   7.238 -0.0563  0.1404  0.9010
 5917SOL    HW120383   9.262   1.737   7.188  0.5316 -0.5065  0.9167
 5917SOL    HW220384   9.231   1.594   7.225 -1.7622 -0.3369 -0.1854
 5918SOL     OW20385   9.328   4.067   4.949 -0.4372  0.2956  0.2323
 5918SOL    HW120386   9.371   4.013   5.015 -1.8963 -1.6738 -0.3484
 5918SOL    HW220387   9.382   4.057   4.871  0.0367  0.7901  0.4910
 5919SOL     OW20388  10.091   3.443   2.166 -0.2522 -0.3935 -0.5390
 5919SOL    HW120389  10.095   3.355   2.128 -1.2214 -1.2594  1.2767
 5919SOL    HW220390  10.006   3.447   2.209  0.9871  0.3077  2.0089
 5920SOL     OW20391   4.251   7.139   6.319  0.2113  0.4091  0.5115
 5920SOL    HW120392   4.170   7.178   6.284 -0.6300 -1.0666  0.7276
 5920SOL    HW220393   4.309   7.131   6.244 -1.0100 -1.3144 -0.3203
 5921SOL     OW20394   8.770   2.205   9.537 -0.5779  0.3741  0.3463
 5921SOL    HW120395   8.840   2.269   9.533 -1.2349  1.1421  0.8170
 5921SOL    HW220396   8.716   2.223   9.459  0.0125 -0.5588 -0.3088
 5922SOL     OW20397   3.740   2.764   4.311  0.1695 -0.3806 -0.5288
 5922SOL    HW120398   3.698   2.713   4.381  0.4192  0.4852  0.2743
 5922SOL    HW220399   3.717   2.718   4.231 -1.9100 -0.2299 -0.0709
 5923SOL     OW20400   8.167   6.555   8.636 -0.3671 -0.4003  0.2672
 5923SOL    HW120401   8.171   6.477   8.580 -0.3403 -0.7333  0.7298
 5923SOL    HW220402   8.073   6.571   8.647 -0.4024 -1.1656  1.2591
 5924SOL     OW20403  10.025  10.170   2.156  0.4469  0.3197 -0.1169
 5924SOL    HW120404   9.950  10.172   2.098  1.5893  3.9924 -1.7469
 5924SOL    HW220405   9.994  10.211   2.237  0.3549  0.6039 -0.2966
 5925SOL     OW20406   1.049   4.829   3.388 -0.9856  0.1282 -0.3465
 5925SOL    HW120407   1.142   4.811   3.393 -1.0581 -0.1713  0.0236
 5925SOL    HW220408   1.040   4.920   3.416 -0.9750 -0.3745  1.4380
 5926SOL     OW20409   7.103   8.957   6.078  0.0599 -0.5795 -0.1120
 5926SOL    HW120410   7.032   8.944   6.141 -1.6195 -1.7814 -2.1439
 5926SOL    HW220411   7.160   8.881   6.090 -0.3659 -0.9113 -0.2064
 5927SOL     OW20412   4.180   5.394   1.199  0.3323  0.4156 -0.1283
 5927SOL    HW120413   4.112   5.328   1.189  0.3832  0.1735  1.0022
 5927SOL    HW220414   4.257   5.357   1.155 -0.2149  0.6435 -1.3106
 5928SOL     OW20415   7.043   7.136  10.078 -0.2526  0.0861 -0.3728
 5928SOL    HW120416   7.133   7.112  10.100  0.0251  0.5383 -0.9843
 5928SOL    HW220417   6.990   7.087  10.140  0.4404  0.2768  0.3905
 5929SOL     OW20418   5.898   9.904   9.056 -0.5068  0.7614 -0.2127
 5929SOL    HW120419   5.932   9.992   9.073 -2.8178  1.3375  1.9656
 5929SOL    HW220420   5.975   9.847   9.064  0.7347  2.3900  0.0018
 5930SOL     OW20421   9.945   7.731   1.589  0.7922 -0.1177  0.1364
 5930SOL    HW120422   9.850   7.730   1.577  0.6651 -1.0404  1.0745
 5930SOL    HW220423   9.977   7.665   1.527  0.6831 -0.7424  0.7301
 5931SOL     OW20424   4.327   3.004   9.027  0.1545 -0.0996  0.3897
 5931SOL    HW120425   4.298   2.976   9.114  0.1754 -0.6953  0.2090
 5931SOL    HW220426   4.253   2.983   8.969 -0.3026  1.3190  0.4305
 5932SOL     OW20427   3.957   4.571   9.401  0.1948  0.3883  0.3293
 5932SOL    HW120428   3.866   4.550   9.424  0.3702 -0.8954 -0.0676
 5932SOL    HW220429   3.950   4.634   9.330 -0.4016 -0.3488 -0.2801
 5933SOL     OW20430   5.979   3.428   0.340 -0.3712 -0.1210 -0.1459
 5933SOL    HW120431   5.971   3.396   0.250  0.0750 -1.1906  0.1724
 5933SOL    HW220432   5.891   3.417   0.377 -1.0023  1.9377 -0.9298
 5934SOL     OW20433   7.203  10.184   5.768 -0.7922  0.2100  0.1977
 5934SOL    HW120434   7.180  10.276   5.753 -2.2806 -0.2183 -0.2247
 5934SOL    HW220435   7.176  10.167   5.858  1.4328  0.7336  1.0364
 5935SOL     OW20436   2.921   4.647   8.304 -0.1603 -0.0060 -0.0991
 5935SOL    HW120437   2.871   4.574   8.268 -2.4596  1.3265  0.1658
 5935SOL    HW220438   2.950   4.616   8.390 -1.6050 -0.4528  0.2629
 5936SOL     OW20439   9.915   2.912   4.583 -0.0016  0.3057 -0.2353
 5936SOL    HW120440   9.913   2.828   4.628 -0.5973 -0.4269 -1.5675
 5936SOL    HW220441   9.826   2.946   4.590 -0.7294 -0.8526 -2.6269
 5937SOL     OW20442   1.574   4.290   7.556  0.0761 -0.2753  0.1239
 5937SOL    HW120443   1.554   4.368   7.608 -1.4252  0.1149 -0.9704
 5937SOL    HW220444   1.509   4.291   7.485 -0.9924 -3.3734  0.9265
 5938SOL     OW20445   5.147   8.984   0.595  0.4961  0.0617  0.3085
 5938SOL    HW120446   5.218   8.989   0.531 -0.7044 -2.8244 -1.4608
 5938SOL    HW220447   5.090   9.057   0.574  0.8870  0.0228 -0.9304
 5939SOL     OW20448   7.999  10.137   3.958  1.0492 -0.0510  0.0711
 5939SOL    HW120449   7.912  10.161   3.924  0.7243 -0.2065  0.7850
 5939SOL    HW220450   7.987  10.050   3.996  1.3308  0.2634  0.8872
 5940SOL     OW20451   5.168   2.023   3.960 -0.3501 -0.2872 -0.1043
 5940SOL    HW120452   5.248   2.042   4.009 -0.9581 -1.6740  1.5187
 5940SOL    HW220453   5.192   1.952   3.901  0.2119  0.9342 -1.3882
 5941SOL     OW20454   2.641   3.097   6.909  0.3224 -0.1910  0.4231
 5941SOL    HW120455   2.585   3.064   6.839 -0.1167 -1.0903  1.1756
 5941SOL    HW220456   2.596   3.176   6.940  0.1071 -0.2316  0.2145
 5942SOL     OW20457   4.906  10.115   7.279 -0.2610  0.0620  0.0890
 5942SOL    HW120458   4.871  10.197   7.313 -1.6304  0.8842 -2.9712
 5942SOL    HW220459   4.978  10.142   7.221 -0.3726 -0.9347 -0.5358
 5943SOL     OW20460   8.086   7.819   5.539  0.5731  0.1828 -0.2344
 5943SOL    HW120461   8.047   7.820   5.451 -1.3852  0.5974  0.5770
 5943SOL    HW220462   8.064   7.905   5.575  0.4082 -0.3750  1.0439
 5944SOL     OW20463   9.167   5.541   1.378 -0.1349  0.6407  0.4119
 5944SOL    HW120464   9.113   5.608   1.336 -0.4988 -0.0900 -0.3308
 5944SOL    HW220465   9.129   5.530   1.465 -2.3028 -1.0360 -0.6513
 5945SOL     OW20466   8.642   1.167   1.830  0.0558 -0.0644  0.1556
 5945SOL    HW120467   8.649   1.126   1.917  0.6829 -0.6324 -0.1528
 5945SOL    HW220468   8.556   1.139   1.798 -0.0525 -0.1020  0.4701
 5946SOL     OW20469   7.993   4.800   7.312  0.2504  0.7499  0.1653
 5946SOL    HW120470   8.022   4.888   7.335  0.1144  0.6756  0.6199
 5946SOL    HW220471   8.022   4.745   7.385 -3.0894  1.0164  1.8980
 5947SOL     OW20472   3.848   2.151   7.189 -0.5561 -0.6210  0.2689
 5947SOL    HW120473   3.760   2.116   7.205 -0.5236 -0.5050  0.7002
 5947SOL    HW220474   3.833   2.232   7.141 -0.5852 -2.0246 -2.2975
 5948SOL     OW20475   4.117   8.130   6.732 -0.1221  0.3446 -0.3282
 5948SOL    HW120476   4.207   8.115   6.703  0.5542 -0.5374  1.9928
 5948SOL    HW220477   4.102   8.064   6.799 -2.5067  0.5227 -0.6165
 5949SOL     OW20478   4.065   1.151   8.079 -0.1366  0.6165 -0.2204
 5949SOL    HW120479   4.154   1.136   8.109 -0.2930  0.2365  0.0566
 5949SOL    HW220480   4.060   1.105   7.995 -0.2723  0.0707  0.0850
 5950SOL     OW20481   2.724   6.371   4.638 -0.3733  1.0013  0.6694
 5950SOL    HW120482   2.652   6.354   4.576 -1.0063 -0.1005  1.6836
 5950SOL    HW220483   2.756   6.285   4.663  1.1533  1.4785  0.4443
 5951SOL     OW20484   0.779   0.483   6.896  0.3070  0.0566  0.6258
 5951SOL    HW120485   0.697   0.527   6.873 -0.6853 -1.2292  1.5638
 5951SOL    HW220486   0.819   0.540   6.962 -0.2163  0.3012  0.7385
 5952SOL     OW20487   4.143   0.844   1.106  0.2537  0.1154  0.2136
 5952SOL    HW120488   4.161   0.932   1.137  0.4294  0.1358  0.0569
 5952SOL    HW220489   4.054   0.849   1.070  0.1977  0.1851  0.3620
 5953SOL     OW20490   3.149   6.779   6.713 -0.6658 -0.2500  0.7475
 5953SOL    HW120491   3.091   6.848   6.680  0.0085  0.0202  0.1077
 5953SOL    HW220492   3.102   6.743   6.788  0.2262  2.9253  3.0750
 5954SOL     OW20493   6.639   6.893   5.125  0.7972  0.1976 -0.4558
 5954SOL    HW120494   6.604   6.909   5.213 -1.8283  0.1720 -1.4004
 5954SOL    HW220495   6.684   6.809   5.132 -0.6904 -0.5631  0.5618
 5955SOL     OW20496   5.622   7.048   7.950  0.1503 -0.4374  0.0409
 5955SOL    HW120497   5.643   6.962   7.913  0.1343 -1.3564  2.0066
 5955SOL    HW220498   5.534   7.038   7.986 -0.5066  0.9324 -1.0878
 5956SOL     OW20499   5.903   6.163   5.011 -0.2438 -0.3579  0.4279
 5956SOL    HW120500   5.926   6.167   5.104 -0.0005 -2.2853  0.4895
 5956SOL    HW220501   5.814   6.199   5.007  0.0637  0.5225  1.2685
 5957SOL     OW20502   4.619   7.594   2.186 -0.4832 -0.2416  0.8661
 5957SOL    HW120503   4.630   7.517   2.130  0.3513 -0.8285  1.8087
 5957SOL    HW220504   4.704   7.637   2.186 -1.0464  0.9299  0.0306
 5958SOL     OW20505   2.129   4.026   7.819  0.0486 -0.4872 -0.5259
 5958SOL    HW120506   2.210   3.993   7.782  1.1360  0.4238  0.9159
 5958SOL    HW220507   2.074   4.047   7.744  1.6034 -0.0043 -1.5657
 5959SOL     OW20508   5.160   5.914   2.586  0.2725 -0.1159  0.4581
 5959SOL    HW120509   5.235   5.883   2.637  0.9209 -0.8013 -0.8760
 5959SOL    HW220510   5.146   6.004   2.618  0.8805 -0.3987  1.5756
 5960SOL     OW20511   3.492   3.189   2.051 -0.1168  0.0877  0.2072
 5960SOL    HW120512   3.551   3.129   2.005  0.1411  1.1626 -0.9071
 5960SOL    HW220513   3.405   3.151   2.039  0.0553 -0.1326 -0.3996
 5961SOL     OW20514   4.103   7.856   7.624  0.4371 -0.6984 -0.0769
 5961SOL    HW120515   4.166   7.832   7.557  0.6426 -0.7312  0.1257
 5961SOL    HW220516   4.126   7.801   7.699  0.1317 -0.7532 -0.0218
 5962SOL     OW20517   8.697   3.080  10.224 -0.1998 -0.7345 -0.3304
 5962SOL    HW120518   8.646   3.122  10.155 -0.7526 -0.5158  0.2025
 5962SOL    HW220519   8.680   3.132  10.302  0.3031 -1.0658  0.0096
 5963SOL     OW20520   0.081   3.252   7.937  0.4116  0.4359 -0.2874
 5963SOL    HW120521   0.011   3.239   7.873  0.8122  0.9577 -0.8505
 5963SOL    HW220522   0.074   3.343   7.963  0.6278  0.3830 -0.0368
 5964SOL     OW20523   8.772   3.627   1.697  0.6241  0.2799 -0.7902
 5964SOL    HW120524   8.860   3.608   1.729 -0.2555  1.5873  2.9086
 5964SOL    HW220525   8.739   3.543   1.664  2.0723 -1.0602  0.9892
 5965SOL     OW20526   3.697   8.991   4.116  0.2859  0.1059 -0.1096
 5965SOL    HW120527   3.744   9.013   4.035 -0.9571  0.9587 -0.6185
 5965SOL    HW220528   3.634   8.924   4.089 -0.9979  1.2898 -0.1456
 5966SOL     OW20529   5.553   5.572   5.040  1.0486  0.0263  0.5678
 5966SOL    HW120530   5.470   5.528   5.023  1.2152 -0.3628  0.7465
 5966SOL    HW220531   5.609   5.504   5.077  1.0093  0.6183  1.7405
 5967SOL     OW20532   2.262   9.577   6.604 -0.1757  0.8323  0.6552
 5967SOL    HW120533   2.238   9.576   6.511  0.3290  0.5429  0.5263
 5967SOL    HW220534   2.292   9.666   6.620  1.1475  0.4988  0.1683
 5968SOL     OW20535   6.815   3.152   2.138 -0.1375 -0.0251  0.5071
 5968SOL    HW120536   6.736   3.191   2.176  0.0210  0.4752  0.3320
 5968SOL    HW220537   6.820   3.189   2.050 -1.4200 -2.4229 -0.6910
 5969SOL     OW20538   2.274   7.498   8.255  0.0915  0.0260  0.1213
 5969SOL    HW120539   2.190   7.455   8.242 -0.5957  0.9898  1.1497
 5969SOL    HW220540   2.327   7.434   8.303 -0.3649 -0.2612  0.2448
 5970SOL     OW20541   1.228   3.018   2.741 -0.0277 -0.2540  0.1463
 5970SOL    HW120542   1.258   3.102   2.706 -1.3146 -0.0286 -0.4366
 5970SOL    HW220543   1.291   2.999   2.811  1.9243 -0.1545 -1.4612
 5971SOL     OW20544   0.088   7.486   3.131 -0.0928 -0.0131  0.2837
 5971SOL    HW120545  -0.001   7.518   3.145 -0.1034 -0.5377  1.4904
 5971SOL    HW220546   0.136   7.513   3.209  0.4259 -1.0585  0.3398
 5972SOL     OW20547   4.370   7.928   3.887  0.8668 -0.3723 -0.2716
 5972SOL    HW120548   4.426   8.005   3.874 -1.7463  2.1291  1.6953
 5972SOL    HW220549   4.308   7.956   3.956 -1.7268 -3.4292 -1.1316
 5973SOL     OW20550   7.311   3.071   1.643  0.3065 -0.2015 -0.0700
 5973SOL    HW120551   7.347   3.151   1.683 -0.0251 -0.8338  1.5776
 5973SOL    HW220552   7.364   3.000   1.680  0.8354 -0.7475 -1.8027
 5974SOL     OW20553   1.622   0.702   9.387  0.1345  0.3206 -0.1204
 5974SOL    HW120554   1.653   0.788   9.358  1.7785 -0.2900 -0.2925
 5974SOL    HW220555   1.697   0.644   9.373 -0.7697 -1.0396  0.4936
 5975SOL     OW20556   6.970   2.677   6.135  0.1112 -0.1629 -0.5446
 5975SOL    HW120557   7.039   2.616   6.110  0.6651  0.5363 -0.7728
 5975SOL    HW220558   7.000   2.762   6.102  0.2233  0.5698  1.2912
 5976SOL     OW20559   8.809   4.995   6.652  0.4839  0.0521  0.0347
 5976SOL    HW120560   8.899   4.999   6.620 -0.2443  1.4148 -2.0258
 5976SOL    HW220561   8.782   4.904   6.636  1.1186 -0.0609 -0.4363
 5977SOL     OW20562   1.875   9.464   8.936  0.4505  0.6617  0.2637
 5977SOL    HW120563   1.937   9.537   8.942  0.2222  0.7800  1.4576
 5977SOL    HW220564   1.859   9.439   9.027 -0.0156 -0.4229 -0.1047
 5978SOL     OW20565   1.412   5.277   1.209 -0.4645  0.0247 -0.2226
 5978SOL    HW120566   1.438   5.274   1.117  0.6946  0.2933  0.0731
 5978SOL    HW220567   1.489   5.312   1.254 -0.5853 -1.2112  1.0127
 5979SOL     OW20568   4.369   6.905   0.835 -0.1518 -0.2638  0.6492
 5979SOL    HW120569   4.300   6.971   0.830 -0.2101 -0.4115 -1.5068
 5979SOL    HW220570   4.329   6.826   0.799  0.2744 -1.2024  2.1418
 5980SOL     OW20571   7.759   9.488   3.806  0.1581 -0.2732 -0.4928
 5980SOL    HW120572   7.830   9.481   3.742 -0.9494 -1.6637 -1.6394
 5980SOL    HW220573   7.688   9.531   3.759 -0.0953  0.2847  0.3635
 5981SOL     OW20574   9.753   7.616   5.535  0.3203  0.2730 -0.0956
 5981SOL    HW120575   9.745   7.568   5.452  0.1734  0.5018 -0.2138
 5981SOL    HW220576   9.732   7.551   5.602 -0.3989  0.3102 -0.2827
 5982SOL     OW20577   6.253   7.135   1.431 -0.0653  0.2845 -0.1321
 5982SOL    HW120578   6.345   7.119   1.412 -0.2213 -1.1007  0.1706
 5982SOL    HW220579   6.242   7.229   1.420  0.4704  0.0532 -4.1220
 5983SOL     OW20580   8.360   9.127   5.711  0.0182 -0.5075  0.1193
 5983SOL    HW120581   8.425   9.178   5.665  1.3490  0.4497  2.8356
 5983SOL    HW220582   8.408   9.054   5.749 -1.1339 -1.6133 -0.4503
 5984SOL     OW20583   8.892   3.530   2.382  0.1317 -0.3553  0.0448
 5984SOL    HW120584   8.962   3.595   2.375 -1.4086  1.5087  0.8119
 5984SOL    HW220585   8.916   3.461   2.322  0.8980  1.8705 -2.3845
 5985SOL     OW20586   4.164   1.164   1.051  0.6139  0.2095 -0.1671
 5985SOL    HW120587   4.099   1.163   0.981  1.2463 -0.7958 -0.7631
 5985SOL    HW220588   4.180   1.257   1.068 -0.9430  0.4862 -0.0182
 5986SOL     OW20589   8.717   2.588   5.876 -0.6197  0.3465 -0.4574
 5986SOL    HW120590   8.704   2.622   5.787 -1.7552 -0.8567 -0.7731
 5986SOL    HW220591   8.706   2.665   5.932  1.2402  1.3551 -1.3915
 5987SOL     OW20592   7.243   7.463   9.380 -0.0181  0.3985 -0.0681
 5987SOL    HW120593   7.181   7.523   9.424  1.8396  1.4625  1.2540
 5987SOL    HW220594   7.319   7.518   9.362  1.4821 -1.4027  0.5520
 5988SOL     OW20595   7.276   0.629   1.699 -1.0039  0.2180 -0.3186
 5988SOL    HW120596   7.339   0.596   1.636  0.0958 -0.0574  0.8904
 5988SOL    HW220597   7.246   0.713   1.663  0.6026  0.7073 -0.5596
 5989SOL     OW20598   6.778   6.633   5.220  0.0661  0.2282  0.2239
 5989SOL    HW120599   6.819   6.619   5.134  0.6257 -0.2400  0.5542
 5989SOL    HW220600   6.847   6.609   5.283 -0.7083 -0.5547  0.7966
 5990SOL     OW20601   0.271   7.509   0.688  0.1149 -0.6322  0.0824
 5990SOL    HW120602   0.319   7.543   0.764  0.5294 -0.6600 -0.1662
 5990SOL    HW220603   0.185   7.552   0.694  0.7496  0.7915 -0.4369
 5991SOL     OW20604   4.409   5.137   0.301 -0.9450  0.5312  0.0520
 5991SOL    HW120605   4.467   5.145   0.224  0.4252 -2.8878  0.5693
 5991SOL    HW220606   4.434   5.211   0.357 -0.0382  1.5132 -1.5531
 5992SOL     OW20607   6.948   2.966   1.269 -0.4519  0.8219 -0.2513
 5992SOL    HW120608   6.943   3.042   1.212  0.2167  2.8011  2.1676
 5992SOL    HW220609   6.960   2.892   1.209  1.0632  2.8276 -2.6260
 5993SOL     OW20610   9.421   6.401   9.144  0.4485 -0.0772  0.3438
 5993SOL    HW120611   9.501   6.358   9.116  0.1450 -0.4764  0.0784
 5993SOL    HW220612   9.351   6.340   9.122  0.1415 -0.1569  1.4650
 5994SOL     OW20613   2.340   9.865   7.385 -0.3327  0.1654  0.7096
 5994SOL    HW120614   2.268   9.804   7.400 -0.6137  0.8587  2.3538
 5994SOL    HW220615   2.299   9.952   7.384  0.2348  0.4394 -0.2856
 5995SOL     OW20616   7.026   0.466   6.899 -0.4882  0.0440 -0.0654
 5995SOL    HW120617   6.998   0.374   6.904 -0.0146 -0.1551 -0.8692
 5995SOL    HW220618   6.999   0.504   6.983  0.3239 -1.1114  0.7546
 5996SOL     OW20619   0.557   8.385   2.009  0.5786 -0.0100 -1.2748
 5996SOL    HW120620   0.536   8.412   1.920 -0.7844 -0.5660 -1.1517
 5996SOL    HW220621   0.514   8.299   2.019  0.7623  0.0122 -0.1190
 5997SOL     OW20622   4.738   5.427   4.014 -0.2517  0.6199 -0.0646
 5997SOL    HW120623   4.706   5.343   3.984 -2.3091  0.7767  1.4760
 5997SOL    HW220624   4.775   5.409   4.101  2.2846  0.8016 -1.0055
 5998SOL     OW20625   6.018   4.563   8.047 -0.8364  0.0889  0.4909
 5998SOL    HW120626   5.960   4.640   8.054  3.5540  3.7709  1.1777
 5998SOL    HW220627   6.042   4.559   7.955 -1.2519 -0.7534  0.4049
 5999SOL     OW20628   5.443   7.726   5.413 -0.1023  0.4504  0.3144
 5999SOL    HW120629   5.436   7.801   5.354 -3.6677 -0.0306 -0.0910
 5999SOL    HW220630   5.469   7.654   5.357  1.0713  0.9005  0.2618
 6000SOL     OW20631   0.951   4.287   6.275 -0.1080 -0.1240  0.3512
 6000SOL    HW120632   1.036   4.243   6.283 -0.3028 -0.5009  0.3925
 6000SOL    HW220633   0.951   4.323   6.186 -0.4401 -1.2862 -0.1471
 6001SOL     OW20634   9.706   3.613   7.261 -0.1440 -0.2791 -0.0865
 6001SOL    HW120635   9.687   3.696   7.217 -0.6565  0.5479  1.6343
 6001SOL    HW220636   9.800   3.600   7.248 -0.0887  0.4804 -0.5060
 6002SOL     OW20637   9.256   4.383   2.461  0.4198 -0.1077  0.2892
 6002SOL    HW120638   9.235   4.453   2.398  0.2887  0.5082  0.9958
 6002SOL    HW220639   9.183   4.322   2.453  1.2421 -0.9303 -1.3703
 6003SOL     OW20640   3.780   2.727   2.499 -0.4369 -0.4602 -0.2709
 6003SOL    HW120641   3.697   2.772   2.486 -0.2323 -0.2606 -0.9336
 6003SOL    HW220642   3.759   2.634   2.496 -1.2066 -0.5416  3.1397
 6004SOL     OW20643   3.513   5.460   2.024  0.8077  0.0172 -0.5277
 6004SOL    HW120644   3.525   5.536   1.967  0.4234  0.0166 -0.6105
 6004SOL    HW220645   3.590   5.461   2.081  0.8697  0.3940 -0.6139
 6005SOL     OW20646   8.755   3.519   0.162 -0.0501  0.1459 -0.0848
 6005SOL    HW120647   8.754   3.611   0.136 -0.0928 -0.4866 -2.5177
 6005SOL    HW220648   8.664   3.490   0.154  0.0020 -0.1767  0.4237
 6006SOL     OW20649   3.247   7.039   4.164 -0.1534  0.0666 -0.3062
 6006SOL    HW120650   3.335   7.053   4.201  0.1489 -1.0389 -0.5673
 6006SOL    HW220651   3.231   7.117   4.111  0.6590  0.3094 -0.2131
 6007SOL     OW20652   1.143   4.860   6.976  0.5296 -0.4270 -0.5334
 6007SOL    HW120653   1.124   4.768   6.997 -1.0108  0.2900  1.5305
 6007SOL    HW220654   1.231   4.858   6.940  1.8070 -2.4254  2.2733
 6008SOL     OW20655   5.209   4.195   9.666  0.2543  0.5861  0.0126
 6008SOL    HW120656   5.199   4.254   9.592  0.1792 -1.1351 -1.4058
 6008SOL    HW220657   5.284   4.141   9.644  0.1436 -0.0537  1.1268
 6009SOL     OW20658   4.343   8.829   8.113 -0.3500 -0.2204 -0.1080
 6009SOL    HW120659   4.417   8.809   8.055 -0.9221 -2.3652 -0.2075
 6009SOL    HW220660   4.267   8.794   8.066 -1.3533  1.2786  0.3312
 6010SOL     OW20661   6.732   6.489   1.084  0.5962 -0.2739  0.3732
 6010SOL    HW120662   6.812   6.541   1.090  0.2932  0.4029 -0.9955
 6010SOL    HW220663   6.761   6.405   1.048  0.4277  0.8415 -2.6212
 6011SOL     OW20664   9.694   3.858   7.142  0.2176 -0.3768  0.1901
 6011SOL    HW120665   9.615   3.901   7.176  0.5843 -1.1988  2.2156
 6011SOL    HW220666   9.753   3.931   7.120 -0.3404  0.1998  0.5621
 6012SOL     OW20667   2.750   6.672   1.379 -0.0949  0.0918  0.1617
 6012SOL    HW120668   2.661   6.690   1.350 -1.1043 -4.0573  0.0423
 6012SOL    HW220669   2.753   6.701   1.470 -1.5749  0.2413  0.1734
 6013SOL     OW20670   5.322   9.204   7.902  0.3416 -0.2978  0.0546
 6013SOL    HW120671   5.265   9.277   7.926  0.1413 -0.1945 -0.7126
 6013SOL    HW220672   5.291   9.130   7.955 -0.2534 -0.1399 -0.0729
 6014SOL     OW20673   3.189   9.040   6.123 -0.8249 -0.0948 -0.2375
 6014SOL    HW120674   3.274   9.077   6.103 -0.9324  0.0636 -0.4008
 6014SOL    HW220675   3.190   8.953   6.083 -1.4456  0.6337 -1.9098
 6015SOL     OW20676   9.038   0.009   9.609 -0.1556 -0.1904  0.2036
 6015SOL    HW120677   9.090  -0.069   9.629  0.9311 -0.2838 -2.4783
 6015SOL    HW220678   9.103   0.080   9.603 -1.1311  1.0187  2.6950
 6016SOL     OW20679   2.281   3.494   5.215  0.0673  0.0920 -0.3782
 6016SOL    HW120680   2.229   3.566   5.179  0.4113  0.8187  0.5380
 6016SOL    HW220681   2.216   3.431   5.247 -0.2586  0.6330  0.0469
 6017SOL     OW20682   3.327   8.127   6.135 -0.1105 -0.1251 -0.8794
 6017SOL    HW120683   3.371   8.055   6.089 -1.1901 -1.6634  0.3731
 6017SOL    HW220684   3.260   8.084   6.188  1.9685  1.2716  3.3420
 6018SOL     OW20685   9.276   8.460   4.402  0.2950  0.1953  0.4403
 6018SOL    HW120686   9.272   8.467   4.497 -0.4578 -1.0092  0.5244
 6018SOL    HW220687   9.249   8.370   4.383 -1.6624  0.9946 -1.0188
 6019SOL     OW20688   7.619   5.899   7.796  0.4395 -0.9959 -0.8016
 6019SOL    HW120689   7.561   5.951   7.851 -0.1081  0.0992 -2.3397
 6019SOL    HW220690   7.691   5.958   7.774  0.3280 -1.1835 -1.7450
 6020SOL     OW20691   3.091   7.079   8.425 -0.2114 -0.3340  0.1809
 6020SOL    HW120692   3.043   7.104   8.346  0.5839 -0.5865 -0.3888
 6020SOL    HW220693   3.042   7.120   8.496  0.3769  1.9082 -0.6155
 6021SOL     OW20694   2.855   9.171   9.924 -0.1119  0.0353  0.2303
 6021SOL    HW120695   2.911   9.100   9.956 -0.8227 -1.1245 -1.0187
 6021SOL    HW220696   2.829   9.219  10.003 -0.1086 -1.4593  1.1636
 6022SOL     OW20697   3.085   2.402  10.272  0.1876 -0.4559 -0.3356
 6022SOL    HW120698   3.048   2.436  10.191  0.7508  1.1141  0.0209
 6022SOL    HW220699   3.012   2.357  10.315 -0.0644 -1.4881 -1.7775
 6023SOL     OW20700   3.876  10.150   9.665  0.0420  0.5641  0.2749
 6023SOL    HW120701   3.814  10.209   9.623 -0.3409  0.6203  0.9150
 6023SOL    HW220702   3.822  10.092   9.718  0.5310  0.5619  0.7785
 6024SOL     OW20703   6.653   9.410   1.262  0.0530  0.2984 -0.6433
 6024SOL    HW120704   6.575   9.357   1.275 -1.9464  2.8457 -1.4544
 6024SOL    HW220705   6.726   9.348   1.269 -1.9272 -1.9977  1.2279
 6025SOL     OW20706   7.036   1.515   7.630 -0.0963 -0.0468 -0.1574
 6025SOL    HW120707   7.067   1.467   7.707  0.6123  0.1914 -0.2881
 6025SOL    HW220708   6.989   1.449   7.578  1.1005 -0.6778 -0.4705
 6026SOL     OW20709  10.097   4.760   1.155  0.2793  0.2279 -0.5891
 6026SOL    HW120710  10.008   4.773   1.122  0.6131  2.2907 -0.7897
 6026SOL    HW220711  10.092   4.783   1.248  0.8120  1.5341 -0.8606
 6027SOL     OW20712   3.791   6.289   5.222 -0.5745  0.1142 -0.0565
 6027SOL    HW120713   3.771   6.273   5.314  0.4853  1.8906  0.5258
 6027SOL    HW220714   3.752   6.374   5.203 -0.3356  0.0053 -1.1001
 6028SOL     OW20715   8.119   7.961   5.961 -0.3849  1.0958  0.6986
 6028SOL    HW120716   8.200   7.990   5.919 -0.5001 -0.3116 -0.5901
 6028SOL    HW220717   8.059   8.035   5.952  0.3480  1.6670  0.4799
 6029SOL     OW20718   0.667   1.781   2.165 -0.3935  0.2076  0.4489
 6029SOL    HW120719   0.676   1.873   2.138 -1.5505  0.5900  1.2561
 6029SOL    HW220720   0.722   1.732   2.104  0.1944  1.4295 -0.0397
 6030SOL     OW20721   2.407   5.301   5.055  0.0228  0.2417 -0.4546
 6030SOL    HW120722   2.331   5.258   5.092  1.1830 -0.9221  0.6821
 6030SOL    HW220723   2.386   5.395   5.058 -1.4559 -0.0737 -0.4664
 6031SOL     OW20724   1.295   6.121  10.265 -0.7534 -1.1771  0.7238
 6031SOL    HW120725   1.302   6.025  10.263 -1.5906 -1.2423  0.0058
 6031SOL    HW220726   1.382   6.152  10.239 -0.6687 -1.7559  0.2931
 6032SOL     OW20727   9.726   6.592   0.278  0.0894 -0.2642  0.6275
 6032SOL    HW120728   9.684   6.675   0.302 -0.0759 -0.1156 -0.1680
 6032SOL    HW220729   9.816   6.601   0.309  0.5567  0.9033 -0.9715
 6033SOL     OW20730   0.169   3.393   3.223 -0.2031  0.2844  0.7324
 6033SOL    HW120731   0.249   3.382   3.275  0.0936  0.2831  0.2858
 6033SOL    HW220732   0.111   3.324   3.254  0.8863 -1.3232 -0.6224
 6034SOL     OW20733   6.000   4.561   9.785 -0.4816 -0.0494 -0.8884
 6034SOL    HW120734   5.944   4.607   9.847 -1.1582  1.7617 -2.7109
 6034SOL    HW220735   6.050   4.499   9.838 -0.7454  1.6495  1.4835
 6035SOL     OW20736   2.209   9.662   2.612  0.1536  0.4271  0.3796
 6035SOL    HW120737   2.217   9.685   2.705  0.4105 -1.9169  0.9934
 6035SOL    HW220738   2.294   9.624   2.590 -0.0040  0.7232 -0.7751
 6036SOL     OW20739   4.023   0.458   3.937  0.0695  0.5503 -0.0482
 6036SOL    HW120740   4.004   0.533   3.994 -0.8333 -0.4134  0.9886
 6036SOL    HW220741   4.034   0.384   3.998 -1.5096 -0.6395 -1.1037
 6037SOL     OW20742   1.365   0.392   3.065 -0.4967  0.0480  0.1708
 6037SOL    HW120743   1.382   0.479   3.103  0.8344  0.5613 -1.5026
 6037SOL    HW220744   1.450   0.363   3.033 -0.9804 -1.7824  0.4339
 6038SOL     OW20745   0.895   3.066   1.308  0.1762  0.2987  0.4455
 6038SOL    HW120746   0.825   3.073   1.242  0.5812  0.7085  0.0531
 6038SOL    HW220747   0.976   3.072   1.257  0.5999  4.4573  1.2431
 6039SOL     OW20748   0.181   4.239   0.636 -0.3061 -0.3533  0.2610
 6039SOL    HW120749   0.132   4.302   0.688 -0.8427 -0.6580  0.1330
 6039SOL    HW220750   0.252   4.210   0.693  0.5053  1.0380  0.0064
 6040SOL     OW20751   4.099   1.633   9.811  0.4356 -0.2323  0.6428
 6040SOL    HW120752   4.157   1.704   9.841  0.1726 -0.4460  1.6918
 6040SOL    HW220753   4.082   1.654   9.719 -0.3122  1.5382  1.1453
 6041SOL     OW20754   7.905   1.415   7.865 -0.3981 -0.2973  0.1584
 6041SOL    HW120755   7.896   1.369   7.948  2.7868 -1.1736  0.1822
 6041SOL    HW220756   7.878   1.352   7.798 -1.3267 -0.1923  0.4244
 6042SOL     OW20757   2.041   2.523   4.548  0.1658  0.7705 -0.1077
 6042SOL    HW120758   2.037   2.551   4.456  2.8921  0.1611 -0.5075
 6042SOL    HW220759   2.086   2.594   4.593 -1.4696  1.2250  0.8850
 6043SOL     OW20760   4.623   1.581   4.181  0.0402 -0.7069 -0.7089
 6043SOL    HW120761   4.594   1.639   4.251 -0.3393 -0.2123 -1.2643
 6043SOL    HW220762   4.645   1.499   4.225  0.7537 -0.0934  0.0995
 6044SOL     OW20763   7.426   3.563   8.692 -0.0431 -0.0112 -0.0650
 6044SOL    HW120764   7.391   3.477   8.714  0.2046 -0.2858 -0.7056
 6044SOL    HW220765   7.469   3.550   8.607 -0.3739  0.8417 -0.3748
 6045SOL     OW20766   8.901   6.421   7.647 -0.0698  0.3829  0.3620
 6045SOL    HW120767   8.926   6.342   7.695  0.2854  0.5301  0.4242
 6045SOL    HW220768   8.875   6.389   7.560  1.8044  0.3499 -0.2309
 6046SOL     OW20769   9.806   2.676   5.479 -0.2212 -0.4247 -0.3288
 6046SOL    HW120770   9.869   2.662   5.409  0.5385 -0.0615  0.2768
 6046SOL    HW220771   9.838   2.623   5.551 -1.1820 -1.0652 -0.3463
 6047SOL     OW20772   2.933   7.848   2.364  0.3173 -0.0204 -0.1392
 6047SOL    HW120773   2.932   7.934   2.407 -0.9792  0.6288 -1.4119
 6047SOL    HW220774   2.907   7.787   2.433 -3.1016  1.1677 -0.2141
 6048SOL     OW20775   4.193   8.395   7.384 -0.1162  0.2916 -0.6399
 6048SOL    HW120776   4.169   8.314   7.430  0.1625  0.2400 -0.5837
 6048SOL    HW220777   4.181   8.375   7.292 -1.5193  0.6703 -0.5564
 6049SOL     OW20778   4.640   7.811   1.640  0.1179 -0.0588  0.4620
 6049SOL    HW120779   4.624   7.788   1.732  0.8580 -0.9887  0.3803
 6049SOL    HW220780   4.694   7.890   1.643 -0.7150  0.5051  0.8025
 6050SOL     OW20781   0.260   4.036   3.305 -0.8376 -0.0368  0.6273
 6050SOL    HW120782   0.270   4.127   3.277  0.5734 -0.6994 -1.2371
 6050SOL    HW220783   0.302   4.033   3.391  3.2963  0.2605 -1.1181
 6051SOL     OW20784   7.461   5.452   8.262 -0.2318 -0.3230 -0.3547
 6051SOL    HW120785   7.456   5.506   8.183 -0.3369  1.1371  0.6284
 6051SOL    HW220786   7.443   5.512   8.334  0.6867 -1.4455  0.8623
 6052SOL     OW20787   1.885   4.664   5.555  0.4465 -0.4381  0.4027
 6052SOL    HW120788   1.833   4.720   5.613  0.3012  0.6115 -0.6808
 6052SOL    HW220789   1.886   4.712   5.472  0.7538 -1.8301 -0.4169
 6053SOL     OW20790   7.565   7.796   4.462  0.2025  0.0822 -0.1354
 6053SOL    HW120791   7.504   7.816   4.533  2.6956  1.7379  1.7209
 6053SOL    HW220792   7.573   7.877   4.413  1.4126  0.1325  0.1097
 6054SOL     OW20793   6.861   5.722   2.823  0.5970 -0.2203  0.0141
 6054SOL    HW120794   6.918   5.793   2.854 -0.9207  0.1122  2.2607
 6054SOL    HW220795   6.904   5.642   2.853 -0.3476  0.0580  2.3187
 6055SOL     OW20796   0.687   4.773   1.545  0.5111 -0.1996 -0.3603
 6055SOL    HW120797   0.641   4.749   1.625  1.9308 -0.8183  0.3226
 6055SOL    HW220798   0.656   4.712   1.479 -1.7810  1.2565 -0.7235
 6056SOL     OW20799   8.520   2.510   5.618  0.1683  0.1324 -0.0699
 6056SOL    HW120800   8.437   2.507   5.666  0.7044  0.0959  0.8822
 6056SOL    HW220801   8.545   2.603   5.618 -0.9522  0.5059 -2.3155
 6057SOL     OW20802   6.449   6.110   5.727 -0.3199 -0.3513  0.5187
 6057SOL    HW120803   6.497   6.144   5.651 -1.2651 -0.6828 -0.2465
 6057SOL    HW220804   6.425   6.021   5.701 -0.0062 -0.7362  1.5183
 6058SOL     OW20805   6.407   9.189   3.635 -0.2101  0.0615 -0.1465
 6058SOL    HW120806   6.386   9.143   3.716 -0.4527  0.1188 -0.1777
 6058SOL    HW220807   6.475   9.252   3.660 -0.7132  0.4979  0.1373
 6059SOL     OW20808   5.931   0.381   9.264  0.9188 -0.0902 -0.1141
 6059SOL    HW120809   5.999   0.337   9.315  0.6441  0.3461  0.6472
 6059SOL    HW220810   5.967   0.467   9.244  0.4589  0.2911  0.6291
 6060SOL     OW20811   4.396  10.317   8.812  0.3896 -0.2335  0.0428
 6060SOL    HW120812   4.440  10.252   8.866 -0.5162 -1.0632 -0.1670
 6060SOL    HW220813   4.371  10.268   8.733 -0.7733  0.2101  0.1091
 6061SOL     OW20814   6.346   2.353   4.665 -0.4328  0.3350  0.4151
 6061SOL    HW120815   6.410   2.311   4.606 -0.5275 -0.3689  0.7936
 6061SOL    HW220816   6.297   2.413   4.609 -1.7045 -1.5851 -0.6592
 6062SOL     OW20817   0.524   3.111   3.524  0.1195  0.0892  0.5287
 6062SOL    HW120818   0.597   3.153   3.570  1.6792 -1.8332 -0.0053
 6062SOL    HW220819   0.539   3.130   3.432  1.4268 -2.2630  0.1715
 6063SOL     OW20820   2.061   2.124   5.291 -0.1863 -0.0105 -0.0079
 6063SOL    HW120821   2.075   2.155   5.380  1.4005  0.1931 -0.2985
 6063SOL    HW220822   2.081   2.199   5.236 -1.7653  0.0564 -0.5486
 6064SOL     OW20823   8.669   5.690   0.912 -0.2230  0.2592  0.1395
 6064SOL    HW120824   8.723   5.639   0.972  1.3759  1.0663 -0.5555
 6064SOL    HW220825   8.640   5.627   0.845 -0.3404 -0.2249  0.6417
 6065SOL     OW20826   4.013   9.655   7.612  0.1466 -0.3740  0.5407
 6065SOL    HW120827   3.964   9.593   7.558  0.9158 -2.1534  1.8184
 6065SOL    HW220828   3.946   9.711   7.651 -0.4835  0.4188 -1.5405
 6066SOL     OW20829   2.618   6.873   9.081 -0.3120  0.1692  0.0388
 6066SOL    HW120830   2.572   6.880   8.998 -0.6108 -1.4764  0.0142
 6066SOL    HW220831   2.705   6.909   9.065 -1.0295  1.7992 -0.3743
 6067SOL     OW20832   5.728   9.746   2.360 -0.2019 -0.2589 -0.4016
 6067SOL    HW120833   5.745   9.822   2.415  0.2923 -0.0328 -0.8565
 6067SOL    HW220834   5.642   9.716   2.387 -0.2289  0.2175  0.0657
 6068SOL     OW20835   8.992  10.305   1.357 -0.6861  0.5471  0.0887
 6068SOL    HW120836   8.957  10.220   1.386  0.3108  0.2450  0.4534
 6068SOL    HW220837   8.927  10.368   1.386 -0.5203  0.0870  1.5532
 6069SOL     OW20838   9.160   0.502   0.059 -0.5484  0.1779 -0.5985
 6069SOL    HW120839   9.120   0.414   0.059 -0.3476  0.0832 -1.2593
 6069SOL    HW220840   9.208   0.506   0.142 -2.9154  0.7677  0.8461
 6070SOL     OW20841   6.602   2.807   6.232  0.1060 -0.0302  0.2041
 6070SOL    HW120842   6.575   2.884   6.282  3.1571  0.3773  1.4701
 6070SOL    HW220843   6.682   2.835   6.187  0.1537 -1.8756 -0.9595
 6071SOL     OW20844   7.040   5.881   7.920 -0.2470  0.3332  0.0140
 6071SOL    HW120845   7.000   5.843   7.842  0.9751  1.6343 -1.2965
 6071SOL    HW220846   6.970   5.880   7.985 -1.5966  0.0711 -1.3852
 6072SOL     OW20847   2.445   0.546   3.461 -0.0351 -0.5053 -0.3524
 6072SOL    HW120848   2.434   0.453   3.443 -0.2976 -0.8072  1.2296
 6072SOL    HW220849   2.373   0.588   3.415  0.5756 -0.9744 -1.7816
 6073SOL     OW20850   8.451   6.888   9.456 -0.1422  0.5335 -0.1354
 6073SOL    HW120851   8.376   6.878   9.514 -0.0887  0.2031 -0.1191
 6073SOL    HW220852   8.451   6.808   9.403  0.0519  0.6441 -0.3040
 6074SOL     OW20853   7.544   1.732   1.436  0.2002  0.5800 -0.0790
 6074SOL    HW120854   7.564   1.824   1.419  1.4239  0.3496  0.0832
 6074SOL    HW220855   7.513   1.731   1.527  0.4418  0.7872  0.0052
 6075SOL     OW20856   9.818   2.222   3.885 -0.5936 -0.0143 -0.2667
 6075SOL    HW120857   9.857   2.300   3.846  0.1334 -0.0609  0.3458
 6075SOL    HW220858   9.760   2.256   3.954 -1.4180  0.0398 -0.9676
 6076SOL     OW20859   7.598   3.760   3.609  0.2891  0.2295  0.8989
 6076SOL    HW120860   7.575   3.794   3.522  2.3271  1.6259  0.8304
 6076SOL    HW220861   7.586   3.666   3.602 -1.0080  0.4602 -0.4285
 6077SOL     OW20862   5.505   9.510   5.648 -0.7879  0.3275 -0.2161
 6077SOL    HW120863   5.414   9.541   5.647 -0.5849  0.9367 -0.4962
 6077SOL    HW220864   5.512   9.456   5.569 -0.5862  1.2704 -0.8640
 6078SOL     OW20865   0.657   7.905   7.661  0.2863  0.1163  0.1867
 6078SOL    HW120866   0.731   7.850   7.635  0.4428 -0.6170  2.0342
 6078SOL    HW220867   0.656   7.901   7.757 -1.3853  1.1369  0.2594
 6079SOL     OW20868   4.038   7.412   2.733  0.8960  0.5468  0.5939
 6079SOL    HW120869   4.037   7.317   2.722 -0.2861  0.2784  2.5783
 6079SOL    HW220870   3.956   7.433   2.778  2.2722  2.1523  2.5912
 6080SOL     OW20871   9.778   9.630   6.336  0.1525 -0.0866  0.1582
 6080SOL    HW120872   9.829   9.559   6.296 -0.2393  0.7871 -1.9830
 6080SOL    HW220873   9.714   9.585   6.391  0.8673 -1.3377  0.0077
 6081SOL     OW20874   5.448   1.048   2.379  0.3109 -0.0967 -0.1231
 6081SOL    HW120875   5.393   1.092   2.314  0.8368 -1.7845 -1.7914
 6081SOL    HW220876   5.432   1.096   2.461 -2.3134  0.5226 -0.9211
 6082SOL     OW20877   6.019   7.177   0.403 -0.2704  0.1482 -0.0686
 6082SOL    HW120878   5.957   7.151   0.335 -0.2577 -0.9753  0.3295
 6082SOL    HW220879   6.073   7.099   0.417  1.4720  1.1934 -0.6403
 6083SOL     OW20880   5.840   6.089   1.335  0.5333  0.0149  0.2207
 6083SOL    HW120881   5.896   6.063   1.262 -0.6907  1.6198 -1.3766
 6083SOL    HW220882   5.886   6.162   1.376  0.9653 -0.5387  0.7333
 6084SOL     OW20883   4.321   4.805   4.294 -0.2235 -0.5367 -0.4716
 6084SOL    HW120884   4.389   4.830   4.355 -0.9633  2.2623 -0.6733
 6084SOL    HW220885   4.341   4.853   4.214 -1.7244 -0.6310 -0.9428
 6085SOL     OW20886   3.560   4.815   0.851  0.4336 -0.5204  0.5132
 6085SOL    HW120887   3.544   4.787   0.761 -0.0650  0.1275  0.3918
 6085SOL    HW220888   3.588   4.735   0.897 -1.4680 -1.3702  0.3150
 6086SOL     OW20889   2.690   3.899   7.077 -0.5902  0.1723  0.1448
 6086SOL    HW120890   2.766   3.932   7.029  0.5566 -1.4564  0.7240
 6086SOL    HW220891   2.615   3.933   7.030  0.4675  2.3032 -0.1332
 6087SOL     OW20892  10.002   3.416   3.278 -0.1816  0.1170 -0.0892
 6087SOL    HW120893  10.047   3.334   3.300  0.7388  0.3714 -0.9505
 6087SOL    HW220894   9.914   3.388   3.252 -0.3412 -0.4502  0.9596
 6088SOL     OW20895  10.315   1.726   4.839  0.8610 -0.0330  0.0314
 6088SOL    HW120896  10.407   1.750   4.851  0.9519  0.0863 -0.8250
 6088SOL    HW220897  10.293   1.759   4.752 -0.5568  1.6704  0.9847
 6089SOL     OW20898   7.693   7.350   8.894 -0.2771  0.6555 -0.0848
 6089SOL    HW120899   7.670   7.283   8.830  0.9234  0.6772 -0.5578
 6089SOL    HW220900   7.687   7.306   8.979  1.2327 -0.2997 -0.4343
 6090SOL     OW20901   9.546   4.732   4.013  0.0137 -0.4112  0.1131
 6090SOL    HW120902   9.493   4.779   3.949  1.5609 -0.8655 -1.5723
 6090SOL    HW220903   9.591   4.801   4.062  0.2766 -0.0794 -0.5868
 6091SOL     OW20904   3.318   5.727   9.348  0.1691 -0.0160  0.1712
 6091SOL    HW120905   3.279   5.654   9.397  0.2330 -0.9434 -1.1032
 6091SOL    HW220906   3.371   5.774   9.413  0.8716 -1.6526  0.8420
 6092SOL     OW20907   3.149   2.973   1.214  0.1828 -0.0749 -0.3182
 6092SOL    HW120908   3.180   2.883   1.222  1.9378  0.3165 -1.8661
 6092SOL    HW220909   3.226   3.022   1.185 -0.8823  1.8134 -0.1162
 6093SOL     OW20910   3.949  10.307  10.028  0.1923 -0.2622 -0.2140
 6093SOL    HW120911   3.990  10.238   9.976  1.9797  0.6862 -0.1090
 6093SOL    HW220912   4.014  10.330  10.094 -0.6010  1.1242  0.1176
 6094SOL     OW20913   4.002   2.531   1.087 -0.4273  0.0968  0.0150
 6094SOL    HW120914   4.072   2.584   1.125  1.2914 -1.2568 -1.1190
 6094SOL    HW220915   3.929   2.539   1.150  0.1619  2.7280  0.5090
 6095SOL     OW20916   7.334   7.851   5.984  0.1294  0.4317 -0.2792
 6095SOL    HW120917   7.274   7.841   6.058 -0.1284  0.1437 -0.5235
 6095SOL    HW220918   7.421   7.855   6.024  0.0355 -0.2703  0.0075
 6096SOL     OW20919   5.760   5.879   5.739 -0.4411  0.3441  0.2721
 6096SOL    HW120920   5.804   5.964   5.739  0.6078 -0.1800 -0.3341
 6096SOL    HW220921   5.719   5.873   5.653  0.7230 -0.3545 -0.2633
 6097SOL     OW20922   3.969   6.360   9.229 -0.8162  0.4549 -0.1429
 6097SOL    HW120923   4.064   6.348   9.231 -0.7693  0.8984  1.8205
 6097SOL    HW220924   3.956   6.449   9.260 -1.9373 -0.0355  0.8459
 6098SOL     OW20925   8.561   2.093   1.706  0.1445  0.5307 -0.8230
 6098SOL    HW120926   8.561   2.011   1.756 -0.9412 -0.2648 -2.0827
 6098SOL    HW220927   8.503   2.077   1.632  0.5985  2.1605 -1.5861
 6099SOL     OW20928   5.154   6.840   0.177 -0.5874  0.1673 -0.3393
 6099SOL    HW120929   5.170   6.920   0.226 -0.5075  0.0226 -0.1277
 6099SOL    HW220930   5.224   6.781   0.204  0.8344  0.8262 -2.3000
 6100SOL     OW20931   1.693   8.478   2.623 -0.0035  0.1658  0.3797
 6100SOL    HW120932   1.721   8.480   2.715  0.2513 -0.5426  0.3153
 6100SOL    HW220933   1.661   8.389   2.609  0.7648  0.0082 -0.4626
 6101SOL     OW20934   0.326   4.181   4.681  0.4165 -0.3740  0.2498
 6101SOL    HW120935   0.386   4.114   4.648 -0.1130 -0.4657 -0.5374
 6101SOL    HW220936   0.291   4.222   4.603  0.2798  0.4282  0.7220
 6102SOL     OW20937   1.956   1.189   4.989 -0.0069 -0.2647 -0.2437
 6102SOL    HW120938   2.016   1.135   4.938 -0.5345 -0.3029 -0.8364
 6102SOL    HW220939   1.997   1.196   5.075 -0.3961 -2.4971  0.2046
 6103SOL     OW20940   2.149   3.624   3.864 -0.0145 -0.1579  0.2858
 6103SOL    HW120941   2.075   3.567   3.841 -1.2630  1.2058  0.6923
 6103SOL    HW220942   2.174   3.597   3.952  0.3774 -1.0248 -0.0860
 6104SOL     OW20943   0.061   5.387   2.900 -0.2408  0.0801  0.1582
 6104SOL    HW120944   0.045   5.300   2.937  0.5768 -0.8554 -1.5354
 6104SOL    HW220945  -0.024   5.430   2.900 -0.9411 -1.2579 -0.2062
 6105SOL     OW20946   5.988   5.592   9.609 -0.3660  0.5030 -0.0379
 6105SOL    HW120947   6.052   5.621   9.673  3.4888  0.5623 -3.5046
 6105SOL    HW220948   6.009   5.500   9.593 -0.6074  0.6875 -1.6922
 6106SOL     OW20949   9.722   0.199   7.091 -0.0893  0.2937 -0.0348
 6106SOL    HW120950   9.757   0.253   7.162 -0.9644  1.0739 -0.1749
 6106SOL    HW220951   9.761   0.113   7.105 -1.9709 -0.2425  2.8021
 6107SOL     OW20952   5.615   6.900   9.481 -0.2416 -0.2035 -0.1130
 6107SOL    HW120953   5.585   6.892   9.572  0.4765 -0.7106  0.0917
 6107SOL    HW220954   5.687   6.837   9.475 -0.0305  0.1142 -0.9277
 6108SOL     OW20955   5.787   8.951   1.180 -0.0190  0.1223  0.4169
 6108SOL    HW120956   5.837   8.918   1.255  1.6925  0.9730 -0.2997
 6108SOL    HW220957   5.758   9.038   1.206  2.4039  1.3277 -0.5962
 6109SOL     OW20958   8.962  10.085  10.134 -0.0341 -0.6159 -0.2470
 6109SOL    HW120959   9.044  10.036  10.131  0.0948 -0.3943 -0.5588
 6109SOL    HW220960   8.904  10.039  10.074 -0.1342 -0.7692 -0.0320
 6110SOL     OW20961   1.912   9.651   1.037 -0.0525  0.5323 -0.3505
 6110SOL    HW120962   2.003   9.661   1.012  0.7903  1.1874  2.5357
 6110SOL    HW220963   1.898   9.717   1.105 -2.1845 -0.6199  0.4417
 6111SOL     OW20964   7.848   0.826   3.626 -0.0464  0.2357 -0.4566
 6111SOL    HW120965   7.840   0.894   3.693 -0.3753  0.1628 -0.4211
 6111SOL    HW220966   7.783   0.850   3.559 -1.1837 -0.8132  0.2269
 6112SOL     OW20967   0.133   8.612   6.402 -0.2705  0.2093 -0.0699
 6112SOL    HW120968   0.109   8.576   6.317 -0.1013  0.2522 -0.1352
 6112SOL    HW220969   0.153   8.704   6.385 -2.4614  0.8320  0.3815
 6113SOL     OW20970   8.327   8.515   8.699 -1.4425  0.0191 -0.1408
 6113SOL    HW120971   8.364   8.570   8.630 -3.2540 -0.1617 -1.3181
 6113SOL    HW220972   8.354   8.558   8.780 -1.0723  1.4651 -0.9929
 6114SOL     OW20973   6.087   0.605   9.229  0.6145 -0.4643  0.2878
 6114SOL    HW120974   6.069   0.657   9.150 -0.0355 -0.9041  0.1381
 6114SOL    HW220975   6.182   0.604   9.235  0.6478  0.7071  0.2703
 6115SOL     OW20976   1.703   3.759   4.552 -0.6322 -0.5079  0.4232
 6115SOL    HW120977   1.665   3.760   4.464 -0.2639  1.5581  0.2491
 6115SOL    HW220978   1.639   3.806   4.606 -0.1865 -0.5168  0.9647
 6116SOL     OW20979   2.495   4.067   3.883  0.2188  0.1649 -0.1504
 6116SOL    HW120980   2.590   4.059   3.899  0.3828  0.6438 -0.8627
 6116SOL    HW220981   2.470   3.983   3.845  0.5571  0.3982 -0.9039
 6117SOL     OW20982   8.537   0.547   1.091  0.1991 -0.0686 -0.9036
 6117SOL    HW120983   8.471   0.615   1.074 -0.0635  0.1199  0.6987
 6117SOL    HW220984   8.610   0.571   1.034 -0.0217  1.3838 -0.6322
 6118SOL     OW20985   4.713   8.873   7.366  0.3440  0.6153  0.0052
 6118SOL    HW120986   4.642   8.931   7.394 -1.3004 -1.3986  0.2877
 6118SOL    HW220987   4.746   8.835   7.447 -2.2255 -2.7514 -0.3047
 6119SOL     OW20988   6.428   7.839   3.612 -0.2633 -0.0736 -0.3115
 6119SOL    HW120989   6.385   7.924   3.597  2.5167  1.1261 -2.4088
 6119SOL    HW220990   6.428   7.797   3.526 -0.6353 -1.7736  0.4830
 6120SOL     OW20991   0.976   2.486   1.701  0.6020 -0.3077 -0.9440
 6120SOL    HW120992   0.978   2.443   1.616 -0.8438 -1.1719 -0.5872
 6120SOL    HW220993   0.897   2.451   1.743 -0.0392  1.8959 -0.1903
 6121SOL     OW20994   6.009   0.422   9.592 -0.2747  0.1693  0.3614
 6121SOL    HW120995   5.921   0.408   9.557 -1.0016  0.4560  1.9683
 6121SOL    HW220996   5.998   0.417   9.687  1.3285  0.8646  0.6201
 6122SOL     OW20997   6.253   8.363   6.784  0.0804  0.2107  0.1205
 6122SOL    HW120998   6.205   8.445   6.771 -1.0325 -0.4482 -0.0156
 6122SOL    HW220999   6.186   8.298   6.804  0.8124 -0.9363 -0.9635
 6123SOL     OW21000   3.937   1.782   6.577 -0.6007 -0.0798 -0.9661
 6123SOL    HW121001   4.007   1.749   6.521  0.2381  0.3988 -0.2309
 6123SOL    HW221002   3.870   1.814   6.516 -0.0501 -0.2757 -1.6809
 6124SOL     OW21003   7.160   1.576   4.333  0.1987  0.6560  0.2369
 6124SOL    HW121004   7.167   1.481   4.323  0.2735  0.7495 -0.7929
 6124SOL    HW221005   7.205   1.596   4.415  2.2048  0.0353 -0.6673
 6125SOL     OW21006   4.112   0.464   5.984 -0.8526  0.1230 -0.3080
 6125SOL    HW121007   4.144   0.463   5.894  2.0052 -0.6214  0.6050
 6125SOL    HW221008   4.179   0.512   6.033 -1.6093 -0.6899  1.6505
 6126SOL     OW21009   1.232   3.697   9.654  0.3634  0.4759 -0.4089
 6126SOL    HW121010   1.203   3.765   9.714  1.1919 -0.1912  0.7986
 6126SOL    HW221011   1.179   3.620   9.677  1.6808 -0.1964  0.4961
 6127SOL     OW21012   1.324   4.597   5.950  0.9588 -0.3387 -0.7369
 6127SOL    HW121013   1.387   4.631   6.013 -0.0705 -0.1535  0.2174
 6127SOL    HW221014   1.362   4.619   5.865  2.7769 -1.3188 -0.2341
 6128SOL     OW21015   1.870   3.339   1.321 -0.3935 -0.5583  0.1270
 6128SOL    HW121016   1.894   3.346   1.228 -2.0840  0.0286 -0.3172
 6128SOL    HW221017   1.927   3.401   1.365 -1.4588  1.3067 -0.9671
 6129SOL     OW21018   2.583   1.600   7.472 -0.1330  0.0628 -0.2676
 6129SOL    HW121019   2.653   1.612   7.409 -1.6752  1.1008 -1.8935
 6129SOL    HW221020   2.521   1.671   7.453 -1.1460 -0.2042  1.7537
 6130SOL     OW21021   3.072   0.758   2.512  0.0726 -0.0797  0.1444
 6130SOL    HW121022   3.025   0.676   2.523 -1.4051  0.7120  0.0930
 6130SOL    HW221023   3.005   0.821   2.485  1.1490  1.1453  0.1820
 6131SOL     OW21024   7.141   1.868   5.630 -0.0979 -0.1628  0.3526
 6131SOL    HW121025   7.070   1.908   5.581  0.0802  0.2401  0.4146
 6131SOL    HW221026   7.154   1.782   5.590 -0.0447  0.1073 -0.2049
 6132SOL     OW21027   5.319   1.577   5.665 -0.5834 -0.0228  0.5365
 6132SOL    HW121028   5.287   1.649   5.611 -0.2964 -0.8224 -0.7400
 6132SOL    HW221029   5.337   1.506   5.603 -2.3229 -1.7610  1.8820
 6133SOL     OW21030   2.131   8.512   3.931  0.1866  0.3638  0.4634
 6133SOL    HW121031   2.170   8.465   4.004 -1.8548 -0.9553  0.7953
 6133SOL    HW221032   2.178   8.481   3.854  1.5204  0.8346  1.0576
 6134SOL     OW21033   0.659   2.553   5.899  0.2262  0.6904  0.4266
 6134SOL    HW121034   0.730   2.572   5.959 -0.6208  0.3907  1.5509
 6134SOL    HW221035   0.617   2.638   5.884 -0.0012  0.6527  0.8376
 6135SOL     OW21036   6.554   7.723   6.668  0.1561  0.1702  0.0432
 6135SOL    HW121037   6.494   7.704   6.740  0.1387  0.4355  0.0960
 6135SOL    HW221038   6.627   7.663   6.682  0.0315  0.0376  0.1320
 6136SOL     OW21039   6.192   2.617   0.568  0.2457 -0.4458  0.0779
 6136SOL    HW121040   6.218   2.680   0.635  2.8819 -1.6707  0.2977
 6136SOL    HW221041   6.127   2.561   0.612  1.7996 -1.1211  1.6216
 6137SOL     OW21042   1.332   5.099   2.836  0.2833  0.5753  0.2116
 6137SOL    HW121043   1.337   5.016   2.788 -1.2313  0.7282 -0.2778
 6137SOL    HW221044   1.353   5.166   2.770  1.4980  0.5988  0.6038
 6138SOL     OW21045   6.138   6.974   9.538  0.2040 -0.3370 -0.2021
 6138SOL    HW121046   6.129   7.002   9.629  0.2483  0.6438 -0.4833
 6138SOL    HW221047   6.210   7.027   9.504 -1.0967  0.7754 -1.3420
 6139SOL     OW21048   0.217   7.939   4.680 -0.1190 -0.5384  0.1438
 6139SOL    HW121049   0.307   7.964   4.660  0.4680  0.0500  3.0033
 6139SOL    HW221050   0.222   7.845   4.698  0.1932 -0.3079  1.3608
 6140SOL     OW21051   3.751   1.508   8.247  0.0869  0.1056 -0.9135
 6140SOL    HW121052   3.687   1.441   8.223 -0.2373  0.2271 -0.3987
 6140SOL    HW221053   3.836   1.467   8.231 -0.1157  0.0742 -1.9558
 6141SOL     OW21054   7.909   6.509   5.411 -0.0738  0.2691 -0.3469
 6141SOL    HW121055   7.991   6.485   5.366 -0.1771  2.2458 -1.7218
 6141SOL    HW221056   7.928   6.593   5.452 -0.6616 -0.4940  1.5790
 6142SOL     OW21057   4.426   6.771   6.051 -0.3964 -0.0617  0.4634
 6142SOL    HW121058   4.454   6.828   6.123 -0.7987  1.0140 -0.2073
 6142SOL    HW221059   4.496   6.707   6.042  1.9438  2.5218 -1.1414
 6143SOL     OW21060   4.574   6.138   0.250 -0.3735 -0.5254  0.3392
 6143SOL    HW121061   4.597   6.056   0.294 -0.5597 -0.8728 -0.1942
 6143SOL    HW221062   4.628   6.138   0.171  0.5989  0.5080  0.9848
 6144SOL     OW21063   8.526   5.077   1.848  0.3191  0.4277  0.2809
 6144SOL    HW121064   8.551   5.066   1.757  0.1849  0.5803  0.2259
 6144SOL    HW221065   8.509   4.988   1.879  1.4031  0.2597  0.4565
 6145SOL     OW21066   6.509   8.230   6.058  0.0905  0.0421 -0.1112
 6145SOL    HW121067   6.435   8.225   6.119 -2.0098 -0.2399 -2.5365
 6145SOL    HW221068   6.527   8.139   6.036 -0.3122  0.2155 -1.1841
 6146SOL     OW21069   1.834   1.069   5.209  0.6062  0.0106  0.2040
 6146SOL    HW121070   1.884   0.998   5.168  1.1020  1.7188 -2.4444
 6146SOL    HW221071   1.745   1.058   5.175  0.6570  0.5791 -0.1133
 6147SOL     OW21072   3.787   7.866   6.868 -0.3160  0.1720  0.2695
 6147SOL    HW121073   3.869   7.817   6.861 -0.5157 -0.1599  0.2353
 6147SOL    HW221074   3.721   7.799   6.888 -0.6097  0.4143  0.1084
 6148SOL     OW21075   5.507   7.430   7.088 -0.0711  0.2375  0.3559
 6148SOL    HW121076   5.527   7.348   7.132 -0.3491 -0.7953 -1.3568
 6148SOL    HW221077   5.416   7.448   7.112 -0.8018 -1.2563 -1.1595
 6149SOL     OW21078  10.157   0.306   9.905 -0.2302  0.6230  0.3288
 6149SOL    HW121079  10.209   0.243   9.855 -1.2506  0.7854 -0.9900
 6149SOL    HW221080  10.206   0.388   9.901 -0.8363  0.9441 -1.4526
 6150SOL     OW21081   8.410   4.998   4.084 -0.1265  0.2621 -0.1349
 6150SOL    HW121082   8.454   4.927   4.132 -1.3320 -0.4563 -0.0456
 6150SOL    HW221083   8.331   5.015   4.135 -0.6509  0.5592 -1.0338
 6151SOL     OW21084   6.204   1.611   3.963  0.0510 -0.2644 -0.3427
 6151SOL    HW121085   6.255   1.615   3.882 -0.8644  0.7068 -0.9038
 6151SOL    HW221086   6.256   1.660   4.027  0.1113  0.2239 -0.7541
 6152SOL     OW21087   4.132   2.094   9.755  0.1687 -0.0806 -0.1277
 6152SOL    HW121088   4.109   2.171   9.702 -0.4205 -0.4847 -0.4662
 6152SOL    HW221089   4.147   2.130   9.843 -1.5636  0.2416  0.0654
 6153SOL     OW21090   8.652   3.984   8.940 -0.1071 -0.0840  0.0573
 6153SOL    HW121091   8.579   3.922   8.943 -1.6411  1.6501  1.5975
 6153SOL    HW221092   8.659   4.009   8.848 -0.2583 -1.5792 -0.3895
 6154SOL     OW21093   0.262   5.574   3.673  0.1097 -0.3707  0.5129
 6154SOL    HW121094   0.337   5.532   3.715  0.9668  0.7543  0.1554
 6154SOL    HW221095   0.299   5.652   3.632 -1.3207  0.3704  0.5974
 6155SOL     OW21096   7.817   9.469   1.736 -0.1672  0.6379 -0.1670
 6155SOL    HW121097   7.724   9.486   1.752  0.1869  2.2982  0.3668
 6155SOL    HW221098   7.835   9.510   1.652 -0.4649 -2.0387 -1.6374
 6156SOL     OW21099   2.717   8.154   7.827  0.0838 -0.3661  0.2835
 6156SOL    HW121100   2.715   8.241   7.866  0.2735 -0.4353  0.4506
 6156SOL    HW221101   2.765   8.100   7.890 -0.4456 -0.7031  0.4025
 6157SOL     OW21102   3.523   8.300   1.282 -0.2240  0.5686  0.2269
 6157SOL    HW121103   3.565   8.386   1.281 -0.2773  0.5936 -0.4783
 6157SOL    HW221104   3.574   8.249   1.345 -0.1523  1.0957  0.6013
 6158SOL     OW21105   6.266   0.251   9.824  0.0787 -0.1156  0.6902
 6158SOL    HW121106   6.322   0.177   9.845 -0.6092 -0.6939  0.5135
 6158SOL    HW221107   6.252   0.245   9.729 -1.5740 -0.9231  0.9535
 6159SOL     OW21108   9.165   5.713   3.002  0.5820  0.1017  0.1124
 6159SOL    HW121109   9.176   5.618   2.992  0.3694  0.1047 -0.1562
 6159SOL    HW221110   9.214   5.750   2.929  0.1133  0.1748 -0.1672
 6160SOL     OW21111   6.677   2.147   5.705  0.0565 -0.6823  0.6220
 6160SOL    HW121112   6.604   2.128   5.647 -0.5513  1.0898  0.7159
 6160SOL    HW221113   6.637   2.195   5.778  1.1819 -0.4518  1.1146
 6161SOL     OW21114   3.293   9.877   8.827  0.0859 -0.2610  0.0624
 6161SOL    HW121115   3.280   9.859   8.920 -0.7342  1.5398  0.3506
 6161SOL    HW221116   3.327   9.967   8.826  4.4167 -1.6500 -1.1707
 6162SOL     OW21117   3.601   2.195   3.705 -0.5954  0.5217 -0.3083
 6162SOL    HW121118   3.630   2.247   3.630 -0.8961 -0.2271 -0.9562
 6162SOL    HW221119   3.681   2.164   3.746 -0.3392  2.5633  0.8993
 6163SOL     OW21120   0.320   0.391   3.217  0.4951 -0.4468  0.2302
 6163SOL    HW121121   0.311   0.300   3.189  1.9309 -0.4255 -0.3675
 6163SOL    HW221122   0.318   0.441   3.136  0.3068  0.0095  0.5127
 6164SOL     OW21123   4.136   1.809   7.949  0.9578 -0.5148 -0.3194
 6164SOL    HW121124   4.158   1.806   7.856  1.8198 -2.4913 -0.1008
 6164SOL    HW221125   4.055   1.758   7.955  0.1658  0.7265 -0.1396
 6165SOL     OW21126   9.073   2.071   6.751  0.1041  0.0613  0.3977
 6165SOL    HW121127   9.045   2.006   6.816 -2.4536 -1.0284 -1.6287
 6165SOL    HW221128   9.117   2.019   6.683  0.6247  0.8617  0.1102
 6166SOL     OW21129   1.296  10.155   6.383  0.4747  0.1226  0.6602
 6166SOL    HW121130   1.254  10.241   6.373  0.9406  0.1726 -1.2762
 6166SOL    HW221131   1.266  10.105   6.307 -0.5350 -1.7998  2.2418
 6167SOL     OW21132   9.124   1.118   0.267  0.0940  0.4044 -0.2300
 6167SOL    HW121133   9.141   1.038   0.317 -0.3005  0.2730 -0.3080
 6167SOL    HW221134   9.062   1.167   0.321 -0.2090  0.3351 -0.5197
 6168SOL     OW21135   4.778   1.971   8.146  0.2024  0.0336 -0.2371
 6168SOL    HW121136   4.764   1.887   8.102 -1.8187  0.0806  0.2200
 6168SOL    HW221137   4.837   2.019   8.088 -0.1224 -0.9821 -1.4398
 6169SOL     OW21138   5.037   3.733   0.835 -0.3221 -0.5049  0.0471
 6169SOL    HW121139   5.114   3.699   0.881 -0.4432  0.4527  1.0166
 6169SOL    HW221140   4.977   3.659   0.831  0.0516 -0.8540  0.6587
 6170SOL     OW21141   2.551   0.294   4.150  0.4559  0.2820 -0.5306
 6170SOL    HW121142   2.599   0.238   4.212 -0.3673  0.3222  0.1553
 6170SOL    HW221143   2.467   0.310   4.193  0.3143  1.2535 -1.1601
 6171SOL     OW21144   4.113   8.575   1.715 -0.6554  0.0846  0.2300
 6171SOL    HW121145   4.200   8.605   1.742 -0.4681  1.8338 -2.0424
 6171SOL    HW221146   4.121   8.479   1.712  0.3629  0.0150  2.5161
 6172SOL     OW21147   0.887   0.751   5.806  0.3654 -0.0264  0.3326
 6172SOL    HW121148   0.947   0.732   5.878  0.0009 -1.3600  0.3065
 6172SOL    HW221149   0.894   0.846   5.794  0.8219  0.1498  1.7708
 6173SOL     OW21150   2.578   2.931   0.359 -0.4740  0.3719  0.2526
 6173SOL    HW121151   2.613   2.931   0.270 -1.2488  0.8389 -0.0657
 6173SOL    HW221152   2.573   3.024   0.383 -0.6335  0.2694  0.6313
 6174SOL     OW21153   1.588   8.013   3.536 -1.0211 -0.0207 -0.2050
 6174SOL    HW121154   1.585   8.077   3.608 -1.7604 -0.9643  0.6371
 6174SOL    HW221155   1.515   7.954   3.554  0.6866 -2.1507  0.0529
 6175SOL     OW21156   4.517   0.538   5.772 -0.6773  0.3107 -0.0360
 6175SOL    HW121157   4.576   0.466   5.796 -1.8102 -0.9885 -0.9760
 6175SOL    HW221158   4.556   0.616   5.812  0.6710 -0.7966  0.8905
 6176SOL     OW21159   7.179   7.434   2.702 -0.3734  0.5137  0.0095
 6176SOL    HW121160   7.097   7.466   2.664  0.1668  2.3757  0.3043
 6176SOL    HW221161   7.247   7.468   2.644  0.2538  0.1340  0.5131
 6177SOL     OW21162   0.959   9.716   1.788 -0.5425  0.3230  0.8128
 6177SOL    HW121163   0.908   9.686   1.713  1.3965 -0.6230 -0.1959
 6177SOL    HW221164   0.990   9.803   1.763 -1.5402  0.8860  1.4166
 6178SOL     OW21165   9.053   8.494   4.707 -0.4501  0.5089  0.4527
 6178SOL    HW121166   9.035   8.419   4.650  2.3380  0.0183  0.0627
 6178SOL    HW221167   9.067   8.454   4.794 -1.0410  0.8352  0.7010
 6179SOL     OW21168   5.511   7.865   9.252  0.2486  0.5171  0.2140
 6179SOL    HW121169   5.498   7.771   9.268 -0.0157  0.6318  0.6720
 6179SOL    HW221170   5.510   7.905   9.339  1.7153  0.7751  0.1386
 6180SOL     OW21171   4.244   8.763   0.563  0.3302 -0.3897  0.1459
 6180SOL    HW121172   4.268   8.846   0.604 -1.8674  0.6192 -0.4213
 6180SOL    HW221173   4.300   8.758   0.485 -0.1380  1.0658 -0.3274
 6181SOL     OW21174   4.456   2.346   9.528  0.1380 -0.2718 -0.4745
 6181SOL    HW121175   4.405   2.388   9.597  0.6393 -1.1872  0.4809
 6181SOL    HW221176   4.514   2.286   9.574 -0.0566 -1.4880 -1.7471
 6182SOL     OW21177   0.182   3.536   7.597  0.2638 -0.5830 -0.4542
 6182SOL    HW121178   0.162   3.573   7.683  0.4246 -1.5879  0.0390
 6182SOL    HW221179   0.097   3.507   7.564  0.1012  0.4222 -0.9511
 6183SOL     OW21180   7.124   1.904   9.883  0.8010 -0.4525  0.0494
 6183SOL    HW121181   7.127   1.815   9.918 -1.1966  0.2082  2.1049
 6183SOL    HW221182   7.215   1.933   9.885  1.1273 -1.4816  2.0359
 6184SOL     OW21183   7.459   6.467   8.743 -0.1416 -0.2723 -0.2975
 6184SOL    HW121184   7.463   6.384   8.790  0.9043  0.5797  1.2218
 6184SOL    HW221185   7.391   6.517   8.788  0.4309  0.3199 -0.0666
 6185SOL     OW21186   4.455   3.397   5.149 -0.3551 -0.1574 -0.1290
 6185SOL    HW121187   4.405   3.317   5.165 -0.3269 -0.3520 -0.9714
 6185SOL    HW221188   4.417   3.433   5.069 -0.3079  0.6256  0.1972
 6186SOL     OW21189   4.230   1.303   7.445 -0.2992  0.1227  0.2662
 6186SOL    HW121190   4.239   1.391   7.407 -2.2005  0.4203  0.4056
 6186SOL    HW221191   4.149   1.269   7.408 -1.1852 -0.3674  2.4962
 6187SOL     OW21192   6.134   3.517   8.988 -0.0275  0.3015 -0.4213
 6187SOL    HW121193   6.210   3.532   9.044 -0.4614  0.3223  0.1790
 6187SOL    HW221194   6.066   3.487   9.048 -0.8601  1.4357 -0.7536
 6188SOL     OW21195   2.870   2.320   4.648 -0.2125 -0.1560  0.1003
 6188SOL    HW121196   2.883   2.382   4.576 -1.7398  0.5940  0.4290
 6188SOL    HW221197   2.958   2.287   4.668  0.5642  1.4944 -0.4512
 6189SOL     OW21198   3.179   7.738   3.718  0.3290 -0.6017  0.4709
 6189SOL    HW121199   3.237   7.710   3.647 -0.1050 -2.0472  0.6584
 6189SOL    HW221200   3.160   7.829   3.699  1.8431 -0.3866 -0.1543
 6190SOL     OW21201   3.739   5.040   2.167 -0.4364  0.0901 -0.2093
 6190SOL    HW121202   3.697   5.120   2.199  1.7692  1.6818 -1.0934
 6190SOL    HW221203   3.799   5.015   2.236 -1.2875 -0.9911  0.1643
 6191SOL     OW21204   2.734   2.784   6.018 -0.1042 -0.2123  0.2550
 6191SOL    HW121205   2.745   2.799   5.924 -0.1225 -0.2154  0.2524
 6191SOL    HW221206   2.662   2.721   6.024 -2.7836  2.6151  0.4115
 6192SOL     OW21207  10.156   5.649   5.749  0.2630 -0.2689  0.2175
 6192SOL    HW121208  10.143   5.738   5.717 -0.4481  0.0113  1.2505
 6192SOL    HW221209  10.165   5.596   5.669 -2.7743  0.2188 -0.5566
 6193SOL     OW21210   8.710   7.218   2.631  0.1128 -0.6795 -0.3268
 6193SOL    HW121211   8.620   7.185   2.629  0.4493 -1.6455 -2.2508
 6193SOL    HW221212   8.713   7.285   2.563  1.3531 -2.2086 -1.8514
 6194SOL     OW21213   3.601   8.106   9.840 -0.4686 -0.4348 -0.1539
 6194SOL    HW121214   3.657   8.028   9.841  0.2709  0.0632  1.4192
 6194SOL    HW221215   3.514   8.073   9.860 -0.5420 -1.0764 -1.4444
 6195SOL     OW21216   3.481   2.930   0.926  0.1539 -0.7669  0.4857
 6195SOL    HW121217   3.459   2.839   0.906 -0.2965 -0.6123  0.2719
 6195SOL    HW221218   3.516   2.927   1.015 -0.3296 -1.0767  0.6667
 6196SOL     OW21219   1.111   7.803   3.854  0.1797 -0.0718 -0.1307
 6196SOL    HW121220   1.089   7.893   3.879  0.4379 -0.6006  2.2303
 6196SOL    HW221221   1.028   7.766   3.824 -0.6510  0.0638  1.8601
 6197SOL     OW21222   2.637   7.329   3.527 -0.5138 -0.5412  0.1358
 6197SOL    HW121223   2.663   7.293   3.442 -0.9677 -1.2878  0.3022
 6197SOL    HW221224   2.542   7.340   3.520 -0.3797  0.6684  0.0810
 6198SOL     OW21225   3.968   9.384   3.322 -0.0328  0.2128 -0.3482
 6198SOL    HW121226   4.011   9.465   3.295  0.0097  0.0125 -0.9012
 6198SOL    HW221227   4.025   9.314   3.290 -1.3134 -0.0912 -2.1849
 6199SOL     OW21228   0.335   5.136   0.506 -0.1230 -0.0680  0.2242
 6199SOL    HW121229   0.374   5.080   0.573 -0.8918  0.6748  1.3277
 6199SOL    HW221230   0.265   5.183   0.552 -0.9221  0.1831 -1.1944
 6200SOL     OW21231   3.889   3.029   2.351  0.1125  0.2664 -0.2883
 6200SOL    HW121232   3.854   2.943   2.330 -0.5613  0.3644  0.4049
 6200SOL    HW221233   3.904   3.070   2.266 -1.3931  0.1927 -0.6071
 6201SOL     OW21234   8.153   8.195   9.694 -0.6570 -0.0691 -0.1947
 6201SOL    HW121235   8.079   8.229   9.643 -0.8357 -0.3564 -0.1289
 6201SOL    HW221236   8.221   8.178   9.629  0.8539  3.8334  0.0454
 6202SOL     OW21237   6.176   5.199   4.786  0.0864 -0.1855 -0.3516
 6202SOL    HW121238   6.110   5.192   4.717  0.8003 -0.4480 -1.0206
 6202SOL    HW221239   6.258   5.173   4.744  0.3917 -1.2838  0.8441
 6203SOL     OW21240   3.910   4.915   2.447 -0.3815  0.7345 -0.2571
 6203SOL    HW121241   3.975   4.887   2.382  0.5942  0.4054  0.8263
 6203SOL    HW221242   3.884   4.834   2.490  0.4681  1.1511  1.0949
 6204SOL     OW21243   6.801   9.720   6.055 -0.1958 -0.0086  0.1593
 6204SOL    HW121244   6.885   9.748   6.020  0.9085  0.3357  2.8641
 6204SOL    HW221245   6.777   9.787   6.119 -1.1102 -1.5047  1.4819
 6205SOL     OW21246   8.323   0.145   1.052  0.3125  0.2598  0.0932
 6205SOL    HW121247   8.257   0.092   1.096  1.0831  0.3485  1.4028
 6205SOL    HW221248   8.378   0.082   1.005  1.9138 -0.2994  2.5519
 6206SOL     OW21249   1.329   0.597   7.355 -0.0479  0.4679  0.7462
 6206SOL    HW121250   1.383   0.523   7.382  0.7328 -0.5653 -3.0678
 6206SOL    HW221251   1.389   0.671   7.350  0.6013 -0.1183 -1.1073
 6207SOL     OW21252   3.373   2.468   4.158 -0.1917 -0.5916 -0.1472
 6207SOL    HW121253   3.393   2.412   4.083  0.2088 -2.0650  1.0136
 6207SOL    HW221254   3.297   2.426   4.199 -0.0696 -0.1274  0.5776
 6208SOL     OW21255   8.508   0.038   2.104  0.3231 -0.0937  0.0065
 6208SOL    HW121256   8.576   0.024   2.038 -0.1355 -0.9252 -0.3158
 6208SOL    HW221257   8.522   0.127   2.135  1.2981 -0.1135 -0.3469
 6209SOL     OW21258   9.256   8.313   6.835  0.1738  0.5095 -1.1508
 6209SOL    HW121259   9.282   8.243   6.895  0.3843  0.7400 -0.9705
 6209SOL    HW221260   9.264   8.275   6.748 -2.1683 -0.5277 -0.9957
 6210SOL     OW21261   5.918   8.672  10.055 -0.6917 -0.1596  0.2199
 6210SOL    HW121262   5.844   8.638  10.006 -0.4451 -0.1464 -0.1695
 6210SOL    HW221263   5.934   8.758  10.017 -1.8831  0.8180  1.7898
 6211SOL     OW21264   6.103   2.260   4.334 -0.1832  0.1535 -0.2727
 6211SOL    HW121265   6.127   2.173   4.365  1.7400  1.4915  2.4679
 6211SOL    HW221266   6.156   2.273   4.255 -0.8584 -1.2818 -0.9856
 6212SOL     OW21267   9.813   9.461   9.992 -0.1827  0.2431  0.0168
 6212SOL    HW121268   9.795   9.555   9.985  3.1089  1.0085  0.0944
 6212SOL    HW221269   9.841   9.435   9.904 -3.4082 -1.3935 -0.6924
 6213SOL     OW21270   5.198   9.784   3.839  0.2050  0.3612  0.2023
 6213SOL    HW121271   5.208   9.813   3.748 -0.3565  0.1427  0.0643
 6213SOL    HW221272   5.105   9.797   3.858  0.3561  0.5912  0.8148
 6214SOL     OW21273   5.672   5.131   0.253  0.5219 -1.1639  0.6243
 6214SOL    HW121274   5.640   5.060   0.197 -1.5976 -2.5658  3.4064
 6214SOL    HW221275   5.600   5.193   0.258  1.9526  0.7535 -0.8549
 6215SOL     OW21276   2.739  10.047   6.181 -0.2877 -0.3808  0.3516
 6215SOL    HW121277   2.653  10.069   6.144 -0.6879 -1.5172  0.5554
 6215SOL    HW221278   2.800  10.103   6.134 -0.9985 -0.4511 -0.7063
 6216SOL     OW21279   8.256   5.014   4.327 -0.2550 -0.0996  0.2259
 6216SOL    HW121280   8.331   5.050   4.375 -0.7636  0.2587  0.7646
 6216SOL    HW221281   8.183   5.070   4.353 -0.7430 -0.5648 -0.1508
 6217SOL     OW21282   3.983   2.404   1.662 -0.2665 -0.0027  0.1407
 6217SOL    HW121283   4.026   2.321   1.684 -0.1343  0.3940  1.4733
 6217SOL    HW221284   3.894   2.394   1.696 -0.5700  0.0060 -0.6507
 6218SOL     OW21285   4.091   9.002   1.946 -0.6440  0.0333  0.1452
 6218SOL    HW121286   4.000   8.975   1.939 -0.9680  1.0319  0.3400
 6218SOL    HW221287   4.139   8.939   1.893 -1.5072 -0.2231 -0.3475
 6219SOL     OW21288   4.408   1.350   9.996 -0.7870  0.7953 -0.2204
 6219SOL    HW121289   4.500   1.335   9.973 -1.0593 -0.0039 -0.8446
 6219SOL    HW221290   4.382   1.269  10.040 -1.2004  1.0112 -0.0673
 6220SOL     OW21291   7.592   4.336   8.962 -0.3175  0.1038  0.0525
 6220SOL    HW121292   7.625   4.343   8.872 -1.8062 -1.2024 -0.6470
 6220SOL    HW221293   7.551   4.250   8.966  0.3763 -0.1885  2.2443
 6221SOL     OW21294   4.930   5.170   3.692  0.7548  0.6135 -0.2650
 6221SOL    HW121295   4.955   5.147   3.603  1.0318  0.1618 -0.0711
 6221SOL    HW221296   4.836   5.155   3.695  0.9360 -0.5419 -0.1291
 6222SOL     OW21297   8.836   2.325   3.568 -0.3148  0.4037  0.3149
 6222SOL    HW121298   8.795   2.319   3.482 -1.6697 -0.6895  0.9863
 6222SOL    HW221299   8.854   2.234   3.592  3.2334  0.8408 -0.2071
 6223SOL     OW21300   9.017   4.109   8.756  0.0432  0.0588  0.1667
 6223SOL    HW121301   8.983   4.047   8.691 -0.2471  0.5222 -0.1325
 6223SOL    HW221302   8.945   4.172   8.769  0.9967  1.4623 -0.9989
 6224SOL     OW21303   1.830   2.193   6.618 -0.1552 -0.1871  0.4546
 6224SOL    HW121304   1.811   2.152   6.703 -0.6476 -0.8440  0.0346
 6224SOL    HW221305   1.884   2.269   6.640 -2.2961  1.1022  1.5972
 6225SOL     OW21306   4.305   4.871   2.552  0.1413 -0.6587  0.4494
 6225SOL    HW121307   4.234   4.908   2.604  0.1568 -1.1642  0.8336
 6225SOL    HW221308   4.263   4.839   2.473  0.3609  1.7817 -0.7425
 6226SOL     OW21309   4.060   0.909   0.301  0.2536 -0.0683  0.0445
 6226SOL    HW121310   4.105   0.824   0.308 -0.7424 -0.6596 -0.4749
 6226SOL    HW221311   4.080   0.939   0.212 -0.4709 -0.4132 -0.2494
 6227SOL     OW21312   6.009   5.008   9.026  0.4525 -1.0453  0.5541
 6227SOL    HW121313   6.016   5.047   8.939 -1.1606 -1.5581  0.1521
 6227SOL    HW221314   6.056   4.924   9.018  1.3910 -0.5357  0.5681
 6228SOL     OW21315   8.431   4.315   2.459  0.3303  0.3503  0.2801
 6228SOL    HW121316   8.407   4.396   2.413  1.1091  0.1554 -0.5028
 6228SOL    HW221317   8.375   4.248   2.420  1.8976 -0.0767 -1.4431
 6229SOL     OW21318   9.202   9.016   2.846  0.1227 -0.8694 -0.5776
 6229SOL    HW121319   9.204   8.967   2.928 -1.2870  1.0075  0.6714
 6229SOL    HW221320   9.292   9.045   2.833  0.1804 -0.2773  0.9347
 6230SOL     OW21321   4.473   1.174   3.154 -0.6961 -0.5388  0.2145
 6230SOL    HW121322   4.465   1.164   3.059 -2.0846  0.7873  0.1475
 6230SOL    HW221323   4.385   1.195   3.184 -0.0816  0.1996  1.6397
 6231SOL     OW21324   0.157   5.322   5.356 -0.3231 -0.1005 -0.3190
 6231SOL    HW121325   0.086   5.361   5.304 -0.0753 -1.3672 -1.6444
 6231SOL    HW221326   0.192   5.396   5.407 -1.7501  0.8062 -0.5846
 6232SOL     OW21327   4.843   8.016   3.406 -0.2981 -0.4927 -0.1534
 6232SOL    HW121328   4.908   8.041   3.339 -0.5510  0.2107 -0.1496
 6232SOL    HW221329   4.764   7.998   3.356  0.3574 -3.2105 -0.3446
 6233SOL     OW21330   9.329   9.338   9.920  0.1302 -0.0754  0.5897
 6233SOL    HW121331   9.354   9.377  10.003 -0.5158  0.8154  0.3898
 6233SOL    HW221332   9.400   9.360   9.860  0.2017 -0.0042  0.7014
 6234SOL     OW21333   1.385  10.274   9.091 -0.0340 -0.5414  0.4867
 6234SOL    HW121334   1.389  10.340   9.160 -1.0928 -1.1524  1.1591
 6234SOL    HW221335   1.291  10.261   9.075  0.1824 -1.0506 -0.4495
 6235SOL     OW21336   4.924   0.885   9.405 -0.6448  0.1516  0.2564
 6235SOL    HW121337   4.963   0.804   9.435  1.1214  1.1550  0.7978
 6235SOL    HW221338   4.927   0.943   9.481 -1.4593  0.8725 -0.2415
 6236SOL     OW21339   9.433   7.103  10.360  0.0174  0.3567  0.1489
 6236SOL    HW121340   9.498   7.173  10.352 -0.0591  0.3688 -0.4094
 6236SOL    HW221341   9.473   7.028  10.316 -0.3035  0.3351 -0.1098
 6237SOL     OW21342   0.719   2.285   2.407  0.0800  0.5431 -0.1649
 6237SOL    HW121343   0.650   2.333   2.361  0.6655  0.9396 -0.6521
 6237SOL    HW221344   0.700   2.193   2.391 -1.4663  0.5529  1.3723
 6238SOL     OW21345   5.625   5.248   5.932  0.0936 -0.4976  0.0433
 6238SOL    HW121346   5.575   5.308   5.877  2.0889  1.0992 -0.1088
 6238SOL    HW221347   5.650   5.177   5.873 -0.0124 -0.1346 -0.4422
 6239SOL     OW21348   9.175   4.747   6.504 -0.3347  0.3103 -0.9190
 6239SOL    HW121349   9.183   4.651   6.510  1.7159  0.5176  1.6107
 6239SOL    HW221350   9.089   4.766   6.541 -0.5323 -0.5220 -0.9292
 6240SOL     OW21351   9.972   4.403   1.158 -0.1831  0.4041  0.4769
 6240SOL    HW121352  10.064   4.429   1.152 -0.2095  0.4266  0.1346
 6240SOL    HW221353   9.925   4.473   1.113 -0.2188 -0.4498 -0.8804
 6241SOL     OW21354   8.178   4.792   8.787 -0.1620 -0.3241 -0.3672
 6241SOL    HW121355   8.148   4.817   8.699 -2.2388 -1.7428 -0.1375
 6241SOL    HW221356   8.196   4.875   8.830 -0.8173  0.4887 -1.5874
 6242SOL     OW21357   4.263   6.092   5.879  0.6078 -0.0349 -0.4011
 6242SOL    HW121358   4.185   6.142   5.900  0.9473  0.5516 -0.5206
 6242SOL    HW221359   4.260   6.017   5.938 -0.0622 -0.0434 -0.4332
 6243SOL     OW21360   9.730   5.401  10.091 -0.0158 -0.4045  0.4260
 6243SOL    HW121361   9.640   5.403  10.123 -0.7516  0.3744 -1.5210
 6243SOL    HW221362   9.728   5.341  10.016  0.6712  0.9179 -0.6945
 6244SOL     OW21363   8.364   4.341   8.348 -0.7962  0.1804 -0.3353
 6244SOL    HW121364   8.321   4.372   8.269 -0.3720 -1.8144 -1.4040
 6244SOL    HW221365   8.323   4.256   8.367  0.4701 -0.2926  0.4218
 6245SOL     OW21366   0.258   0.312   7.750 -0.5533 -0.2246 -0.0511
 6245SOL    HW121367   0.215   0.390   7.784  1.0143  0.2509  0.9062
 6245SOL    HW221368   0.238   0.243   7.814  0.0969 -0.0025  0.3965
 6246SOL     OW21369   8.578   5.266   2.357 -0.0644  0.4959 -0.5156
 6246SOL    HW121370   8.659   5.314   2.373 -0.8041  1.4938  0.4190
 6246SOL    HW221371   8.588   5.231   2.269  0.7558  1.8794 -1.0135
 6247SOL     OW21372   5.502   8.904   7.692 -0.1721  0.3330  0.4599
 6247SOL    HW121373   5.569   8.844   7.656 -0.5029 -0.5438  1.2602
 6247SOL    HW221374   5.533   8.923   7.780  0.2246  1.8341  0.0166
 6248SOL     OW21375   8.164   0.882   8.100  0.1852  0.1646  0.1181
 6248SOL    HW121376   8.222   0.868   8.025 -0.6134  0.7675 -0.6409
 6248SOL    HW221377   8.088   0.926   8.063  0.7497  2.6348  1.6592
 6249SOL     OW21378   9.828   0.628   2.751  0.0871  0.6851  0.5682
 6249SOL    HW121379   9.734   0.637   2.735 -0.4387 -1.8887  1.6885
 6249SOL    HW221380   9.862   0.587   2.671 -0.2783 -0.8251  1.1529
 6250SOL     OW21381   1.377   7.988   4.224  0.6798 -0.4794  0.6911
 6250SOL    HW121382   1.368   7.915   4.284  2.0637 -1.1642  0.1056
 6250SOL    HW221383   1.405   7.949   4.141 -0.7401  0.4895 -0.2932
 6251SOL     OW21384   3.741   3.253   5.049 -0.4973  0.5004 -0.3543
 6251SOL    HW121385   3.677   3.217   5.110 -0.5614  2.5372  0.8480
 6251SOL    HW221386   3.691   3.312   4.993  0.1368  1.2428 -0.1498
 6252SOL     OW21387   6.243   1.717   0.735 -0.5594 -0.0012  0.4672
 6252SOL    HW121388   6.244   1.775   0.811  0.9091 -0.8962  1.1688
 6252SOL    HW221389   6.234   1.776   0.660  0.8527  1.1534  1.1676
 6253SOL     OW21390   8.887   4.512  10.360  0.0198 -0.2120  0.4570
 6253SOL    HW121391   8.879   4.513  10.455  1.5469  2.7069  0.6669
 6253SOL    HW221392   8.939   4.434  10.341  0.1088 -0.5755  2.0405
 6254SOL     OW21393   9.856   7.809   2.565 -0.0868  0.0879 -0.1683
 6254SOL    HW121394   9.840   7.870   2.493 -1.9960  1.4239  1.2905
 6254SOL    HW221395   9.884   7.865   2.637  0.8021 -1.1074  0.4353
 6255SOL     OW21396   2.267   7.020   0.722  1.3154 -0.1901 -0.3115
 6255SOL    HW121397   2.344   7.074   0.739  1.4404 -0.2373 -0.7022
 6255SOL    HW221398   2.261   6.962   0.798  1.2233  0.3164  0.0718
 6256SOL     OW21399   8.078   4.829   7.038  0.0733 -0.0291 -0.2638
 6256SOL    HW121400   8.000   4.882   7.019 -0.3238 -0.5939 -0.2188
 6256SOL    HW221401   8.060   4.790   7.124  0.6647  0.3099  0.0244
 6257SOL     OW21402   8.754   2.175   2.070  0.3737 -0.2259  0.0234
 6257SOL    HW121403   8.846   2.153   2.083  0.2616  0.0927  1.5672
 6257SOL    HW221404   8.708   2.092   2.084  0.3136 -0.0360  1.0489
 6258SOL     OW21405   8.967   1.524   7.135  0.4810 -0.2581 -0.4861
 6258SOL    HW121406   9.028   1.454   7.160  4.7446  2.8919 -0.9371
 6258SOL    HW221407   8.957   1.576   7.215  0.2885  0.5100 -0.9987
 6259SOL     OW21408   9.899   4.277   5.578  0.1274 -0.0301  0.3436
 6259SOL    HW121409   9.829   4.342   5.573  0.0803  0.0430  1.6779
 6259SOL    HW221410   9.859   4.197   5.543 -0.2833  0.2701  0.1127
 6260SOL     OW21411   9.880   4.834   5.615  0.0924 -0.5939  0.4806
 6260SOL    HW121412   9.812   4.820   5.680  0.2204 -2.5057  0.2585
 6260SOL    HW221413   9.956   4.786   5.648  0.6724 -0.2164 -0.2724
 6261SOL     OW21414   8.165   5.810   7.242 -0.5617  0.0185 -0.0260
 6261SOL    HW121415   8.236   5.835   7.302 -0.6246 -0.7123  0.3529
 6261SOL    HW221416   8.148   5.890   7.192  0.0198  0.4160  0.3934
 6262SOL     OW21417   2.784   5.516   7.143  0.3021  0.0839 -0.3700
 6262SOL    HW121418   2.692   5.538   7.157  0.4563  0.6210 -0.2042
 6262SOL    HW221419   2.828   5.544   7.223  0.8653  1.2820 -1.0787
 6263SOL     OW21420   6.867   1.118   9.981 -0.3138  0.3095  0.5866
 6263SOL    HW121421   6.847   1.209   9.956  0.3131  1.4619  3.8034
 6263SOL    HW221422   6.958   1.121  10.010 -0.2016 -1.4412  0.4828
 6264SOL     OW21423   4.267   8.883   9.850  0.1154 -0.2580  0.0570
 6264SOL    HW121424   4.358   8.852   9.860 -0.2670 -1.1407  1.0288
 6264SOL    HW221425   4.218   8.832   9.914 -0.9808  0.6365 -0.0531
 6265SOL     OW21426   7.818   2.188   1.625  0.4624 -0.0654  0.1827
 6265SOL    HW121427   7.754   2.257   1.606  1.8878  0.9582 -1.1146
 6265SOL    HW221428   7.825   2.187   1.720  1.2132  2.3873  0.2044
 6266SOL     OW21429   2.434   4.842   9.431  0.1483 -0.0083  0.4173
 6266SOL    HW121430   2.400   4.814   9.516 -0.0941  1.1828  0.7279
 6266SOL    HW221431   2.403   4.932   9.421 -3.0167 -1.1939 -2.5675
 6267SOL     OW21432   3.935   7.569   9.445 -0.0779  0.3897 -0.1951
 6267SOL    HW121433   3.911   7.579   9.537  0.5548  1.1288 -0.0912
 6267SOL    HW221434   4.011   7.511   9.446 -1.6896 -1.8492 -0.5100
 6268SOL     OW21435   4.077   9.093   0.442 -0.8806 -0.3738  1.2242
 6268SOL    HW121436   4.080   8.997   0.437 -0.8127 -0.4152  1.9455
 6268SOL    HW221437   4.140   9.122   0.376 -0.9925 -0.8188  0.9110
 6269SOL     OW21438   2.590   8.825   1.266 -0.2394 -0.0333  0.5611
 6269SOL    HW121439   2.590   8.729   1.267  0.4260 -0.0602 -0.3986
 6269SOL    HW221440   2.682   8.849   1.280  0.5822  0.3106 -3.9814
 6270SOL     OW21441   9.835   2.284   6.707  0.1522 -0.0949 -0.1047
 6270SOL    HW121442   9.813   2.191   6.706  1.1146 -0.3530  1.0400
 6270SOL    HW221443   9.921   2.289   6.667 -0.0312  0.3517 -0.4537
 6271SOL     OW21444   3.112   3.840   0.229 -0.0465  0.1036 -0.4522
 6271SOL    HW121445   3.094   3.845   0.323 -1.0684 -0.9151 -0.5641
 6271SOL    HW221446   3.206   3.857   0.221 -0.2275  1.9214  0.5687
 6272SOL     OW21447   6.786   9.599   3.363  0.9504  0.0255 -0.7568
 6272SOL    HW121448   6.808   9.692   3.360 -0.0704  0.3124  0.0927
 6272SOL    HW221449   6.692   9.597   3.384  1.3671 -1.2172  1.2186
 6273SOL     OW21450   2.586   7.389   9.953 -0.3432  0.0048 -0.0986
 6273SOL    HW121451   2.559   7.349  10.036 -1.5558  3.6889  1.5080
 6273SOL    HW221452   2.681   7.392   9.958 -0.4361  1.8581  2.1758
 6274SOL     OW21453   5.284   0.013   5.902  0.3750 -0.4410  0.0528
 6274SOL    HW121454   5.305  -0.017   5.814  0.1549 -1.3956  0.3066
 6274SOL    HW221455   5.199  -0.027   5.921  1.4783 -2.2266  1.5738
 6275SOL     OW21456   2.546   4.271   3.399 -0.0605  0.2258 -0.3979
 6275SOL    HW121457   2.612   4.244   3.463 -1.5751  0.6272  1.4348
 6275SOL    HW221458   2.585   4.347   3.355  1.2453 -0.3990 -0.3614
 6276SOL     OW21459   8.771   7.044   7.685  0.0069 -0.1137  0.5781
 6276SOL    HW121460   8.741   6.990   7.758  1.4469  1.0773  2.1451
 6276SOL    HW221461   8.718   7.016   7.610 -2.1951 -0.7682  2.2659
 6277SOL     OW21462   8.904   7.949   4.613 -0.0509  0.0570 -0.7949
 6277SOL    HW121463   8.912   7.960   4.518 -2.0713  1.6305 -0.8620
 6277SOL    HW221464   8.909   8.038   4.647  1.3537 -0.5504  0.6828
 6278SOL     OW21465   2.564   4.805   3.583  0.0052  0.0686  0.6650
 6278SOL    HW121466   2.482   4.847   3.609  0.6953  0.7262  1.8856
 6278SOL    HW221467   2.615   4.875   3.543  0.9449  0.2967  2.1996
 6279SOL     OW21468   9.050   2.189   2.154  0.4695  0.1802  0.3933
 6279SOL    HW121469   8.995   2.241   2.213 -1.2096 -0.7394 -0.2734
 6279SOL    HW221470   9.093   2.253   2.098 -2.3308  0.9719 -1.0874
 6280SOL     OW21471   5.020   5.624   9.824 -0.0995  0.0827  0.7809
 6280SOL    HW121472   5.055   5.684   9.758 -2.3263 -0.4057 -0.9866
 6280SOL    HW221473   5.021   5.675   9.905  2.8967  0.6398  0.5129
 6281SOL     OW21474   0.675   5.921   2.372 -0.1375 -0.1918 -0.0767
 6281SOL    HW121475   0.764   5.938   2.341  0.2731  0.7550  1.4946
 6281SOL    HW221476   0.686   5.863   2.447 -0.4641  2.5113  2.2259
 6282SOL     OW21477   6.025   3.317   4.605  0.0993 -0.0111  0.3848
 6282SOL    HW121478   5.960   3.253   4.634  0.7357 -1.0953 -0.4676
 6282SOL    HW221479   5.974   3.393   4.578 -0.7328 -0.4407  0.7147
 6283SOL     OW21480   8.046   2.493   2.733 -0.4116 -0.0953  0.2679
 6283SOL    HW121481   7.953   2.493   2.709 -0.1622  0.5313 -0.7607
 6283SOL    HW221482   8.084   2.425   2.677  0.1126  1.1114 -0.8743
 6284SOL     OW21483   7.299   0.601   7.155 -0.2759 -0.6220  0.1479
 6284SOL    HW121484   7.236   0.629   7.089 -0.7827 -0.5221  0.6664
 6284SOL    HW221485   7.259   0.523   7.195 -0.5920  0.0680  1.2183
 6285SOL     OW21486   8.242   4.820   0.864 -0.1478  0.3265 -0.7247
 6285SOL    HW121487   8.315   4.780   0.817  0.6730  2.3342 -1.2512
 6285SOL    HW221488   8.284   4.873   0.932 -1.2716 -1.7410  1.7489
 6286SOL     OW21489   2.418   1.599   2.471 -0.0261  0.7367 -0.4608
 6286SOL    HW121490   2.475   1.645   2.409  0.1742  1.6771  0.3783
 6286SOL    HW221491   2.432   1.506   2.453  1.9780  0.9321 -0.1185
 6287SOL     OW21492  10.203   2.586   7.594  0.2550  0.2645  0.2497
 6287SOL    HW121493  10.140   2.552   7.530  1.8618 -2.0409 -0.2482
 6287SOL    HW221494  10.242   2.662   7.551 -1.8244  1.4957  0.4125
 6288SOL     OW21495   7.978   3.224   8.910 -0.2644  0.4522 -0.0124
 6288SOL    HW121496   7.985   3.319   8.896  0.4181  0.5949  1.1327
 6288SOL    HW221497   7.896   3.213   8.958  1.1341  0.8827  2.7014
 6289SOL     OW21498   6.232   7.031   1.116  0.2040  0.1658  0.5186
 6289SOL    HW121499   6.220   6.981   1.197  1.5564 -0.2785  0.4851
 6289SOL    HW221500   6.271   6.968   1.055  0.6009  0.8845  0.0127
 6290SOL     OW21501   6.912   0.172   9.281  0.0591  0.2450 -0.1102
 6290SOL    HW121502   6.841   0.188   9.343  2.0245  1.4463  1.9685
 6290SOL    HW221503   6.912   0.250   9.225  0.8203  1.1112  1.0467
 6291SOL     OW21504   3.106   8.929   4.003 -0.4225  0.0712  0.2308
 6291SOL    HW121505   3.111   8.834   4.012 -2.4745 -0.5601 -3.3704
 6291SOL    HW221506   3.194   8.955   3.977  0.3548 -0.6474  1.9390
 6292SOL     OW21507   0.638   9.804   4.128 -0.2309  0.0959  0.1229
 6292SOL    HW121508   0.591   9.739   4.178  1.5022 -2.4323 -1.3139
 6292SOL    HW221509   0.586   9.816   4.048  0.5857 -1.3882 -0.6757
 6293SOL     OW21510   7.797   6.280   3.565 -0.3494  0.1007 -0.8303
 6293SOL    HW121511   7.787   6.344   3.495 -1.9012  2.0432  1.0092
 6293SOL    HW221512   7.828   6.331   3.640 -1.1436 -1.3780  0.5790
 6294SOL     OW21513   0.073   3.542   6.079  0.2712  0.0687 -0.8719
 6294SOL    HW121514   0.087   3.623   6.128  0.2200  0.3220 -1.2790
 6294SOL    HW221515   0.154   3.529   6.030  0.6826 -0.6682 -0.0375
 6295SOL     OW21516   6.073   3.483   8.603  0.6249 -0.5567 -0.2172
 6295SOL    HW121517   5.988   3.471   8.561  0.3101 -2.6200  0.8709
 6295SOL    HW221518   6.124   3.407   8.576  2.0269  0.4615 -0.5537
 6296SOL     OW21519   4.209   5.849   6.734  0.4192  0.2455  0.1916
 6296SOL    HW121520   4.278   5.903   6.696  1.3041 -0.9491  0.0426
 6296SOL    HW221521   4.135   5.859   6.674  0.8685  0.5897 -0.3115
 6297SOL     OW21522   0.040   5.385   7.492 -0.5958 -0.3282 -0.0741
 6297SOL    HW121523   0.040   5.316   7.424  1.0080 -0.0850 -0.3380
 6297SOL    HW221524   0.099   5.352   7.559 -0.0371  0.6560 -0.0692
 6298SOL     OW21525   8.656   7.370   3.173  0.0797  0.6305  0.3191
 6298SOL    HW121526   8.687   7.373   3.263  0.2093  0.1307  0.2962
 6298SOL    HW221527   8.684   7.453   3.135  2.4799 -0.2741 -0.0394
 6299SOL     OW21528   5.697   8.483   2.938 -0.6822 -0.4853  0.5194
 6299SOL    HW121529   5.739   8.564   2.910  1.1665 -0.5994  2.6823
 6299SOL    HW221530   5.662   8.503   3.025 -0.3078 -1.9573  1.0367
 6300SOL     OW21531   4.577   1.886   3.954 -0.2722 -0.3540  0.1843
 6300SOL    HW121532   4.581   1.960   3.893 -0.4825  0.3017  0.9513
 6300SOL    HW221533   4.534   1.921   4.032  1.0782 -0.8320  1.1939
 6301SOL     OW21534   8.470   8.567   0.321 -0.0034  0.5553  0.6622
 6301SOL    HW121535   8.540   8.559   0.385 -0.2235  0.1321  0.8525
 6301SOL    HW221536   8.478   8.656   0.287  0.8234  0.4084  0.4522
 6302SOL     OW21537   4.381   6.085   5.091 -0.4771 -0.4846 -0.0434
 6302SOL    HW121538   4.459   6.069   5.037  0.4822  2.3472  0.3202
 6302SOL    HW221539   4.320   6.130   5.032 -0.7140 -0.2365  0.3834
 6303SOL     OW21540   3.439   2.735  10.143  0.6633 -0.4883 -0.2374
 6303SOL    HW121541   3.377   2.785  10.091  2.6057  1.2359 -1.0174
 6303SOL    HW221542   3.419   2.759  10.234  0.4433  0.3467 -0.5031
 6304SOL     OW21543   9.745   5.174   6.410 -0.0388  0.2258 -0.1788
 6304SOL    HW121544   9.807   5.220   6.467  1.0616  0.3155 -1.4150
 6304SOL    HW221545   9.665   5.227   6.415 -0.1534 -0.0470  1.6544
 6305SOL     OW21546   1.912   4.905   0.383  0.0363  0.0779  0.0050
 6305SOL    HW121547   1.914   4.895   0.478 -0.3944 -0.1039 -0.0008
 6305SOL    HW221548   1.994   4.948   0.361  0.7307 -1.0471  0.3245
 6306SOL     OW21549   4.245   9.398   1.849  0.0540 -0.3486  0.1609
 6306SOL    HW121550   4.258   9.492   1.836 -2.9119  0.0702 -0.5444
 6306SOL    HW221551   4.332   9.360   1.839  1.6128  2.4162  1.8602
 6307SOL     OW21552   0.429   3.115   7.690  0.2140  0.0670 -0.0913
 6307SOL    HW121553   0.513   3.161   7.698 -0.4578  1.5781 -1.1501
 6307SOL    HW221554   0.378   3.144   7.766  0.5231 -0.6199  0.3905
 6308SOL     OW21555   3.959   5.930   4.724  0.3619 -0.0274  0.3320
 6308SOL    HW121556   4.032   5.885   4.680  0.3315 -0.9680  1.2123
 6308SOL    HW221557   3.983   5.931   4.816 -0.1337  0.8613  0.4657
 6309SOL     OW21558   3.501   4.464   3.017  0.5842 -0.3171  0.3408
 6309SOL    HW121559   3.518   4.391   3.076  1.3557  0.0095  0.5377
 6309SOL    HW221560   3.485   4.424   2.932  1.4825 -0.7054  0.3400
 6310SOL     OW21561   3.728   5.330   1.479 -0.3046 -0.3194 -0.1065
 6310SOL    HW121562   3.790   5.402   1.483  0.6834 -1.1348 -0.1324
 6310SOL    HW221563   3.777   5.254   1.511 -1.4472 -0.8968  0.3479
 6311SOL     OW21564   8.789   5.196  10.294 -0.1746  0.5389  0.2574
 6311SOL    HW121565   8.706   5.150  10.304 -0.2037  0.4173 -0.4506
 6311SOL    HW221566   8.830   5.155  10.218 -0.3525  1.9074 -0.6076
 6312SOL     OW21567   0.558   9.712   4.470 -0.0718  0.1547 -0.3440
 6312SOL    HW121568   0.580   9.805   4.475 -1.6258  0.5846 -0.9964
 6312SOL    HW221569   0.527   9.690   4.558 -1.5005  0.7502 -0.6835
 6313SOL     OW21570   7.113   4.159   6.473 -0.1889  0.2536 -0.1672
 6313SOL    HW121571   7.070   4.099   6.412  0.3006  0.1533 -0.4193
 6313SOL    HW221572   7.117   4.110   6.555  0.8055 -0.3188 -0.5460
 6314SOL     OW21573   7.281   2.293   3.218 -0.7968  0.2627 -0.0337
 6314SOL    HW121574   7.304   2.381   3.246  0.9197  0.0608 -0.6880
 6314SOL    HW221575   7.200   2.304   3.169 -0.7078  1.4493  0.0550
 6315SOL     OW21576   4.395   0.309   9.641  0.4917  0.1409 -0.7981
 6315SOL    HW121577   4.382   0.215   9.635 -0.3756  0.2974 -1.5634
 6315SOL    HW221578   4.397   0.328   9.735 -1.7861 -0.3231 -0.5977
 6316SOL     OW21579   6.168   5.011   6.304  0.9059 -0.3001 -0.3913
 6316SOL    HW121580   6.204   5.021   6.216 -0.0154 -0.6837 -0.8316
 6316SOL    HW221581   6.149   4.917   6.311  0.3240 -0.1651 -0.0603
 6317SOL     OW21582   9.558   4.513   6.169 -0.3752  0.1096 -0.4866
 6317SOL    HW121583   9.517   4.452   6.109 -1.2538 -0.2346  0.4417
 6317SOL    HW221584   9.596   4.581   6.113 -0.5527 -0.5784 -1.4482
 6318SOL     OW21585   1.033   8.468   5.865 -0.2320  0.3853 -0.4585
 6318SOL    HW121586   1.048   8.526   5.939 -2.8033  2.4508 -1.4180
 6318SOL    HW221587   1.029   8.380   5.904 -0.6862  1.3119  1.7339
 6319SOL     OW21588   7.343   8.135   5.942 -0.6857  0.0712  0.2829
 6319SOL    HW121589   7.438   8.145   5.939 -0.6900 -0.1531 -0.9925
 6319SOL    HW221590   7.329   8.041   5.955 -0.7278 -0.0274 -0.4315
 6320SOL     OW21591   2.950   9.734   7.087  0.4873  0.1267 -0.4166
 6320SOL    HW121592   3.037   9.698   7.103 -0.2079 -0.9932  1.0503
 6320SOL    HW221593   2.959   9.828   7.105  0.9963 -0.2567  1.5003
 6321SOL     OW21594   0.642   9.161   2.872 -0.3198  0.5487  0.1164
 6321SOL    HW121595   0.585   9.099   2.825  0.9091 -0.7259  0.2313
 6321SOL    HW221596   0.671   9.112   2.949  0.2512  1.4869  0.5121
 6322SOL     OW21597   3.919   8.211   4.804  0.0094  0.3730  0.1218
 6322SOL    HW121598   3.922   8.172   4.891  0.0301 -0.3876 -0.2145
 6322SOL    HW221599   3.985   8.164   4.754  0.5565  1.3461 -0.0919
 6323SOL     OW21600   3.983   9.064   1.264 -0.1735  0.6849  0.6597
 6323SOL    HW121601   3.914   9.130   1.266 -2.3893 -1.4682 -0.4660
 6323SOL    HW221602   4.026   9.073   1.349  0.2524  4.1158  0.2155
 6324SOL     OW21603   5.769  10.255   9.478  0.0349  0.3344  0.3266
 6324SOL    HW121604   5.684  10.226   9.445  0.1229  0.0075  0.3860
 6324SOL    HW221605   5.833  10.204   9.429  0.1397 -1.2492  1.9718
 6325SOL     OW21606   1.687   5.344   3.283 -0.0031 -0.5315  0.1676
 6325SOL    HW121607   1.726   5.281   3.344  1.2169 -1.7016 -1.7429
 6325SOL    HW221608   1.753   5.411   3.272 -0.7336  0.3725  1.0673
 6326SOL     OW21609   2.006   4.399   5.383 -0.0404  0.4730  0.0730
 6326SOL    HW121610   1.999   4.304   5.388  1.5026  0.2755 -1.0272
 6326SOL    HW221611   2.003   4.418   5.289 -2.1808  1.7064  0.3177
 6327SOL     OW21612   0.083   5.679   4.409  0.3840 -0.5561 -0.4884
 6327SOL    HW121613   0.063   5.746   4.343  1.4770  0.7945  0.5089
 6327SOL    HW221614   0.142   5.722   4.470 -1.4857 -1.3795  2.0730
 6328SOL     OW21615   6.888   4.537   7.921  0.1535  0.3929 -0.9610
 6328SOL    HW121616   6.830   4.520   7.995  1.2337 -0.6212 -0.3047
 6328SOL    HW221617   6.895   4.453   7.876  2.0668  0.1303 -0.2798
 6329SOL     OW21618  10.192   0.093   5.043  0.4038  0.1063  0.5152
 6329SOL    HW121619  10.232   0.127   5.122  0.7662  0.3157  0.2427
 6329SOL    HW221620  10.256   0.032   5.007  0.0486 -0.3437  0.6280
 6330SOL     OW21621   4.380   2.714   6.871  0.6756  0.1539 -0.4396
 6330SOL    HW121622   4.323   2.712   6.794  0.0077 -0.7097  0.0601
 6330SOL    HW221623   4.422   2.800   6.867  0.7647  0.0699 -1.8375
 6331SOL     OW21624   2.034   5.713   6.449  0.5086  0.0630 -0.0695
 6331SOL    HW121625   2.041   5.624   6.483 -0.8837 -0.0426 -0.0251
 6331SOL    HW221626   1.948   5.716   6.407  1.0988  0.9786 -1.2705
 6332SOL     OW21627   8.237   2.183   3.081  0.3875 -0.0084  0.1819
 6332SOL    HW121628   8.305   2.121   3.105 -0.5905 -1.2060 -0.0428
 6332SOL    HW221629   8.193   2.203   3.164 -1.4863 -2.3337 -0.1372
 6333SOL     OW21630   0.566   1.424   7.771 -0.0985 -0.2584 -0.3137
 6333SOL    HW121631   0.545   1.463   7.856  1.4683 -1.7501  0.8347
 6333SOL    HW221632   0.482   1.418   7.726 -0.8552  1.2403  0.8191
 6334SOL     OW21633   9.009   8.452   1.476 -0.8478  0.4264  0.8586
 6334SOL    HW121634   8.973   8.508   1.407 -2.0342  0.6738  1.6357
 6334SOL    HW221635   9.092   8.494   1.500 -0.5113  0.4409 -0.2686
 6335SOL     OW21636   3.302   6.747   7.598  0.0576  0.3294  0.2698
 6335SOL    HW121637   3.379   6.763   7.652  0.7852  0.5543 -0.8012
 6335SOL    HW221638   3.337   6.723   7.512 -1.0631  0.0489 -0.1284
 6336SOL     OW21639   3.850   0.275   6.422 -0.2123 -0.0654 -0.4267
 6336SOL    HW121640   3.934   0.320   6.434 -0.3442  0.7873 -2.2382
 6336SOL    HW221641   3.837   0.275   6.327 -2.1675 -0.3649 -0.2002
 6337SOL     OW21642   5.114   4.305   0.193  0.3347 -0.2312 -0.4832
 6337SOL    HW121643   5.204   4.271   0.187  0.5234  0.4672 -2.2140
 6337SOL    HW221644   5.092   4.296   0.286  2.4286  0.1561  0.1239
 6338SOL     OW21645   7.476   4.084   3.523  0.4790 -0.4388 -0.7363
 6338SOL    HW121646   7.490   4.178   3.511 -1.3219  0.0434  0.5472
 6338SOL    HW221647   7.481   4.071   3.618 -0.8550 -1.3591 -0.7744
 6339SOL     OW21648   3.787   4.507   7.789  0.2130  0.4704 -0.3366
 6339SOL    HW121649   3.714   4.468   7.838 -0.5478 -0.0638 -1.8327
 6339SOL    HW221650   3.863   4.493   7.845 -0.3505 -1.5561  0.0166
 6340SOL     OW21651   2.768   3.371   9.956 -0.5988 -1.0157 -0.3076
 6340SOL    HW121652   2.816   3.291   9.933 -3.0172 -3.0249  1.0726
 6340SOL    HW221653   2.700   3.378   9.890 -0.7547 -0.3842 -0.0879
 6341SOL     OW21654   7.967   7.175   3.975 -0.0771  0.7194  0.0634
 6341SOL    HW121655   7.953   7.241   3.907  0.1175  0.1510 -0.5315
 6341SOL    HW221656   8.063   7.171   3.984 -0.1105  1.6147  1.1975
 6342SOL     OW21657   7.064   0.509   9.548  1.0250 -0.6469 -0.1495
 6342SOL    HW121658   7.100   0.473   9.467  0.2630 -1.3737 -0.1782
 6342SOL    HW221659   7.107   0.593   9.558  1.6887 -0.8839 -0.9131
 6343SOL     OW21660   9.587   6.021   2.301  0.4918 -0.1000  0.0250
 6343SOL    HW121661   9.525   6.083   2.340 -1.4625 -2.3159  0.7079
 6343SOL    HW221662   9.566   6.021   2.208  0.9732  0.7402 -0.0888
 6344SOL     OW21663   9.392   8.615  10.121  0.3020  0.1893  0.5558
 6344SOL    HW121664   9.298   8.631  10.108  0.3666  0.6568  0.6366
 6344SOL    HW221665   9.433   8.650  10.042  0.3580 -0.6302  0.2106
 6345SOL     OW21666   1.025   5.071  10.338 -0.0135 -0.3355 -0.8448
 6345SOL    HW121667   1.097   5.123  10.302  1.8476 -1.5987  0.7928
 6345SOL    HW221668   0.974   5.132  10.390  0.6921  0.3339 -0.9156
 6346SOL     OW21669   9.517   0.212   5.990 -0.1400 -0.9013  0.2360
 6346SOL    HW121670   9.491   0.155   6.063  2.1424 -1.0917  0.9814
 6346SOL    HW221671   9.601   0.176   5.960 -0.0391  0.3933 -1.1567
 6347SOL     OW21672   5.276   4.899  10.271 -0.0624  0.0553 -0.3384
 6347SOL    HW121673   5.265   4.862  10.183  0.2843  0.1247 -0.4124
 6347SOL    HW221674   5.268   4.823  10.329 -0.0217 -0.0323 -0.4451
 6348SOL     OW21675   6.100   8.776   8.418 -0.1813  0.0937  0.3776
 6348SOL    HW121676   6.148   8.708   8.464  2.0770  0.4260 -1.3207
 6348SOL    HW221677   6.089   8.743   8.329 -1.3100  0.9193  0.1786
 6349SOL     OW21678   0.322   9.852   6.357 -0.2819 -0.1309 -0.1160
 6349SOL    HW121679   0.399   9.903   6.382  0.6485 -1.7786  0.5616
 6349SOL    HW221680   0.271   9.844   6.438 -0.7217  0.2111 -0.3548
 6350SOL     OW21681   7.791   6.659   3.007 -0.0517 -0.2389 -0.9106
 6350SOL    HW121682   7.711   6.613   2.981  0.4511 -1.1204 -0.9283
 6350SOL    HW221683   7.787   6.663   3.103 -0.1383 -0.2476 -0.9143
 6351SOL     OW21684   0.808   4.897   0.943  0.1608  0.0324 -0.2749
 6351SOL    HW121685   0.755   4.949   0.882 -3.4909 -1.5193  1.2454
 6351SOL    HW221686   0.853   4.961   0.997 -1.0215  1.5447 -1.0067
 6352SOL     OW21687   6.532   0.094   1.339 -0.0206  0.6745  0.1774
 6352SOL    HW121688   6.599   0.031   1.312  0.7385  1.0282  1.1833
 6352SOL    HW221689   6.450   0.056   1.308  0.6497  0.4104 -1.4172
 6353SOL     OW21690   9.900   3.015   4.906  0.1722  0.8407  0.3440
 6353SOL    HW121691   9.836   2.946   4.922 -0.3312  0.5811 -2.3372
 6353SOL    HW221692   9.969   2.999   4.970  0.3256 -2.5391 -0.4984
 6354SOL     OW21693   5.803   7.147   3.078  0.3057  0.6447  0.7708
 6354SOL    HW121694   5.748   7.093   3.020 -0.2436  0.1093  1.7587
 6354SOL    HW221695   5.834   7.086   3.145  2.0097  0.9686  0.3313
 6355SOL     OW21696   2.887   8.780   2.019 -0.7663  0.7674  0.2793
 6355SOL    HW121697   2.814   8.736   1.975 -1.0655 -0.2262  1.6869
 6355SOL    HW221698   2.878   8.872   1.995 -1.9903  0.5301 -0.2491
 6356SOL     OW21699   0.786   6.346   2.374  0.4932  0.4128 -0.3287
 6356SOL    HW121700   0.712   6.326   2.433  0.6001  0.7915 -0.0651
 6356SOL    HW221701   0.754   6.322   2.287 -0.7632  2.6412 -0.5437
 6357SOL     OW21702   0.837   9.710   9.930 -0.6749 -0.5854 -0.8443
 6357SOL    HW121703   0.900   9.659   9.982 -0.7351  1.1109  0.9966
 6357SOL    HW221704   0.889   9.751   9.862 -0.3053 -1.4720 -1.1151
 6358SOL     OW21705   4.706   2.608   3.742  0.1529  0.6329 -0.5431
 6358SOL    HW121706   4.621   2.588   3.703  0.5008  0.8369 -1.4318
 6358SOL    HW221707   4.701   2.571   3.830 -0.4274 -0.4164 -0.9957
 6359SOL     OW21708   1.065   5.328   7.207 -0.3978  0.0937 -0.9392
 6359SOL    HW121709   1.043   5.352   7.297 -0.7437 -0.5936 -0.8338
 6359SOL    HW221710   0.981   5.306   7.167 -0.3268  1.0453 -1.6400
 6360SOL     OW21711   6.625   3.203   6.483 -0.1973  0.2817 -0.1323
 6360SOL    HW121712   6.569   3.249   6.546 -2.2872 -0.8405 -1.0529
 6360SOL    HW221713   6.714   3.221   6.512 -1.0314  1.7329  1.7396
 6361SOL     OW21714   5.314   7.402   3.000 -0.6157 -0.4387 -0.0985
 6361SOL    HW121715   5.402   7.364   3.006 -0.2532  0.3307 -0.4504
 6361SOL    HW221716   5.255   7.328   3.012  0.0704 -1.2732 -1.6760
 6362SOL     OW21717   5.729   9.521   4.219  0.2977 -0.3465 -0.4833
 6362SOL    HW121718   5.661   9.584   4.194 -0.0637 -1.4556 -2.5779
 6362SOL    HW221719   5.811   9.564   4.197  0.1017 -0.2237 -0.9944
 6363SOL     OW21720   9.089   8.701   1.627  0.9263  0.0054  0.2211
 6363SOL    HW121721   9.064   8.616   1.664  0.4380 -0.0270 -0.1793
 6363SOL    HW221722   9.128   8.679   1.542  1.0160  0.1620  0.2235
 6364SOL     OW21723   8.226  10.128   4.242  0.7530  0.3667 -0.6079
 6364SOL    HW121724   8.284  10.157   4.172  0.3322 -0.5753 -1.3620
 6364SOL    HW221725   8.248  10.036   4.255  0.1965  0.2953 -0.1354
 6365SOL     OW21726   9.451   1.816   1.830 -0.5684  0.1230 -0.1684
 6365SOL    HW121727   9.488   1.858   1.907 -0.3914 -0.0726 -0.1455
 6365SOL    HW221728   9.360   1.797   1.853 -0.2970 -0.6675  0.2872
 6366SOL     OW21729   2.830   2.840   2.796  0.1571 -0.1762  0.1860
 6366SOL    HW121730   2.736   2.821   2.786  0.0481  0.1402  0.5866
 6366SOL    HW221731   2.833   2.931   2.824  0.6108 -0.0582 -0.2302
 6367SOL     OW21732   8.041   6.512   4.306 -0.8872 -0.3316 -0.2168
 6367SOL    HW121733   8.125   6.542   4.339  1.6449 -2.5802 -3.8316
 6367SOL    HW221734   8.016   6.578   4.242 -2.1592  0.5101  1.0945
 6368SOL     OW21735   6.934   7.444   0.683 -0.1254  0.3236 -0.1513
 6368SOL    HW121736   6.852   7.410   0.647  0.8661 -1.7996 -0.5355
 6368SOL    HW221737   6.934   7.413   0.774 -1.1620  3.0276  0.8780
 6369SOL     OW21738  10.249   5.265   4.921 -0.0012  0.2771  0.2749
 6369SOL    HW121739  10.194   5.215   4.982 -1.0296  0.4795 -0.4708
 6369SOL    HW221740  10.338   5.253   4.955 -0.4370 -0.4657  1.2194
 6370SOL     OW21741   9.213   2.446   1.681 -0.3802 -0.0179  0.0998
 6370SOL    HW121742   9.133   2.437   1.630  0.1044 -0.0455 -0.6745
 6370SOL    HW221743   9.277   2.481   1.619  0.1201  0.3183  0.7917
 6371SOL     OW21744   6.697   5.721   7.904 -0.0647  0.3659 -0.2507
 6371SOL    HW121745   6.728   5.789   7.844  0.5470  0.0348 -0.3142
 6371SOL    HW221746   6.765   5.654   7.902 -1.0490 -0.6696 -0.8550
 6372SOL     OW21747   8.268  10.049   5.917  0.2583 -0.3166  0.6888
 6372SOL    HW121748   8.308  10.080   5.998  0.5817 -0.7816  0.7065
 6372SOL    HW221749   8.277  10.124   5.857  1.0832 -0.3824  0.7189
 6373SOL     OW21750   0.948   0.763   7.587  0.2268 -0.2158  0.4669
 6373SOL    HW121751   1.012   0.785   7.519 -0.6122  2.0210  0.3260
 6373SOL    HW221752   0.863   0.780   7.546 -0.3677 -0.6254  1.4899
 6374SOL     OW21753   3.620   1.387  10.097 -0.8258 -0.2138 -0.3534
 6374SOL    HW121754   3.697   1.411  10.046 -0.1445 -0.3278  0.5933
 6374SOL    HW221755   3.621   1.447  10.171 -3.9527  2.5999 -2.3353
 6375SOL     OW21756   2.428   6.908   7.779  0.1100 -0.0364 -0.4264
 6375SOL    HW121757   2.386   6.993   7.766  1.1370  0.5907  0.2372
 6375SOL    HW221758   2.482   6.895   7.701  0.1957  0.0724 -0.3859
 6376SOL     OW21759   6.420   1.738   0.420  0.1493 -0.0891 -0.0748
 6376SOL    HW121760   6.354   1.782   0.474 -1.4555  0.0747 -2.0475
 6376SOL    HW221761   6.428   1.793   0.342  2.2791 -0.3987 -0.1425
 6377SOL     OW21762   4.040   7.821   7.950  0.0049  0.3696 -0.4499
 6377SOL    HW121763   4.054   7.915   7.960  1.9749  0.1410 -0.5632
 6377SOL    HW221764   4.017   7.791   8.038  1.0040  0.7500 -0.0347
 6378SOL     OW21765   8.494   1.796   0.351 -0.0578  0.2344 -0.1822
 6378SOL    HW121766   8.578   1.827   0.386 -0.0518  1.2534 -1.0502
 6378SOL    HW221767   8.432   1.809   0.424  0.8212 -2.1858  1.0873
 6379SOL     OW21768   9.219   4.714   5.017 -0.1435 -0.1029 -0.2777
 6379SOL    HW121769   9.128   4.709   5.046 -0.1870 -0.1990 -0.4293
 6379SOL    HW221770   9.262   4.770   5.082 -0.5447  0.8052 -0.7844
 6380SOL     OW21771   4.831   7.688   1.039 -0.0673  0.0544 -0.6706
 6380SOL    HW121772   4.834   7.658   0.948 -0.0144 -0.6497 -0.4411
 6380SOL    HW221773   4.741   7.715   1.053 -0.5688 -1.6435 -0.3734
 6381SOL     OW21774   5.600   6.788   7.908  0.2182 -0.5476  0.2010
 6381SOL    HW121775   5.686   6.760   7.877  0.8362 -0.4651  1.7553
 6381SOL    HW221776   5.577   6.725   7.976 -0.7970 -0.3541  0.0501
 6382SOL     OW21777   0.505   8.132   0.617 -0.2004 -0.2245  0.6114
 6382SOL    HW121778   0.563   8.204   0.593 -1.0730  0.3197  0.0469
 6382SOL    HW221779   0.559   8.073   0.669  0.6823  0.5617  0.6091
 6383SOL     OW21780   9.047   3.237   7.266  0.6495 -0.2344 -0.2296
 6383SOL    HW121781   9.012   3.286   7.192  1.5758  2.7185  1.1390
 6383SOL    HW221782   9.138   3.220   7.243  0.2220 -1.8435 -0.8871
 6384SOL     OW21783   3.638   3.017   4.335  0.2186 -0.3023  0.3120
 6384SOL    HW121784   3.634   3.018   4.240 -0.8252 -0.6491  0.3354
 6384SOL    HW221785   3.662   2.927   4.357  1.0161 -0.0823  0.3713
 6385SOL     OW21786   8.367   5.469   9.797 -0.3728 -0.0950  0.4682
 6385SOL    HW121787   8.368   5.540   9.860 -0.1540 -0.4099  0.8203
 6385SOL    HW221788   8.362   5.389   9.850 -0.1724 -0.3612  0.0916
 6386SOL     OW21789   3.844   1.600   8.907  0.6145 -0.7701 -0.1862
 6386SOL    HW121790   3.937   1.586   8.889  0.7774  1.7025 -1.7896
 6386SOL    HW221791   3.842   1.677   8.965 -0.4277  0.4523 -1.7562
 6387SOL     OW21792   3.347   4.064   8.472 -0.2329 -0.2044 -0.2286
 6387SOL    HW121793   3.434   4.064   8.513  0.0430  1.8495 -0.7377
 6387SOL    HW221794   3.361   4.021   8.388 -0.3304 -2.3195  0.7453
 6388SOL     OW21795   8.945   0.786   1.736  0.1388 -0.4213  0.0087
 6388SOL    HW121796   8.964   0.847   1.808 -1.1123  0.6550 -0.5189
 6388SOL    HW221797   8.914   0.707   1.780 -1.4675  0.5242  0.7004
 6389SOL     OW21798   1.421   9.720   3.781 -0.1683 -0.2059 -0.0208
 6389SOL    HW121799   1.355   9.663   3.820  0.2035 -0.2457  0.5536
 6389SOL    HW221800   1.435   9.790   3.845  0.0577  0.0172 -0.3082
 6390SOL     OW21801   9.108   1.845   3.984 -0.1984  0.3238  0.1702
 6390SOL    HW121802   9.173   1.899   3.940  0.6496 -0.3569  0.5470
 6390SOL    HW221803   9.061   1.905   4.041  0.8925  0.6345  0.7717
 6391SOL     OW21804   7.348   5.161   1.439  0.2810  1.0838 -0.1565
 6391SOL    HW121805   7.288   5.091   1.412  1.8754 -0.5059  0.1821
 6391SOL    HW221806   7.324   5.178   1.530  0.8916 -0.2224  0.2814
 6392SOL     OW21807   7.034   7.648   5.901  0.2329  0.2509  0.7039
 6392SOL    HW121808   6.974   7.631   5.828 -0.0055  3.1693  0.1225
 6392SOL    HW221809   6.991   7.608   5.977 -1.0449 -0.1746 -0.2092
 6393SOL     OW21810   2.419   6.798   7.412 -0.1850 -0.1063  0.1730
 6393SOL    HW121811   2.367   6.745   7.351 -0.4973  0.4791 -0.0847
 6393SOL    HW221812   2.393   6.768   7.499 -0.3970 -0.3439  0.0280
 6394SOL     OW21813   0.804   9.645   2.228 -0.2641 -0.1940 -0.0466
 6394SOL    HW121814   0.717   9.632   2.192  0.3446 -0.2076 -1.6110
 6394SOL    HW221815   0.863   9.623   2.156  1.0407 -0.5313  1.0883
 6395SOL     OW21816   1.697   5.967   3.509  0.0665  0.6213 -0.0382
 6395SOL    HW121817   1.742   5.904   3.565  2.0306  0.8293 -1.3024
 6395SOL    HW221818   1.604   5.942   3.514  0.5329 -1.0007  1.1708
 6396SOL     OW21819   5.337   2.014   4.195  0.3175 -1.0425 -0.0489
 6396SOL    HW121820   5.357   2.020   4.289 -0.2344 -1.1571  0.0773
 6396SOL    HW221821   5.300   2.099   4.173  1.2054 -0.7180 -0.3545
 6397SOL     OW21822   8.104   5.650   4.159  0.2591 -0.1215 -0.2499
 6397SOL    HW121823   8.173   5.658   4.093  0.9028 -0.5874  0.3459
 6397SOL    HW221824   8.127   5.713   4.227  0.6739 -0.9709  0.4270
 6398SOL     OW21825  10.157   7.488   2.756 -0.6530 -0.4231  0.0224
 6398SOL    HW121826  10.167   7.583   2.742  2.1723 -0.8562 -1.6556
 6398SOL    HW221827  10.236   7.463   2.804 -0.5148 -2.1624 -1.0383
 6399SOL     OW21828   3.819   0.568   9.896  0.5230  0.0582  0.5343
 6399SOL    HW121829   3.748   0.541   9.838  1.3004 -0.6400 -0.1247
 6399SOL    HW221830   3.837   0.490   9.950 -0.8685  0.9957  2.4815
 6400SOL     OW21831   1.410   0.513   8.589  0.6939  0.1003  0.2625
 6400SOL    HW121832   1.481   0.472   8.638  0.7668  0.9245  0.8603
 6400SOL    HW221833   1.432   0.496   8.497  2.2989  1.3131  0.3729
 6401SOL     OW21834   4.123   7.626   2.503 -0.0459  0.5553 -0.0575
 6401SOL    HW121835   4.078   7.573   2.569 -2.0717  1.5952 -0.5212
 6401SOL    HW221836   4.213   7.631   2.534 -0.2012 -1.6539  0.9158
 6402SOL     OW21837   8.101   8.206   5.384  0.0407 -0.4072  0.0195
 6402SOL    HW121838   8.118   8.280   5.326  1.3979 -0.4380  0.3569
 6402SOL    HW221839   8.186   8.163   5.396 -0.5433 -1.4635  0.5938
 6403SOL     OW21840   2.752   4.810   1.398 -0.4379 -0.5979  0.1719
 6403SOL    HW121841   2.714   4.887   1.355  0.9393  0.2439  0.4092
 6403SOL    HW221842   2.676   4.755   1.418 -1.3053 -0.1798 -1.6629
 6404SOL     OW21843   2.323   8.228   2.447  0.2473  0.6633 -0.3730
 6404SOL    HW121844   2.401   8.281   2.465  0.3339  0.4751 -0.1919
 6404SOL    HW221845   2.251   8.290   2.443  0.0789  0.6361  1.4264
 6405SOL     OW21846   7.346   4.301   3.712 -0.2723  0.0637  0.5571
 6405SOL    HW121847   7.289   4.377   3.723 -2.6638 -1.3054 -1.2387
 6405SOL    HW221848   7.341   4.255   3.796 -0.2768  0.9567  1.0512
 6406SOL     OW21849   0.648   4.815   8.594 -0.1929  0.1533 -0.3145
 6406SOL    HW121850   0.671   4.783   8.507 -1.0446  0.3644 -0.6228
 6406SOL    HW221851   0.584   4.885   8.578 -0.1845  0.3457  0.4653
 6407SOL     OW21852   5.513   7.220   4.834  0.3254  0.2661  0.3606
 6407SOL    HW121853   5.494   7.236   4.742 -0.4727 -1.2110  0.2536
 6407SOL    HW221854   5.608   7.208   4.837  0.6656  2.4479  0.0964
 6408SOL     OW21855   3.742   4.293   5.131  0.1426 -0.2445  0.3696
 6408SOL    HW121856   3.784   4.379   5.124 -1.0943  0.5681  2.1407
 6408SOL    HW221857   3.804   4.233   5.090  0.4225  1.6228 -2.2380
 6409SOL     OW21858   5.596   0.970   9.972 -0.3367  0.0501 -0.0266
 6409SOL    HW121859   5.674   0.934  10.015 -0.9225  0.4706  1.4663
 6409SOL    HW221860   5.583   0.913   9.896  0.9135 -0.5645  0.1742
 6410SOL     OW21861   8.304   4.074   7.259  0.1131 -0.3635 -0.0745
 6410SOL    HW121862   8.326   4.012   7.190 -1.2152 -0.3230 -0.5700
 6410SOL    HW221863   8.225   4.038   7.300  1.1098 -0.6208  1.7407
 6411SOL     OW21864   1.775   1.484   1.736  0.2597 -0.0102  0.2490
 6411SOL    HW121865   1.791   1.416   1.802  0.3993  0.8681  1.1489
 6411SOL    HW221866   1.820   1.561   1.770  0.3118  0.4782 -0.8764
 6412SOL     OW21867   2.840   1.831   4.659 -0.2404  0.2777  0.4643
 6412SOL    HW121868   2.818   1.921   4.682 -0.1599  0.7456 -1.2085
 6412SOL    HW221869   2.769   1.802   4.603  1.5155  0.6159 -2.1053
 6413SOL     OW21870   3.754   8.039   0.878 -0.6869  0.2781  0.1368
 6413SOL    HW121871   3.779   8.127   0.904 -2.7597  0.8275  0.3935
 6413SOL    HW221872   3.692   8.010   0.945 -0.6023 -1.0875 -0.3434
 6414SOL     OW21873   8.056   0.060   0.077 -0.4809 -0.2717  0.2200
 6414SOL    HW121874   8.149   0.064   0.054 -0.7055 -0.3349 -0.7441
 6414SOL    HW221875   8.055   0.053   0.173  0.5020 -0.2667  0.2399
 6415SOL     OW21876   5.551   5.258   6.705 -0.0241 -0.0021  0.8432
 6415SOL    HW121877   5.645   5.255   6.722  0.3837  0.5687 -1.1214
 6415SOL    HW221878   5.538   5.339   6.655 -1.3092 -0.8779 -0.3167
 6416SOL     OW21879   5.867   2.852   9.368 -0.4357  0.1223 -0.2485
 6416SOL    HW121880   5.879   2.838   9.274 -0.8033  3.1674 -0.8679
 6416SOL    HW221881   5.786   2.904   9.374 -0.2586  0.2392  1.7356
 6417SOL     OW21882   5.007   1.557   1.738  0.7174 -0.5064  0.5510
 6417SOL    HW121883   5.087   1.507   1.720  1.3042  0.4305  0.4590
 6417SOL    HW221884   5.013   1.633   1.680  0.6466  0.4842  1.7871
 6418SOL     OW21885   8.910   5.558   1.091  0.2114  0.4172  0.0036
 6418SOL    HW121886   8.951   5.635   1.129  1.1725 -0.6994  1.3169
 6418SOL    HW221887   8.911   5.493   1.161 -0.9019 -0.6809 -0.9564
 6419SOL     OW21888   7.999   4.012   7.820 -0.1640 -0.1012  0.7964
 6419SOL    HW121889   7.925   4.059   7.782 -0.4635 -0.2619  1.1755
 6419SOL    HW221890   8.074   4.037   7.765 -0.2078  1.2410  1.3021
 6420SOL     OW21891   4.779   0.791   4.668  0.0788  0.5046 -0.1289
 6420SOL    HW121892   4.812   0.778   4.579  2.8343  1.2615  0.6652
 6420SOL    HW221893   4.731   0.873   4.664 -0.2569  0.2789 -1.0011
 6421SOL     OW21894   7.436   0.081   5.309 -0.2685  0.2914 -0.3660
 6421SOL    HW121895   7.357   0.121   5.344  0.8106  1.5849  0.6886
 6421SOL    HW221896   7.428   0.091   5.214 -1.5881 -0.0697 -0.3124
 6422SOL     OW21897   6.893   0.313   6.552 -0.1562 -0.5306 -0.0568
 6422SOL    HW121898   6.878   0.403   6.582  0.6048 -0.1200 -0.8642
 6422SOL    HW221899   6.810   0.268   6.570 -0.7830  0.5028 -0.2527
 6423SOL     OW21900   5.403   7.757   2.123  0.0501  0.3680  0.1051
 6423SOL    HW121901   5.382   7.820   2.055 -0.6232 -0.8299 -0.8384
 6423SOL    HW221902   5.385   7.672   2.084 -0.4538 -0.3629  1.8081
 6424SOL     OW21903   3.986   6.317  10.158  0.0976  0.0853 -0.2614
 6424SOL    HW121904   3.975   6.233  10.201 -0.5914  0.2384 -0.1315
 6424SOL    HW221905   4.007   6.378  10.229 -1.0508  0.3402 -0.1155
 6425SOL     OW21906   5.294   4.262   5.964  0.0389 -0.1697  0.0263
 6425SOL    HW121907   5.221   4.316   5.935 -0.4627 -0.5040  0.6385
 6425SOL    HW221908   5.326   4.306   6.042  0.8657  0.2853 -0.5565
 6426SOL     OW21909   5.643   2.052   0.180  0.0877  0.2055 -0.4047
 6426SOL    HW121910   5.619   2.136   0.141 -1.0911  0.6603  1.1737
 6426SOL    HW221911   5.564   2.025   0.228  0.6270 -1.5520 -0.4661
 6427SOL     OW21912   5.662   2.170   1.016  0.3841  0.4919  0.2528
 6427SOL    HW121913   5.728   2.102   1.001 -0.4719 -0.0721 -1.1395
 6427SOL    HW221914   5.709   2.238   1.063  1.4948 -0.6837  0.9247
 6428SOL     OW21915   9.435   6.480   0.464 -0.1587 -0.0761  0.5943
 6428SOL    HW121916   9.362   6.474   0.526 -0.1997  1.7474  0.7755
 6428SOL    HW221917   9.414   6.556   0.409  2.0890  1.1858  1.3475
 6429SOL     OW21918   7.498   4.120   7.941  0.0003  0.2859 -0.4653
 6429SOL    HW121919   7.495   4.115   7.845 -3.0318 -1.1347 -0.3975
 6429SOL    HW221920   7.570   4.062   7.965  2.0455  2.0837 -1.8709
 6430SOL     OW21921   2.530   5.013   1.005 -0.4311 -0.4198  0.2901
 6430SOL    HW121922   2.593   5.027   1.076 -1.7557  0.1185  1.4315
 6430SOL    HW221923   2.473   4.943   1.038 -0.3119 -1.0417 -0.7996
 6431SOL     OW21924   7.111   5.612   5.422 -0.3150 -0.7145 -0.0755
 6431SOL    HW121925   7.159   5.543   5.378  0.9006  1.1219 -1.7997
 6431SOL    HW221926   7.024   5.611   5.381 -0.8290 -2.1193  0.9652
 6432SOL     OW21927   0.415   6.693   4.783 -0.2869  0.0149 -0.2629
 6432SOL    HW121928   0.496   6.739   4.807 -0.5571  0.2795  0.1480
 6432SOL    HW221929   0.404   6.627   4.851 -0.4634  0.0397 -0.2678
 6433SOL     OW21930   9.223   7.163   9.457  0.4089 -0.0215 -0.3975
 6433SOL    HW121931   9.276   7.207   9.391 -0.8518 -0.0476 -1.4642
 6433SOL    HW221932   9.150   7.222   9.473 -0.4007 -0.9496 -0.5821
 6434SOL     OW21933   0.065   2.853   8.355  0.0533 -0.1468 -0.3075
 6434SOL    HW121934   0.092   2.829   8.267  1.2509 -0.7590  0.1863
 6434SOL    HW221935  -0.016   2.806   8.370 -0.3957  0.3103 -1.2232
 6435SOL     OW21936   2.909   8.937   0.984 -0.1851  0.2959 -0.3634
 6435SOL    HW121937   2.841   8.872   0.999 -1.5759  1.7153 -0.3014
 6435SOL    HW221938   2.991   8.888   0.989 -1.2256 -1.7387 -1.8579
 6436SOL     OW21939   3.077   4.177   9.852  0.3613  0.2237 -0.4089
 6436SOL    HW121940   3.112   4.125   9.925  0.7052 -1.9828 -2.0591
 6436SOL    HW221941   2.983   4.184   9.872  0.7216  1.1764  1.1041
 6437SOL     OW21942   9.291   6.507   0.079 -0.0899 -0.1928  0.6372
 6437SOL    HW121943   9.386   6.521   0.071 -0.0936 -1.0292 -1.4368
 6437SOL    HW221944   9.265   6.470  -0.005 -2.4361  0.8868  0.8047
 6438SOL     OW21945   6.945   8.554   2.590 -0.5972  0.3852  0.2283
 6438SOL    HW121946   6.879   8.622   2.580  0.0387  0.8682 -0.8003
 6438SOL    HW221947   6.905   8.490   2.649 -1.1028  1.7627  1.4252
 6439SOL     OW21948   9.476   2.269   6.648 -0.0013 -0.2806 -0.2765
 6439SOL    HW121949   9.508   2.196   6.595  1.0708  0.2202 -0.3507
 6439SOL    HW221950   9.399   2.301   6.601 -0.5027 -1.3797 -0.2199
 6440SOL     OW21951   4.810   1.619   9.189  0.0485  0.1217 -0.3091
 6440SOL    HW121952   4.853   1.616   9.104  1.1069 -0.6125  0.2285
 6440SOL    HW221953   4.841   1.700   9.229 -0.6515  0.5998 -0.7016
 6441SOL     OW21954   3.231   7.849   3.127 -0.1158  0.4429 -0.4644
 6441SOL    HW121955   3.167   7.806   3.070 -1.0595  0.0332  0.8581
 6441SOL    HW221956   3.294   7.780   3.148 -1.2341 -0.1644  1.0773
 6442SOL     OW21957   3.985   2.481   2.057  0.0104 -0.1068 -0.2586
 6442SOL    HW121958   4.039   2.446   1.986 -0.0916 -0.6802 -0.0642
 6442SOL    HW221959   3.966   2.571   2.031  2.9682  0.9114  0.7358
 6443SOL     OW21960   1.675   6.108   1.076 -0.0410 -0.9801  0.1853
 6443SOL    HW121961   1.766   6.078   1.077 -0.1129 -1.2668 -0.6007
 6443SOL    HW221962   1.626   6.032   1.043 -0.2729 -0.1543 -1.4666
 6444SOL     OW21963   5.228   0.976   5.598  0.2736  0.0804  0.3833
 6444SOL    HW121964   5.250   0.940   5.511 -0.3933 -2.5868  1.2310
 6444SOL    HW221965   5.248   0.905   5.659  1.2872  2.0842  2.5428
 6445SOL     OW21966   8.186   1.884   4.979 -0.3608 -0.6093  0.0702
 6445SOL    HW121967   8.189   1.938   5.057  1.0220 -1.2744  0.5021
 6445SOL    HW221968   8.096   1.850   4.977 -0.7118  0.2375  0.7747
 6446SOL     OW21969   6.008   5.562   3.068 -0.2564 -0.6574 -0.5055
 6446SOL    HW121970   5.998   5.481   3.117 -0.4138 -0.3650 -0.0423
 6446SOL    HW221971   5.943   5.621   3.107 -0.3301 -0.3965 -1.0178
 6447SOL     OW21972   2.151   6.172   7.828  0.1011  0.4275  0.0642
 6447SOL    HW121973   2.238   6.189   7.792  0.7214  1.7083  2.0245
 6447SOL    HW221974   2.150   6.218   7.911 -3.1414  2.0674 -0.7049
 6448SOL     OW21975   2.129   6.132   4.156 -0.1177 -0.2563 -0.0087
 6448SOL    HW121976   2.121   6.076   4.078  0.3341 -1.0124  0.4678
 6448SOL    HW221977   2.069   6.093   4.219  1.1449 -1.0192  0.7757
 6449SOL     OW21978   9.408   7.888   8.948 -0.0523 -0.3459 -0.4782
 6449SOL    HW121979   9.340   7.824   8.969 -0.4218 -0.1187 -0.9770
 6449SOL    HW221980   9.458   7.847   8.877  0.9644 -0.9491  0.5408
 6450SOL     OW21981  10.107   5.983   7.261  0.6435 -0.2564  0.7763
 6450SOL    HW121982  10.056   5.918   7.214 -1.2117  1.4508  0.2977
 6450SOL    HW221983  10.160   6.026   7.193 -0.8915  1.1652  0.4110
 6451SOL     OW21984   7.013   6.606   7.677 -0.3755 -0.3653  1.2299
 6451SOL    HW121985   6.944   6.644   7.623 -1.6975 -1.5086  2.0318
 6451SOL    HW221986   7.027   6.519   7.639  2.1447  0.5441 -0.1932
 6452SOL     OW21987   0.394   7.110   8.479  0.7274  0.5382  0.1317
 6452SOL    HW121988   0.464   7.124   8.543  0.3584 -0.5508  0.7981
 6452SOL    HW221989   0.437   7.071   8.403  0.9395  0.4794  0.2843
 6453SOL     OW21990   9.910   0.584   0.097 -0.1681 -0.4872  0.7409
 6453SOL    HW121991   9.885   0.493   0.116  0.6764 -1.1304 -0.9936
 6453SOL    HW221992   9.937   0.582   0.005  1.9772  1.0559  1.2673
 6454SOL     OW21993   7.656   3.666   1.727 -0.2463 -0.0280 -0.0145
 6454SOL    HW121994   7.670   3.726   1.653 -0.8975  1.3965  0.9764
 6454SOL    HW221995   7.702   3.708   1.800 -1.4454 -0.2742  0.9113
 6455SOL     OW21996   3.798   6.608   6.365  0.6059  0.4950  0.0356
 6455SOL    HW121997   3.836   6.639   6.283  1.5788  0.2952  0.4087
 6455SOL    HW221998   3.704   6.623   6.355  0.8166  1.3154 -0.7508
 6456SOL     OW21999   5.750   4.745   3.584  0.2378 -0.2043 -0.2134
 6456SOL    HW122000   5.740   4.651   3.570 -2.3203  0.2262 -1.9777
 6456SOL    HW222001   5.831   4.767   3.539  1.3001 -1.6192  0.8831
 6457SOL     OW22002   5.335   3.422   3.575 -0.1601  0.5252  0.1082
 6457SOL    HW122003   5.417   3.469   3.586  0.7120 -0.9450  0.1094
 6457SOL    HW222004   5.300   3.413   3.664  0.6780 -0.5333  0.3577
 6458SOL     OW22005   7.572   2.497   3.692 -0.0291 -0.0894 -0.3264
 6458SOL    HW122006   7.483   2.463   3.681 -0.6015  0.7504  1.3949
 6458SOL    HW222007   7.570   2.582   3.648 -0.8918  1.0876  1.8262
 6459SOL     OW22008   2.094   0.305   9.753  0.7221  0.6211 -0.2619
 6459SOL    HW122009   2.135   0.264   9.828  0.8343 -0.3980 -0.8641
 6459SOL    HW222010   2.003   0.276   9.756  0.2661  2.0195  0.4676
 6460SOL     OW22011   6.852   6.452   7.944  0.2865 -0.0052 -0.4288
 6460SOL    HW122012   6.911   6.469   7.871  0.2965 -0.2296 -0.4753
 6460SOL    HW222013   6.807   6.370   7.920  1.8335 -1.2742  0.7745
 6461SOL     OW22014   9.835   2.423   7.012  0.1334 -0.1349  0.2321
 6461SOL    HW122015   9.774   2.496   7.001 -1.9941 -2.0351 -2.0063
 6461SOL    HW222016   9.908   2.442   6.954 -0.8387 -0.1602 -1.0300
 6462SOL     OW22017   4.577   1.465   2.856  0.2415 -0.1512 -0.0690
 6462SOL    HW122018   4.662   1.435   2.823  0.7141 -0.7901  1.6359
 6462SOL    HW222019   4.515   1.443   2.786  1.0101 -2.6326 -0.0626
 6463SOL     OW22020   1.385   0.168   0.387 -0.0330 -0.0538 -0.0682
 6463SOL    HW122021   1.291   0.166   0.405 -0.5899  0.4292 -2.5739
 6463SOL    HW222022   1.420   0.231   0.450 -1.1553 -1.0484  1.6396
 6464SOL     OW22023   2.850   2.894   5.531  0.8333 -0.7518 -0.1407
 6464SOL    HW122024   2.852   2.951   5.454  2.2783  0.7324  0.9133
 6464SOL    HW222025   2.942   2.870   5.545  0.6140 -0.9358  1.1289
 6465SOL     OW22026   5.685   6.269   2.227 -0.2342  0.0101 -0.1730
 6465SOL    HW122027   5.628   6.270   2.150 -0.2428  0.9947 -0.1591
 6465SOL    HW222028   5.629   6.235   2.297 -0.9603  1.4022 -0.0515
 6466SOL     OW22029   2.120   2.765   8.944 -0.2597 -0.3023  0.3942
 6466SOL    HW122030   2.135   2.706   9.018  0.5367 -0.8370 -0.1733
 6466SOL    HW222031   2.192   2.746   8.883 -1.6730 -0.9454 -1.1822
 6467SOL     OW22032   6.143   8.484   0.919 -0.0951 -0.4050 -0.9417
 6467SOL    HW122033   6.113   8.428   0.847  1.0867 -1.3662 -0.7227
 6467SOL    HW222034   6.232   8.508   0.895 -0.1042  0.2408 -0.3506
 6468SOL     OW22035   3.611   5.063   0.255  0.2834  1.1756 -0.2977
 6468SOL    HW122036   3.681   5.052   0.320  0.3164  1.9411 -0.1923
 6468SOL    HW222037   3.585   4.974   0.233  0.2629  0.8957  0.7823
 6469SOL     OW22038   8.255   9.757  10.285 -1.0396  0.3192  0.6089
 6469SOL    HW122039   8.289   9.737  10.372 -1.4389 -0.7842  0.5289
 6469SOL    HW222040   8.164   9.727  10.288 -0.8326 -0.4316 -0.4351
 6470SOL     OW22041   9.918   5.578   0.231 -0.1792  0.3420 -0.2892
 6470SOL    HW122042   9.900   5.545   0.143 -0.0218 -2.8432  0.7606
 6470SOL    HW222043  10.001   5.537   0.256 -0.2996  1.0446  1.4080
 6471SOL     OW22044   5.964   0.100   5.015 -0.3981  0.0331  0.3249
 6471SOL    HW122045   5.970   0.162   4.942 -1.2505 -0.4255 -0.1486
 6471SOL    HW222046   6.034   0.037   4.999  0.3755  0.7638  0.7236
 6472SOL     OW22047   7.794   7.721   3.371  0.1984  0.4294  0.0093
 6472SOL    HW122048   7.701   7.742   3.382  0.2503  0.4950  0.3300
 6472SOL    HW222049   7.796   7.658   3.299 -0.1873 -0.3033  0.6258
 6473SOL     OW22050   7.486   7.880   9.798 -0.2068  0.1457  0.8204
 6473SOL    HW122051   7.505   7.914   9.711 -0.8091  0.4052  0.7877
 6473SOL    HW222052   7.391   7.880   9.804 -0.4583 -4.1681 -0.2205
 6474SOL     OW22053   6.118   9.453   8.839  0.1935  0.0820 -0.3768
 6474SOL    HW122054   6.036   9.458   8.887  0.2672 -0.4122 -0.1962
 6474SOL    HW222055   6.160   9.538   8.853 -1.0594  1.0191 -1.8828
 6475SOL     OW22056   5.389   3.720   6.296 -0.5210 -0.1610 -0.3906
 6475SOL    HW122057   5.382   3.636   6.341 -0.8070  0.4876  0.8052
 6475SOL    HW222058   5.377   3.786   6.364  1.4026  0.8930 -1.0028
 6476SOL     OW22059   5.753   7.720   4.616  0.2640 -0.4808 -0.3860
 6476SOL    HW122060   5.743   7.808   4.653 -3.0556 -0.5517 -0.8115
 6476SOL    HW222061   5.771   7.664   4.692 -1.3829  0.0916  0.4892
 6477SOL     OW22062   7.745   9.542   9.184  0.1726  0.3604  0.3092
 6477SOL    HW122063   7.754   9.504   9.272 -2.3074  0.2613  0.5917
 6477SOL    HW222064   7.736   9.636   9.199 -1.4649  0.2295  0.3115
 6478SOL     OW22065   2.841   8.899   8.912  0.5576 -0.0455 -0.1204
 6478SOL    HW122066   2.927   8.921   8.947  0.1141 -1.2668  1.8597
 6478SOL    HW222067   2.780   8.954   8.963 -0.1480 -2.2577  1.5569
 6479SOL     OW22068   6.833   4.591   7.198  0.4381  0.2956  0.0699
 6479SOL    HW122069   6.737   4.592   7.204  0.5102  1.7707  2.0222
 6479SOL    HW222070   6.855   4.674   7.155  0.8505  0.7859  1.1699
 6480SOL     OW22071   2.288   4.209   2.721  0.7371  0.0802 -0.6586
 6480SOL    HW122072   2.315   4.137   2.777  2.2309  0.0647 -1.3492
 6480SOL    HW222073   2.210   4.177   2.676 -0.1096 -0.1395  0.8929
 6481SOL     OW22074   4.490   5.872   0.613  0.1654  0.5492 -0.3736
 6481SOL    HW122075   4.573   5.850   0.655 -0.1636  0.0106  0.0098
 6481SOL    HW222076   4.433   5.900   0.686 -0.9777 -2.0596 -0.1482
 6482SOL     OW22077   0.813   2.860   0.566 -0.2649  0.7062 -0.1725
 6482SOL    HW122078   0.908   2.865   0.574 -0.2600 -0.2503  0.4842
 6482SOL    HW222079   0.791   2.932   0.506  0.7179  1.8702  0.7950
 6483SOL     OW22080   3.922  10.211   5.507 -0.0961 -0.3730 -0.0720
 6483SOL    HW122081   3.983  10.150   5.549 -0.3934 -1.8322 -1.6274
 6483SOL    HW222082   3.914  10.178   5.417 -1.8148  0.8198 -0.4048
 6484SOL     OW22083   9.933   0.697   5.143 -0.2155 -0.8349 -0.0277
 6484SOL    HW122084   9.904   0.734   5.226  1.1712 -1.5155  0.7936
 6484SOL    HW222085  10.028   0.700   5.147 -0.1155 -1.2915 -1.4182
 6485SOL     OW22086   4.914   0.203   0.817 -0.2911  0.1679 -0.4835
 6485SOL    HW122087   4.959   0.182   0.898 -0.9542  2.0221  0.4155
 6485SOL    HW222088   4.971   0.168   0.748  1.3501  0.4164  0.6943
 6486SOL     OW22089   1.857   9.419   1.207 -0.2361  0.1012  0.7074
 6486SOL    HW122090   1.857   9.368   1.126  2.7943 -0.8577  1.1897
 6486SOL    HW222091   1.886   9.506   1.181  0.4406 -0.1218  0.7102
 6487SOL     OW22092   3.843   2.621  10.347  0.0587  0.3907  0.4909
 6487SOL    HW122093   3.783   2.695  10.335 -0.6244 -0.2321  0.0466
 6487SOL    HW222094   3.924   2.650  10.304 -0.0812  1.0235  0.6347
 6488SOL     OW22095   9.286   8.251   2.175  0.2073  0.3391  0.3640
 6488SOL    HW122096   9.246   8.239   2.261 -1.0562  0.4408 -0.1871
 6488SOL    HW222097   9.215   8.285   2.120  0.8687 -0.1454 -0.8346
 6489SOL     OW22098   6.320   2.597   0.097 -0.0439 -0.1464 -0.7066
 6489SOL    HW122099   6.253   2.589   0.164  0.7465 -2.0875 -0.0722
 6489SOL    HW222100   6.393   2.641   0.141  0.3703 -1.1703 -0.3365
 6490SOL     OW22101   2.219   2.913   9.698 -0.3988 -0.1670  0.5636
 6490SOL    HW122102   2.129   2.890   9.676 -0.8398  1.0114  1.0350
 6490SOL    HW222103   2.239   2.987   9.641  0.3219 -0.4989  0.3786
 6491SOL     OW22104   4.487   7.005   6.818 -0.5785 -0.5143  0.0992
 6491SOL    HW122105   4.505   6.960   6.901  0.5398 -0.1977  0.0425
 6491SOL    HW222106   4.461   6.935   6.758  1.4147 -1.1645 -0.0671
 6492SOL     OW22107   7.906   6.504   3.768 -0.1845  1.2101 -0.6110
 6492SOL    HW122108   7.866   6.568   3.827  0.3611  0.6465  0.4043
 6492SOL    HW222109   8.000   6.517   3.779 -0.0155 -0.7976  0.8374
 6493SOL     OW22110   0.178   2.576   1.258 -0.1870 -1.0688  0.3013
 6493SOL    HW122111   0.228   2.650   1.292  2.4956 -2.2937 -0.6730
 6493SOL    HW222112   0.136   2.610   1.180 -1.4004  0.1455  1.4323
 6494SOL     OW22113   5.490   0.432   4.907  0.4945  0.2661  0.2740
 6494SOL    HW122114   5.407   0.390   4.929 -0.0465 -1.4986 -4.0369
 6494SOL    HW222115   5.465   0.517   4.870  0.9213  1.0451  1.7303
 6495SOL     OW22116   6.054   4.148   8.973 -0.0628  0.4738 -0.0306
 6495SOL    HW122117   6.065   4.054   8.982  0.8834  0.0315 -4.0556
 6495SOL    HW222118   5.965   4.165   9.003 -0.1913 -1.6363  0.9077
 6496SOL     OW22119   6.991   6.195   2.425  0.1887 -0.1758  0.0793
 6496SOL    HW122120   7.033   6.259   2.367 -0.1852  0.3141  0.3427
 6496SOL    HW222121   7.000   6.233   2.512  1.5561 -1.3387  0.4774
 6497SOL     OW22122   7.823   2.929   9.411 -0.5874  0.1688  0.1517
 6497SOL    HW122123   7.827   2.835   9.428 -0.6292  0.3426  1.1498
 6497SOL    HW222124   7.730   2.951   9.416 -0.7674  0.0097 -1.6191
 6498SOL     OW22125   2.335   6.052   5.860  0.6595  0.1714 -0.0901
 6498SOL    HW122126   2.359   6.096   5.942 -0.2229  0.5549 -0.0304
 6498SOL    HW222127   2.321   5.961   5.885 -0.1638  0.3977  0.2968
 6499SOL     OW22128   8.094   4.060   3.678  0.1581 -0.1184 -0.0305
 6499SOL    HW122129   8.137   3.981   3.711 -1.4618 -0.6061  1.0111
 6499SOL    HW222130   8.052   4.031   3.596  1.9140  0.4154 -1.1716
 6500SOL     OW22131   9.104   0.205   4.582 -0.4758 -0.4053 -0.2995
 6500SOL    HW122132   9.084   0.231   4.492 -0.8908 -1.3268 -0.4798
 6500SOL    HW222133   9.078   0.281   4.634  1.4684  0.8938 -1.0846
 6501SOL     OW22134   4.543   3.870   7.861 -0.2455  0.0430 -0.1079
 6501SOL    HW122135   4.515   3.899   7.948  2.4128  1.9685  0.2230
 6501SOL    HW222136   4.619   3.815   7.878 -0.6850 -0.9152 -1.1630
 6502SOL     OW22137   5.176   1.155   8.971 -0.0822 -0.3737  0.1114
 6502SOL    HW122138   5.266   1.188   8.964 -0.1979 -0.0834  0.0166
 6502SOL    HW222139   5.128   1.201   8.903  0.4847 -3.2617 -2.5103
 6503SOL     OW22140   4.448   9.436   4.705 -0.9479  0.1487 -0.2117
 6503SOL    HW122141   4.433   9.468   4.794  0.9292 -1.0180  0.5781
 6503SOL    HW222142   4.481   9.347   4.717  1.5500  0.7374 -1.9271
 6504SOL     OW22143   5.546   0.081   8.709 -0.1988 -0.1157  0.2707
 6504SOL    HW122144   5.525   0.069   8.616  0.4069 -0.4993  0.1802
 6504SOL    HW222145   5.489   0.019   8.755  0.0301 -0.4523  0.1015
 6505SOL     OW22146   7.833   7.040   5.198  0.1025  0.1300  0.1724
 6505SOL    HW122147   7.916   6.994   5.188 -0.7694 -1.6236  0.4583
 6505SOL    HW222148   7.817   7.042   5.292 -0.9491 -1.1299  0.0613
 6506SOL     OW22149   8.076   9.106   5.086 -0.5118  0.1892 -0.1518
 6506SOL    HW122150   8.150   9.132   5.141 -0.4402 -0.5518  0.1064
 6506SOL    HW222151   8.073   9.011   5.092 -1.0236  0.1561 -0.7644
 6507SOL     OW22152   6.654   1.557   7.529 -0.6217  0.5540  0.0218
 6507SOL    HW122153   6.679   1.649   7.521 -0.9925  0.4978 -2.8838
 6507SOL    HW222154   6.712   1.511   7.469 -1.8735 -0.8091 -0.1991
 6508SOL     OW22155   9.535   3.077   4.335 -0.2424 -0.3513 -0.0817
 6508SOL    HW122156   9.523   3.143   4.403  1.5415 -0.8821  0.7918
 6508SOL    HW222157   9.572   3.001   4.380  0.0150 -1.0921 -1.4698
 6509SOL     OW22158   6.872   0.581   9.829 -0.1784 -0.1234  0.0320
 6509SOL    HW122159   6.815   0.654   9.855 -3.6693 -2.0179 -1.5116
 6509SOL    HW222160   6.878   0.589   9.734  2.2094 -0.0639  0.1367
 6510SOL     OW22161  10.131   2.746   7.364  0.5602  0.4974 -0.0216
 6510SOL    HW122162  10.135   2.681   7.295  1.2859  0.0272  0.4531
 6510SOL    HW222163  10.130   2.830   7.318  3.2244  0.2897 -0.5945
 6511SOL     OW22164   4.492  10.051   1.120 -0.3080  0.0011 -0.5944
 6511SOL    HW122165   4.574  10.004   1.136 -0.5787 -0.4886 -0.6063
 6511SOL    HW222166   4.432   9.983   1.088 -0.7210  0.3499 -0.5638
 6512SOL     OW22167   3.342   4.959   4.299 -0.4038  0.4287  0.2202
 6512SOL    HW122168   3.438   4.961   4.307 -0.3741 -0.3098  0.1199
 6512SOL    HW222169   3.311   5.000   4.380 -0.0050  1.0280  0.0800
 6513SOL     OW22170   5.297   9.319   6.716 -0.2948  0.0495  0.2866
 6513SOL    HW122171   5.210   9.327   6.676  0.6113 -0.1170 -1.8692
 6513SOL    HW222172   5.321   9.409   6.739 -0.6046  0.2369 -0.1032
 6514SOL     OW22173   8.950   3.730   8.839 -0.5651 -0.4290 -0.9042
 6514SOL    HW122174   9.011   3.664   8.808 -1.8312 -2.2279  0.2485
 6514SOL    HW222175   8.983   3.755   8.926  0.5119  1.3316 -1.7586
 6515SOL     OW22176   6.570   7.833   0.579 -0.0838 -0.8592 -0.0398
 6515SOL    HW122177   6.544   7.819   0.670  0.6888  0.1764  0.3584
 6515SOL    HW222178   6.506   7.783   0.528 -1.0273 -0.7912  1.0352
 6516SOL     OW22179   4.857   2.212   4.227 -0.0702  0.2124  0.3502
 6516SOL    HW122180   4.774   2.165   4.225 -0.1589  0.3490  0.7210
 6516SOL    HW222181   4.881   2.222   4.135 -1.5728  2.1409  0.0931
 6517SOL     OW22182   3.135   9.714  10.285  0.0056 -0.5182  0.1878
 6517SOL    HW122183   3.114   9.789  10.229 -0.8655 -0.4021  0.6497
 6517SOL    HW222184   3.069   9.717  10.354 -1.4099 -2.9066 -0.9317
 6518SOL     OW22185   7.262   3.953   6.844  0.2241 -0.2743  0.6616
 6518SOL    HW122186   7.289   3.876   6.795 -1.3832 -0.5319  0.1497
 6518SOL    HW222187   7.205   3.919   6.913  0.6405  0.3180  1.3079
 6519SOL     OW22188   1.627   0.455   7.068  0.2660  0.5802 -0.0423
 6519SOL    HW122189   1.688   0.525   7.091 -0.1122  1.2029 -0.8604
 6519SOL    HW222190   1.543   0.500   7.055 -0.1737 -0.1412  0.2279
 6520SOL     OW22191   0.856   6.938   2.694 -0.2943  0.0337  0.3317
 6520SOL    HW122192   0.795   6.873   2.657 -1.5682  1.2070  0.2828
 6520SOL    HW222193   0.822   7.022   2.664  0.1406  0.8602  2.0296
 6521SOL     OW22194   7.175   6.016   8.566  0.4008  0.1283  0.4672
 6521SOL    HW122195   7.254   5.970   8.540  0.6640  0.3755  0.8333
 6521SOL    HW222196   7.170   6.091   8.505 -1.4522 -1.7751 -1.9408
 6522SOL     OW22197   0.209   8.855   1.643 -0.7358  0.0411  0.0851
 6522SOL    HW122198   0.230   8.935   1.594 -0.2290  0.4173  0.8962
 6522SOL    HW222199   0.149   8.808   1.586 -3.1886  2.2138  0.6634
 6523SOL     OW22200  10.033   9.149   1.497  0.6851 -0.1256 -0.3887
 6523SOL    HW122201   9.993   9.176   1.580 -1.1718 -0.2444 -1.2039
 6523SOL    HW222202  10.116   9.110   1.523  1.0393  1.5752  1.2510
 6524SOL     OW22203   1.650  10.215   8.159  0.0407 -0.0186 -0.4182
 6524SOL    HW122204   1.568  10.210   8.208 -0.6765 -2.6371 -1.7083
 6524SOL    HW222205   1.703  10.278   8.209 -1.1881 -1.3309  2.8589
 6525SOL     OW22206   3.993   7.688   6.749  0.2826  0.1311  0.2465
 6525SOL    HW122207   4.002   7.762   6.689  0.7447 -0.2885 -0.2200
 6525SOL    HW222208   4.062   7.627   6.722  1.4841  0.5699  2.1788
 6526SOL     OW22209   6.608   6.050   7.935  0.1706 -0.1879  0.7871
 6526SOL    HW122210   6.530   6.102   7.914 -0.3805 -1.5669 -0.7566
 6526SOL    HW222211   6.584   6.003   8.016 -1.1995 -1.6634 -0.4110
 6527SOL     OW22212   1.168   3.667   2.979  0.1904  0.1466 -0.0543
 6527SOL    HW122213   1.089   3.717   2.961  0.9890  1.3602 -0.3246
 6527SOL    HW222214   1.149   3.622   3.062 -0.8409  0.2668 -0.2094
 6528SOL     OW22215   6.883   8.728   3.448  0.0058  0.0715  0.4106
 6528SOL    HW122216   6.958   8.671   3.463  1.0206  1.4303  0.7157
 6528SOL    HW222217   6.907   8.780   3.371 -0.8301  0.1912  0.2172
 6529SOL     OW22218   6.408   8.315   1.918 -0.7736 -0.1795  0.2092
 6529SOL    HW122219   6.315   8.329   1.900 -0.5285  2.2058  0.3947
 6529SOL    HW222220   6.452   8.345   1.839 -0.1333 -1.3252  0.1097
 6530SOL     OW22221   6.407   6.757   8.677  0.0659 -0.5140  0.3745
 6530SOL    HW122222   6.429   6.850   8.668  1.1174 -0.8094 -0.2646
 6530SOL    HW222223   6.453   6.714   8.605 -1.3046 -1.3996 -0.0085
 6531SOL     OW22224   4.843   7.243   7.998 -0.3323  0.2499 -0.2576
 6531SOL    HW122225   4.877   7.220   8.084 -2.3338  0.0673  0.5334
 6531SOL    HW222226   4.812   7.333   8.007  1.0252  0.8816 -1.3354
 6532SOL     OW22227   6.242   9.005   6.274  0.5396  0.0333 -0.0799
 6532SOL    HW122228   6.233   8.919   6.314 -0.0805  0.8181  1.5425
 6532SOL    HW222229   6.238   9.067   6.347  1.4241  1.4312 -1.1517
 6533SOL     OW22230   0.323   6.079   0.947  0.0410 -0.0447 -0.1332
 6533SOL    HW122231   0.318   6.173   0.966 -2.6758 -0.6022  2.8959
 6533SOL    HW222232   0.401   6.049   0.993  0.9791  0.6912 -1.1938
 6534SOL     OW22233   3.673   2.039   5.499  0.6703 -0.3394  0.4756
 6534SOL    HW122234   3.595   2.007   5.454  0.8360  0.1251 -0.1533
 6534SOL    HW222235   3.721   2.088   5.433  0.6014  0.9026  1.3108
 6535SOL     OW22236   2.333   0.071   9.841  0.1202 -0.1202  0.1856
 6535SOL    HW122237   2.344   0.165   9.855 -2.7227  0.3840 -0.2627
 6535SOL    HW222238   2.266   0.046   9.905  0.0177 -1.5920 -0.4715
 6536SOL     OW22239   0.969   0.550   1.191  0.2560 -0.1193 -0.8750
 6536SOL    HW122240   1.021   0.523   1.115  1.0984  2.1421 -1.1874
 6536SOL    HW222241   0.896   0.488   1.194  1.8653 -2.1603 -1.6421
 6537SOL     OW22242   2.362   1.252   3.407  0.5114  0.1640 -0.0457
 6537SOL    HW122243   2.332   1.184   3.468  0.7949 -0.5623 -0.7013
 6537SOL    HW222244   2.425   1.303   3.458  0.5294 -0.2479  0.3598
 6538SOL     OW22245   4.406   9.654   2.258 -0.0721 -0.0271  0.0769
 6538SOL    HW122246   4.454   9.579   2.294  2.2571  0.6629 -1.3623
 6538SOL    HW222247   4.474   9.710   2.220 -1.8693  2.1120 -0.2078
 6539SOL     OW22248   5.302   3.937   0.860  0.1807  0.0060 -0.4167
 6539SOL    HW122249   5.289   3.912   0.769  0.8281  0.9799 -0.7912
 6539SOL    HW222250   5.285   4.031   0.862  2.7198  0.5452 -0.0964
 6540SOL     OW22251   5.405   5.696   5.581 -0.0212 -0.0814 -0.2262
 6540SOL    HW122252   5.389   5.774   5.635 -2.3229  0.7431 -1.9010
 6540SOL    HW222253   5.498   5.698   5.562  0.2844  1.2807  1.2049
 6541SOL     OW22254   4.687   3.784   5.770  0.1876  0.4910  0.6012
 6541SOL    HW122255   4.772   3.743   5.786  0.5189 -0.8516 -3.4945
 6541SOL    HW222256   4.628   3.743   5.834  1.7509 -1.9212  0.6193
 6542SOL     OW22257   7.671   7.327   5.212 -0.0387  0.1832  0.2910
 6542SOL    HW122258   7.763   7.326   5.185 -0.7448  1.8702 -2.6887
 6542SOL    HW222259   7.658   7.414   5.249 -0.7063  0.4277 -0.5003
 6543SOL     OW22260   0.949   9.235   7.676 -0.0458 -0.0277 -0.0488
 6543SOL    HW122261   0.935   9.229   7.770  2.2698  1.5740  0.4925
 6543SOL    HW222262   1.018   9.171   7.657  0.1261  0.2747 -0.4769
 6544SOL     OW22263   6.563   1.974   7.150  0.1448 -0.0410 -0.0292
 6544SOL    HW122264   6.599   1.886   7.152 -0.3501 -0.2580 -0.5283
 6544SOL    HW222265   6.469   1.962   7.138  0.0654  0.5552 -0.0711
 6545SOL     OW22266   8.403   8.596   6.718 -0.8767 -0.2814 -0.0651
 6545SOL    HW122267   8.479   8.647   6.691 -1.0837  0.3357  0.5052
 6545SOL    HW222268   8.413   8.512   6.673 -0.5237  0.2477 -0.9924
 6546SOL     OW22269   8.920   8.959   5.944  0.1854 -0.0036  0.0564
 6546SOL    HW122270   9.011   8.929   5.951  0.3365  0.0172 -1.4265
 6546SOL    HW222271   8.893   8.975   6.034  1.6711  0.0381  0.5287
 6547SOL     OW22272   3.456   6.078   6.195 -0.2633 -0.3459  0.0106
 6547SOL    HW122273   3.504   5.995   6.204 -0.1597 -0.3880 -0.9051
 6547SOL    HW222274   3.437   6.086   6.102 -0.6973  0.4318  0.1531
 6548SOL     OW22275   0.359   3.337   2.389  0.5391  0.0912 -0.1567
 6548SOL    HW122276   0.293   3.373   2.449 -0.8702 -1.6624 -0.5775
 6548SOL    HW222277   0.311   3.319   2.308  1.6733 -0.5971 -0.7000
 6549SOL     OW22278   7.076   0.737   0.098  0.1062 -0.0921  0.1455
 6549SOL    HW122279   7.069   0.822   0.140  0.7534  1.6456 -2.9796
 6549SOL    HW222280   7.125   0.753   0.018 -2.3144 -2.7619 -2.1304
 6550SOL     OW22281   6.408   6.010   4.313 -0.1414  0.5608 -0.2198
 6550SOL    HW122282   6.360   5.998   4.394  0.5686  1.4667  0.3634
 6550SOL    HW222283   6.350   6.063   4.258 -0.0626  1.1462  0.2489
 6551SOL     OW22284   4.723   5.419   3.639 -0.0809 -0.4675  0.1553
 6551SOL    HW122285   4.674   5.495   3.670  0.4654  0.1735 -0.5278
 6551SOL    HW222286   4.663   5.345   3.652 -2.0069  0.5026 -2.3627
 6552SOL     OW22287   9.780   8.231   6.671 -0.2225  0.2143  0.1449
 6552SOL    HW122288   9.718   8.178   6.622  0.6468 -1.9379  1.2433
 6552SOL    HW222289   9.866   8.197   6.646  0.4886  2.1681 -0.2680
 6553SOL     OW22290   1.648   7.905   9.308 -0.7768 -0.2892 -0.2248
 6553SOL    HW122291   1.572   7.955   9.278 -1.3085 -0.2754  1.1025
 6553SOL    HW222292   1.624   7.814   9.293 -1.0648 -0.2864  0.2199
 6554SOL     OW22293   0.467   3.490   7.800 -0.1157 -0.3102 -0.1440
 6554SOL    HW122294   0.418   3.420   7.843 -1.3252  0.1036 -0.8001
 6554SOL    HW222295   0.409   3.566   7.805  0.2630  0.0758 -1.3620
 6555SOL     OW22296   7.017   9.406   0.679 -0.0884 -0.3220 -0.1219
 6555SOL    HW122297   7.052   9.340   0.620  1.8959 -0.1966  0.8310
 6555SOL    HW222298   6.970   9.467   0.622 -0.5540 -1.6444 -1.2069
 6556SOL     OW22299   8.808   4.556   8.812  0.3772 -0.0425  0.0813
 6556SOL    HW122300   8.889   4.562   8.862  0.5704 -1.5835 -0.0083
 6556SOL    HW222301   8.791   4.646   8.782  1.7934  0.3736  0.4872
 6557SOL     OW22302   5.565   7.574   8.499 -0.3624 -0.3322 -0.0667
 6557SOL    HW122303   5.588   7.666   8.503 -0.7250 -0.1759 -1.2150
 6557SOL    HW222304   5.470   7.573   8.486 -0.6488 -0.9189  1.6623
 6558SOL     OW22305   3.431   2.410   3.468 -1.0542 -0.4925 -0.2244
 6558SOL    HW122306   3.367   2.377   3.405 -0.4648  1.2598 -1.8353
 6558SOL    HW222307   3.513   2.367   3.444 -1.0441 -0.6449  0.0714
 6559SOL     OW22308   5.787   4.119   3.312 -0.2289  0.0465 -0.0312
 6559SOL    HW122309   5.715   4.120   3.375  0.0738  0.6288  0.3178
 6559SOL    HW222310   5.747   4.088   3.231 -0.2459 -2.5571  0.8736
 6560SOL     OW22311  10.359   7.931   9.078 -0.7341  0.2640 -0.5393
 6560SOL    HW122312  10.367   7.922   9.173 -2.1251  2.0942 -0.1863
 6560SOL    HW222313  10.436   7.980   9.051 -1.5375  1.9523  0.0763
 6561SOL     OW22314   4.752   2.548   0.501 -0.0307  0.0221  0.4440
 6561SOL    HW122315   4.814   2.546   0.428 -2.0975 -0.0276 -1.4104
 6561SOL    HW222316   4.780   2.622   0.554 -1.1500  3.1886 -2.9887
 6562SOL     OW22317   9.769   8.952   5.465  0.8932 -0.4727  0.4929
 6562SOL    HW122318   9.808   9.024   5.514  1.4222 -0.1419 -0.3894
 6562SOL    HW222319   9.830   8.880   5.476  1.0086 -0.4005  0.3293
 6563SOL     OW22320   0.089   4.692  10.319  0.2392 -0.4368  0.3704
 6563SOL    HW122321   0.085   4.765  10.381 -1.4830  0.5058 -0.7736
 6563SOL    HW222322   0.095   4.734  10.233  0.3983 -1.6848 -0.2523
 6564SOL     OW22323   7.860   7.319   5.743 -0.7939 -0.0136 -0.4520
 6564SOL    HW122324   7.776   7.322   5.697 -1.8183  0.3149  1.3703
 6564SOL    HW222325   7.844   7.363   5.826  1.1510 -0.1078  0.0270
 6565SOL     OW22326   8.900   3.957   0.390  0.3637  0.1216  0.0978
 6565SOL    HW122327   8.890   3.894   0.319  2.4869 -0.1703 -0.0067
 6565SOL    HW222328   8.886   3.905   0.470 -2.8214  0.6102 -0.0155
 6566SOL     OW22329   9.771   5.324   4.977 -0.1033  0.1841  0.5712
 6566SOL    HW122330   9.803   5.342   5.066  0.8550  0.5897  0.1530
 6566SOL    HW222331   9.843   5.350   4.920 -0.1167 -1.5330 -0.2663
 6567SOL     OW22332   3.716   3.087   6.255  0.1579 -0.1765 -0.0755
 6567SOL    HW122333   3.676   3.004   6.228 -2.4747  0.8691  0.3232
 6567SOL    HW222334   3.671   3.154   6.204 -0.0971  1.2579  1.9166
 6568SOL     OW22335   1.058   9.383   9.057 -0.1612 -0.3077  0.1269
 6568SOL    HW122336   1.082   9.334   9.135  1.5262 -1.1425 -0.8543
 6568SOL    HW222337   1.084   9.473   9.075  0.6329 -0.5848  0.3636
 6569SOL     OW22338   7.878   9.349   3.566  0.4678 -0.3007 -0.6359
 6569SOL    HW122339   7.872   9.289   3.493 -0.8727 -0.3154 -0.5422
 6569SOL    HW222340   7.801   9.405   3.558  1.0264  0.5932 -0.0155
 6570SOL     OW22341   0.025   1.408  10.041  0.2135 -0.0079 -0.1519
 6570SOL    HW122342   0.080   1.339  10.079  0.4735  1.1429  1.7047
 6570SOL    HW222343  -0.016   1.450  10.117 -0.5180  1.3971 -1.2814
 6571SOL     OW22344   9.453   0.930   3.417 -0.0795 -0.2446 -0.5085
 6571SOL    HW122345   9.476   0.841   3.389 -0.1298  0.0025 -1.3902
 6571SOL    HW222346   9.357   0.930   3.419 -0.0857 -0.8525  1.7395
 6572SOL     OW22347   2.313   2.234   0.790  0.4242 -0.1765 -0.6255
 6572SOL    HW122348   2.253   2.211   0.720 -0.2525  0.3792 -0.2338
 6572SOL    HW222349   2.290   2.323   0.814 -0.2840 -0.7962  1.2241
 6573SOL     OW22350  10.022  10.274   3.123 -0.4884  0.3646  0.3022
 6573SOL    HW122351  10.076  10.257   3.046 -0.3804  0.9995  0.2329
 6573SOL    HW222352   9.940  10.309   3.087 -0.6769  0.0775  0.4460
 6574SOL     OW22353   9.794   6.773  10.258 -0.0663  0.2162 -0.5307
 6574SOL    HW122354   9.870   6.736  10.303 -0.4824  2.0169  1.8182
 6574SOL    HW222355   9.830   6.812  10.178  0.6746 -3.1735 -2.0309
 6575SOL     OW22356   4.875   1.791   1.860  0.2449 -0.6488 -0.8964
 6575SOL    HW122357   4.807   1.838   1.812 -0.0899  0.8236  0.8943
 6575SOL    HW222358   4.884   1.708   1.814 -2.4817 -0.7403 -1.4387
 6576SOL     OW22359   1.584   1.138   5.631  0.0600 -0.1732 -0.1277
 6576SOL    HW122360   1.617   1.049   5.643 -2.1958 -0.7886  2.4929
 6576SOL    HW222361   1.587   1.152   5.536  1.9127 -2.4237 -0.4884
 6577SOL     OW22362   9.436   9.831   5.267 -0.6697 -0.3557 -0.2382
 6577SOL    HW122363   9.352   9.843   5.223 -0.5715 -0.4986 -0.4661
 6577SOL    HW222364   9.484   9.912   5.250  0.0348 -1.0742 -1.8703
 6578SOL     OW22365   4.829  10.181   8.489  0.6372 -0.1039  0.0109
 6578SOL    HW122366   4.913  10.180   8.443  0.3552 -1.3835 -0.5283
 6578SOL    HW222367   4.765  10.156   8.422 -0.1053  0.3522  0.5400
 6579SOL     OW22368   7.364   4.682   9.112  0.6477 -0.4339  0.0063
 6579SOL    HW122369   7.402   4.715   9.194  2.9517 -0.8539 -0.8166
 6579SOL    HW222370   7.440   4.665   9.056 -0.5465 -4.1652 -0.7443
 6580SOL     OW22371   0.357   9.855   0.513  0.2039 -0.7406  0.5846
 6580SOL    HW122372   0.383   9.945   0.534 -0.0137 -0.5688  0.1552
 6580SOL    HW222373   0.418   9.828   0.444 -0.9455 -0.1985 -0.6986
 6581SOL     OW22374   0.136   6.299   9.643  0.1423  0.5967  0.2207
 6581SOL    HW122375   0.100   6.339   9.564  1.3493  1.3997  0.0634
 6581SOL    HW222376   0.097   6.349   9.715  1.3428  1.8632  0.0360
 6582SOL     OW22377   5.441   9.508   3.255 -0.2197 -0.3540  0.3144
 6582SOL    HW122378   5.364   9.452   3.254 -0.0873 -0.5333 -0.3823
 6582SOL    HW222379   5.431   9.565   3.178 -0.2094  0.3825  0.8494
 6583SOL     OW22380   1.958   8.010   7.777 -0.5672 -0.0355 -0.0024
 6583SOL    HW122381   2.040   7.974   7.810  0.8858 -0.6385 -3.7436
 6583SOL    HW222382   1.903   7.933   7.759  0.0003 -0.0451 -1.9328
 6584SOL     OW22383   5.542   2.104   4.830  0.1160  0.8304 -0.1696
 6584SOL    HW122384   5.476   2.153   4.782 -0.8788 -0.3156 -0.0227
 6584SOL    HW222385   5.526   2.013   4.806  0.4158  0.3534  1.3440
 6585SOL     OW22386  10.337   3.738   6.873  0.0323  0.1724 -0.2460
 6585SOL    HW122387  10.350   3.740   6.778 -1.0289 -1.4761 -0.4676
 6585SOL    HW222388  10.294   3.654   6.890 -0.6317  0.8247  1.5940
 6586SOL     OW22389   0.058   6.597   5.533  0.2292  0.0923  0.3618
 6586SOL    HW122390   0.061   6.503   5.546 -0.2261 -0.0749 -0.6124
 6586SOL    HW222391   0.149   6.621   5.511  0.4681 -0.0146  1.2128
 6587SOL     OW22392   1.730   5.730   8.732  0.1759  0.0448 -0.6407
 6587SOL    HW122393   1.794   5.681   8.678  0.5890  2.0117 -2.0453
 6587SOL    HW222394   1.647   5.685   8.716  0.3872  0.2232 -2.5615
 6588SOL     OW22395   3.741   3.970   4.185 -0.1031 -0.5362  0.5090
 6588SOL    HW122396   3.719   3.966   4.092 -3.4088 -0.9571  1.1552
 6588SOL    HW222397   3.819   3.916   4.194  0.7933  0.1949 -2.0922
 6589SOL     OW22398   9.894   8.764   1.722 -0.2632 -0.8594 -0.3974
 6589SOL    HW122399   9.879   8.849   1.762 -1.7520 -0.5467 -1.5357
 6589SOL    HW222400   9.989   8.753   1.724  0.0161  1.1235 -0.8043
 6590SOL     OW22401   7.288   3.493   1.117 -0.1900 -0.9083  0.5308
 6590SOL    HW122402   7.381   3.487   1.095 -0.2853 -1.3051  0.2222
 6590SOL    HW222403   7.284   3.484   1.212 -0.0458 -2.5116  0.4037
 6591SOL     OW22404   9.457   3.791   4.584 -0.6722  0.6403  0.0763
 6591SOL    HW122405   9.521   3.745   4.528  0.0886  0.4363  1.0908
 6591SOL    HW222406   9.373   3.776   4.541  0.0466  1.8407 -1.9178
 6592SOL     OW22407   5.527   5.855   2.980  0.3242  0.0824  0.3590
 6592SOL    HW122408   5.503   5.780   2.925  1.0030 -1.3952  1.9969
 6592SOL    HW222409   5.524   5.929   2.920 -0.3376 -1.2307 -1.3463
 6593SOL     OW22410   3.019   6.897   3.278  0.0568 -0.2933 -1.0000
 6593SOL    HW122411   3.039   6.815   3.323  0.3486 -0.6802 -1.8115
 6593SOL    HW222412   2.924   6.900   3.274 -0.1451  1.0912  2.0488
 6594SOL     OW22413   1.802   7.327   7.773 -0.4058  0.0984 -0.3207
 6594SOL    HW122414   1.722   7.360   7.814  0.0549 -0.5374  1.1352
 6594SOL    HW222415   1.847   7.280   7.843  0.4297 -1.0041 -1.5622
 6595SOL     OW22416   8.152   0.726   4.923 -0.9386 -0.1063  0.4368
 6595SOL    HW122417   8.246   0.713   4.935 -0.8982 -0.9055 -0.6146
 6595SOL    HW222418   8.111   0.661   4.980 -0.9044  1.1070  1.9043
 6596SOL     OW22419   2.479   0.117   1.759 -0.3148 -0.3632  0.0207
 6596SOL    HW122420   2.468   0.210   1.738 -1.3372 -0.2248  1.0503
 6596SOL    HW222421   2.554   0.089   1.706  0.7389  1.3176  0.5474
 6597SOL     OW22422  10.160   3.298   9.474  0.1185 -0.4223  0.3725
 6597SOL    HW122423  10.173   3.285   9.380 -1.8924 -0.2031  0.0157
 6597SOL    HW222424  10.128   3.213   9.505  0.6265 -0.4446  0.8534
 6598SOL     OW22425   2.843   8.238   0.200 -0.1320  0.0634  0.3499
 6598SOL    HW122426   2.768   8.222   0.143 -0.6485 -0.9938  1.2905
 6598SOL    HW222427   2.805   8.261   0.284  0.6192  2.4813  0.1130
 6599SOL     OW22428   3.967   3.727   7.064  0.0256  0.6790  0.7571
 6599SOL    HW122429   3.998   3.815   7.085  0.0383  0.5416  1.3186
 6599SOL    HW222430   3.959   3.683   7.148  1.1231 -0.2395  0.4057
 6600SOL     OW22431   0.388   3.851   8.601 -0.5754  0.2305 -0.3134
 6600SOL    HW122432   0.313   3.828   8.546 -1.3830  0.9598  0.4349
 6600SOL    HW222433   0.459   3.796   8.569 -1.1802  0.1860 -1.6595
 6601SOL     OW22434   5.739   6.206   1.127  0.5400  0.5941  0.5589
 6601SOL    HW122435   5.746   6.147   1.202 -2.1360 -1.3073 -0.5565
 6601SOL    HW222436   5.667   6.266   1.151 -0.8290 -0.4859 -0.6929
 6602SOL     OW22437  10.114   6.903   3.994 -0.2200  0.0666  0.5127
 6602SOL    HW122438  10.078   6.986   4.026 -1.6512 -0.9709  1.6986
 6602SOL    HW222439  10.087   6.838   4.059 -1.1855 -1.7518 -1.5831
 6603SOL     OW22440   8.410   3.895  10.141 -0.0971  0.3100  0.0940
 6603SOL    HW122441   8.434   3.813  10.185  0.3572 -0.4128 -1.3890
 6603SOL    HW222442   8.457   3.963  10.189  0.3268 -0.4283  0.7486
 6604SOL     OW22443   7.695   3.537   0.233  0.1116  0.2308  0.0125
 6604SOL    HW122444   7.649   3.453   0.231 -1.6611  1.1536  0.3932
 6604SOL    HW222445   7.758   3.527   0.304  0.8227 -1.1915 -0.7648
 6605SOL     OW22446   3.842   6.371   3.258 -0.0967 -0.0599  0.1270
 6605SOL    HW122447   3.819   6.330   3.174 -1.8514 -0.6293  0.8382
 6605SOL    HW222448   3.758   6.389   3.300  0.7250  1.1296  1.3554
 6606SOL     OW22449   6.108   5.552   9.897 -0.1140 -0.0440  0.3707
 6606SOL    HW122450   6.149   5.581   9.979 -0.6289  1.0276  0.2568
 6606SOL    HW222451   6.040   5.490   9.926  0.5158 -0.6132  0.6626
 6607SOL     OW22452   0.207   5.919   6.696 -0.3456 -0.2448 -0.1235
 6607SOL    HW122453   0.272   5.980   6.731  0.5197 -1.2584  0.0957
 6607SOL    HW222454   0.205   5.937   6.602 -0.9210  0.8568  0.0816
 6608SOL     OW22455   9.714   6.208   4.009 -0.1969 -0.1432 -0.0943
 6608SOL    HW122456   9.756   6.294   4.002  0.9441 -0.7887 -1.7657
 6608SOL    HW222457   9.630   6.226   4.051  0.2950  1.6925  0.2008
 6609SOL     OW22458   3.017   1.440   6.597  0.3032 -0.4018  0.0534
 6609SOL    HW122459   2.943   1.452   6.537 -0.3380 -0.6678  0.7846
 6609SOL    HW222460   3.042   1.348   6.586  0.2764 -0.4136  0.0924
 6610SOL     OW22461   3.331   0.983   3.170  0.1706 -0.0885  0.1605
 6610SOL    HW122462   3.263   1.004   3.235 -1.1725 -0.8282 -0.9420
 6610SOL    HW222463   3.287   0.923   3.109  1.6153  0.0109 -1.0169
 6611SOL     OW22464   9.548   9.884   8.645 -0.1674  0.5920 -0.2111
 6611SOL    HW122465   9.563   9.969   8.686 -0.8433  0.5346  0.1741
 6611SOL    HW222466   9.493   9.837   8.707 -0.1131  0.0147 -0.5976
 6612SOL     OW22467   5.250   7.168   2.295  0.3450  0.6383  0.2099
 6612SOL    HW122468   5.296   7.198   2.217 -0.1825  3.0288  0.7505
 6612SOL    HW222469   5.280   7.078   2.307  2.8730  1.2404 -0.9188
 6613SOL     OW22470   1.241   2.277   7.124 -0.0282  0.1033 -0.2351
 6613SOL    HW122471   1.281   2.353   7.166  0.9839 -1.1998  1.3190
 6613SOL    HW222472   1.280   2.275   7.037  1.6858  0.1355  0.4828
 6614SOL     OW22473   8.025   8.852   5.064 -0.9741  0.3073  0.0629
 6614SOL    HW122474   7.934   8.831   5.040 -1.1433 -0.4615  1.3360
 6614SOL    HW222475   8.069   8.768   5.066 -0.6390  0.5046  1.1111
 6615SOL     OW22476   3.816   5.780   2.059  0.3414 -0.8657 -0.5825
 6615SOL    HW122477   3.833   5.744   1.972 -0.1967 -0.7161 -0.7499
 6615SOL    HW222478   3.903   5.802   2.093  0.4904  0.1087 -1.5344
 6616SOL     OW22479   5.978   5.077   2.729 -0.3956 -0.2788 -0.0981
 6616SOL    HW122480   5.950   4.995   2.768 -0.4135 -0.1122  0.2373
 6616SOL    HW222481   5.914   5.141   2.758  1.4447  0.5421  2.4288
 6617SOL     OW22482   0.707   1.469   1.480  0.2507  0.3047  0.2933
 6617SOL    HW122483   0.709   1.555   1.437 -1.9963  0.4777  0.4323
 6617SOL    HW222484   0.633   1.473   1.540 -0.4760 -1.9892 -0.3173
 6618SOL     OW22485   5.156   4.860   9.902  0.3776  0.0664  0.8867
 6618SOL    HW122486   5.243   4.876   9.864  0.2357 -1.1558  0.0013
 6618SOL    HW222487   5.154   4.765   9.918 -1.1764 -0.1035 -0.1037
 6619SOL     OW22488  10.083   7.532   6.961 -0.2484 -0.1360 -0.0701
 6619SOL    HW122489  10.059   7.625   6.969  0.6064  0.3462 -2.4444
 6619SOL    HW222490  10.161   7.523   7.016 -1.2119  0.1294  1.4225
 6620SOL     OW22491   5.893   0.977   9.593  0.2642 -0.4402 -0.0325
 6620SOL    HW122492   5.912   0.892   9.554  1.2001 -0.5652  0.6632
 6620SOL    HW222493   5.827   0.958   9.660  2.1796 -1.0573  1.7770
 6621SOL     OW22494   9.665   8.108   0.580 -0.4589  0.3006  0.0302
 6621SOL    HW122495   9.609   8.177   0.544  0.2849  0.7504 -0.2763
 6621SOL    HW222496   9.668   8.126   0.674 -0.8787  0.2338  0.0583
 6622SOL     OW22497  10.196   3.799   5.016  0.0265 -0.4220  0.3717
 6622SOL    HW122498  10.265   3.850   5.060  1.5374 -0.5705 -1.6768
 6622SOL    HW222499  10.216   3.708   5.037  0.2914 -0.4458  0.0292
 6623SOL     OW22500   7.300   6.502   7.938 -0.2865 -0.4589 -0.2923
 6623SOL    HW122501   7.375   6.555   7.910 -0.9498  0.9920  0.5380
 6623SOL    HW222502   7.225   6.544   7.897 -0.9243 -0.1648  1.0898
 6624SOL     OW22503   1.338   2.281   2.888  0.3945 -0.3918 -0.9897
 6624SOL    HW122504   1.267   2.322   2.938  0.8000  0.0264 -0.7489
 6624SOL    HW222505   1.300   2.264   2.802  0.1851  0.4132 -1.0662
 6625SOL     OW22506   2.604   0.921   8.095  0.4843  0.3324 -0.6822
 6625SOL    HW122507   2.563   0.960   8.172 -0.5356  0.0204 -1.0396
 6625SOL    HW222508   2.697   0.918   8.115  0.2502  0.3841  0.4782
 6626SOL     OW22509   4.056   6.772   3.724 -0.1885 -0.1023  0.1513
 6626SOL    HW122510   4.107   6.691   3.728  1.5196  0.9303  3.4493
 6626SOL    HW222511   4.101   6.826   3.659  0.8693 -0.5060  0.5281
 6627SOL     OW22512   5.288   6.961   8.696  0.1117 -0.5625  0.0492
 6627SOL    HW122513   5.195   6.976   8.678  0.2903 -0.2435 -0.6656
 6627SOL    HW222514   5.312   7.027   8.760 -0.1631 -0.6689  0.2621
 6628SOL     OW22515   0.061  10.237   6.744 -0.7506 -0.2519 -0.4235
 6628SOL    HW122516   0.031  10.147   6.755 -0.4053 -0.2971  0.2395
 6628SOL    HW222517   0.002  10.275   6.679 -1.1571 -0.8382 -0.4010
 6629SOL     OW22518   7.942   2.274   5.453 -0.1054  0.2802 -0.5246
 6629SOL    HW122519   7.909   2.331   5.384  0.8624 -0.2384 -1.4378
 6629SOL    HW222520   7.996   2.332   5.508  1.1096  0.2116 -1.6124
 6630SOL     OW22521   5.462   7.082   1.288 -0.1823  0.0871  0.0621
 6630SOL    HW122522   5.427   7.120   1.368  1.0650  0.1064  0.6247
 6630SOL    HW222523   5.431   6.991   1.289 -0.0405  0.0438  0.6418
 6631SOL     OW22524   0.766   7.307   1.071  0.2578 -0.2155  0.1834
 6631SOL    HW122525   0.688   7.355   1.097  0.2414  0.6726 -1.4157
 6631SOL    HW222526   0.762   7.303   0.975  0.5561 -2.9107  0.2009
 6632SOL     OW22527   5.216   5.751   7.483 -0.1557 -0.2142 -0.5517
 6632SOL    HW122528   5.123   5.758   7.507  0.0217 -1.5866  0.7136
 6632SOL    HW222529   5.215   5.732   7.390 -1.1522 -0.3103 -0.5379
 6633SOL     OW22530   3.888   5.837   7.320  0.3139  0.0308  0.0867
 6633SOL    HW122531   3.909   5.900   7.251  2.6887  0.2786  0.9333
 6633SOL    HW222532   3.890   5.752   7.276  2.3172  0.1418 -0.1118
 6634SOL     OW22533   6.963   2.572   1.522 -0.1314  0.5858  0.2933
 6634SOL    HW122534   6.966   2.629   1.598  0.1203  1.2585 -0.2144
 6634SOL    HW222535   6.870   2.566   1.501 -0.5515 -1.9360  2.3553
 6635SOL     OW22536   2.170   2.161   1.085  0.5163 -0.3941 -0.5568
 6635SOL    HW122537   2.251   2.202   1.055  0.3530 -0.3675 -0.9716
 6635SOL    HW222538   2.196   2.073   1.114  0.3556 -1.3203 -2.9762
 6636SOL     OW22539   5.058   1.820   1.188  0.0441 -0.3615  0.0006
 6636SOL    HW122540   5.096   1.881   1.124  1.2679 -0.6570  0.4106
 6636SOL    HW222541   5.134   1.778   1.229 -0.7576 -1.7239  0.1568
 6637SOL     OW22542   3.274   5.007   0.651 -0.2299  0.4232  0.6360
 6637SOL    HW122543   3.347   5.021   0.591  0.3917 -0.4742  1.1472
 6637SOL    HW222544   3.312   5.021   0.738 -1.0542  1.4472  0.8497
 6638SOL     OW22545   9.767   5.247   2.650 -0.3031 -0.1026  0.0814
 6638SOL    HW122546   9.853   5.262   2.688 -0.1783 -0.2199 -0.1502
 6638SOL    HW222547   9.720   5.329   2.663  0.7992  1.0012 -2.3211
 6639SOL     OW22548   3.302   2.390   1.085  0.1978 -0.4801  0.5495
 6639SOL    HW122549   3.228   2.336   1.060  1.3238 -2.1055  0.5840
 6639SOL    HW222550   3.379   2.337   1.064  1.3202  0.5828  1.7822
 6640SOL     OW22551   0.011   2.217   8.647  0.2273  0.1975 -0.1263
 6640SOL    HW122552  -0.006   2.131   8.685 -0.2181  0.2436 -0.2190
 6640SOL    HW222553   0.018   2.201   8.553  0.9056  0.1488 -0.0739
 6641SOL     OW22554   2.374   5.131   9.061 -0.2449  0.8997  0.9227
 6641SOL    HW122555   2.324   5.166   8.987  0.1967  0.4735  0.4210
 6641SOL    HW222556   2.348   5.186   9.135 -0.3921  1.5846  0.3737
 6642SOL     OW22557   8.530   3.180   6.198  0.6836 -0.5249 -0.0220
 6642SOL    HW122558   8.503   3.099   6.242 -0.4289 -0.8003 -1.1506
 6642SOL    HW222559   8.448   3.220   6.170  1.2255  0.9994  0.4933
 6643SOL     OW22560   1.782   1.406   3.838  0.0781  0.1013 -0.1752
 6643SOL    HW122561   1.781   1.347   3.763  1.3768  0.2080 -0.2915
 6643SOL    HW222562   1.749   1.489   3.803 -1.1001 -0.3422 -0.1685
 6644SOL     OW22563   1.641   6.223   4.327 -0.4905 -0.6987  0.4037
 6644SOL    HW122564   1.672   6.176   4.405 -0.1725  0.3925  0.9728
 6644SOL    HW222565   1.637   6.315   4.356 -1.5225 -0.4348 -0.5250
 6645SOL     OW22566   8.381   8.667   6.360  0.2701 -0.7654 -1.0059
 6645SOL    HW122567   8.315   8.622   6.414 -0.8310  1.0908 -0.7135
 6645SOL    HW222568   8.360   8.642   6.270  0.4110 -1.7376 -0.7754
 6646SOL     OW22569   1.744   2.508   4.997 -0.4440 -0.2260  0.3192
 6646SOL    HW122570   1.743   2.581   4.936  0.7022 -1.1595 -0.8684
 6646SOL    HW222571   1.679   2.531   5.064 -1.2646  1.1074 -0.8959
 6647SOL     OW22572   3.879   4.241   7.798  0.0280  0.1792 -0.0723
 6647SOL    HW122573   3.829   4.317   7.767  1.1139  0.2067 -1.9245
 6647SOL    HW222574   3.854   4.171   7.738  0.3302 -0.4735  0.5620
 6648SOL     OW22575   9.181   5.270   1.039 -0.2189 -0.2010 -0.4070
 6648SOL    HW122576   9.146   5.181   1.036 -2.7939  0.6938  0.3406
 6648SOL    HW222577   9.254   5.266   1.100 -0.9181 -1.6089  0.3710
 6649SOL     OW22578   4.139   3.284   1.942 -0.0675  0.2885 -0.2838
 6649SOL    HW122579   4.191   3.270   2.021 -0.6074  0.4822  0.1136
 6649SOL    HW222580   4.181   3.357   1.897 -0.0408  0.4953  0.0744
 6650SOL     OW22581   7.459   3.881   4.229 -0.1201 -0.5094 -0.1068
 6650SOL    HW122582   7.391   3.946   4.244  0.0981 -0.0260 -1.0859
 6650SOL    HW222583   7.472   3.882   4.134  0.5693 -1.2877 -0.0339
 6651SOL     OW22584   9.855   4.968   1.710 -0.4219 -0.4393 -0.2574
 6651SOL    HW122585   9.807   4.911   1.649 -2.0389  1.8770 -1.2880
 6651SOL    HW222586   9.819   4.945   1.796  0.1797 -2.0944 -0.4029
 6652SOL     OW22587  10.071   6.637   3.177 -0.2082  0.0608  0.4871
 6652SOL    HW122588  10.078   6.690   3.097 -3.7058 -0.5599 -0.3782
 6652SOL    HW222589  10.160   6.605   3.192  0.9047  1.5664 -2.1976
 6653SOL     OW22590   7.441   0.385   6.846  0.3434  0.0236  0.0449
 6653SOL    HW122591   7.393   0.468   6.845  3.3477  1.8896 -0.1865
 6653SOL    HW222592   7.426   0.351   6.934 -1.1343  0.6518  0.0736
 6654SOL     OW22593   8.358   7.098   9.160  0.5534 -0.4861  0.3264
 6654SOL    HW122594   8.379   7.040   9.233 -0.4965 -1.9370 -0.4752
 6654SOL    HW222595   8.344   7.184   9.201 -0.8974 -1.4447  1.9829
 6655SOL     OW22596   9.148   7.722   3.097 -0.1403  0.3199 -0.1915
 6655SOL    HW122597   9.203   7.788   3.139  0.2747  0.7738 -1.4160
 6655SOL    HW222598   9.062   7.763   3.091  0.0518  0.6521 -0.7105
 6656SOL     OW22599   4.464   7.217   3.943  0.1602  0.7809 -0.0783
 6656SOL    HW122600   4.509   7.276   3.882  2.1232 -1.1332 -0.5853
 6656SOL    HW222601   4.470   7.131   3.902  1.3635 -0.5537  2.6414
 6657SOL     OW22602   9.459   9.433   8.684  0.0763  0.3295  0.0411
 6657SOL    HW122603   9.535   9.479   8.649 -0.3345 -0.0723 -1.5024
 6657SOL    HW222604   9.411   9.405   8.606 -1.3969  0.1484  0.9736
 6658SOL     OW22605   2.233   9.056   6.490 -0.6446 -0.1221 -0.1116
 6658SOL    HW122606   2.324   9.086   6.482 -0.0267 -2.1788 -1.5123
 6658SOL    HW222607   2.209   9.076   6.580  1.4561 -0.1694  0.5075
 6659SOL     OW22608   8.246   7.678   9.909  0.0397  0.4755  0.6548
 6659SOL    HW122609   8.190   7.674   9.831 -1.9598 -1.5910  2.0562
 6659SOL    HW222610   8.272   7.770   9.915 -2.5835  1.3905 -0.5521
 6660SOL     OW22611   8.845   4.397   9.229 -0.0718 -0.1916 -0.0676
 6660SOL    HW122612   8.816   4.485   9.205 -0.0729 -0.1105  0.2400
 6660SOL    HW222613   8.784   4.339   9.183  0.6583 -0.0653 -1.2584
 6661SOL     OW22614   9.798   6.144   9.297 -0.0058 -0.1704 -0.5773
 6661SOL    HW122615   9.893   6.135   9.302  0.2787  2.2766 -0.3675
 6661SOL    HW222616   9.768   6.128   9.387  0.2479 -0.4682 -0.5427
 6662SOL     OW22617   5.560   4.310   7.648  0.0530 -0.8991  0.2144
 6662SOL    HW122618   5.548   4.370   7.721 -0.8218 -1.1260  0.2720
 6662SOL    HW222619   5.557   4.223   7.687  0.2269 -1.0047 -0.0066
 6663SOL     OW22620   6.694   4.789   6.692 -0.3739 -0.3991 -0.2668
 6663SOL    HW122621   6.699   4.743   6.608  1.5382  0.3046 -0.5799
 6663SOL    HW222622   6.716   4.723   6.757 -0.6728 -0.6515 -0.4190
 6664SOL     OW22623   6.577   0.074   3.177 -0.0957 -1.0658 -0.0167
 6664SOL    HW122624   6.613   0.120   3.252 -0.7973  1.3703 -1.0691
 6664SOL    HW222625   6.482   0.073   3.192 -0.4917  1.4145 -1.7705
 6665SOL     OW22626   1.153   1.156   3.040 -0.4004 -0.4666  0.2160
 6665SOL    HW122627   1.109   1.141   3.124 -0.0877  0.7169  0.6118
 6665SOL    HW222628   1.098   1.111   2.976 -0.7086 -1.2903  1.0346
 6666SOL     OW22629   0.918   1.161   0.757  0.0407 -0.2979 -0.0625
 6666SOL    HW122630   0.915   1.145   0.663  0.4025 -1.8613  0.1609
 6666SOL    HW222631   0.901   1.075   0.796  0.2799  0.2507  1.3001
 6667SOL     OW22632   2.849   3.100   3.979  0.4527  0.0707 -0.4491
 6667SOL    HW122633   2.757   3.078   3.962 -0.2559  1.2880  1.4889
 6667SOL    HW222634   2.896   3.018   3.964 -0.9935 -0.6705 -1.1625
 6668SOL     OW22635   1.422   5.618   8.570  0.2734  0.3320 -0.4109
 6668SOL    HW122636   1.423   5.711   8.547  0.4156  0.4420  0.0297
 6668SOL    HW222637   1.369   5.613   8.650 -0.1028 -0.0282 -0.6802
 6669SOL     OW22638   7.134   7.288   0.380 -0.2700 -0.4233  0.5218
 6669SOL    HW122639   7.146   7.368   0.431 -1.9366  0.3882 -0.2525
 6669SOL    HW222640   7.209   7.233   0.402  0.5743  1.0846  1.5717
 6670SOL     OW22641   8.357   0.330   9.826 -0.3835 -0.0008 -0.1678
 6670SOL    HW122642   8.265   0.326   9.851 -0.8858  0.8288 -1.7678
 6670SOL    HW222643   8.362   0.404   9.765  1.5014  0.5184  0.5476
 6671SOL     OW22644   6.163   2.711   7.119  1.0902  0.5641  0.2048
 6671SOL    HW122645   6.257   2.694   7.122  0.7765 -1.2803  1.8569
 6671SOL    HW222646   6.123   2.624   7.126 -0.7300  1.4370  1.4225
 6672SOL     OW22647   2.818   8.363   6.238 -0.3016  0.0013 -0.1515
 6672SOL    HW122648   2.806   8.383   6.331  1.5007 -1.0987  0.3810
 6672SOL    HW222649   2.883   8.427   6.208  0.5117 -0.7877 -0.1363
 6673SOL     OW22650   4.184   0.180   4.635  0.1233 -0.3795 -0.2319
 6673SOL    HW122651   4.113   0.122   4.659  0.1302 -0.1559  0.3311
 6673SOL    HW222652   4.259   0.122   4.620 -0.1970 -0.6264 -0.9472
 6674SOL     OW22653   0.950   6.893   9.612  0.0021  0.3473  0.0171
 6674SOL    HW122654   0.864   6.933   9.628 -0.2115  0.2732 -0.9299
 6674SOL    HW222655   1.004   6.924   9.685 -0.6279  0.9883  0.2252
 6675SOL     OW22656   1.844   3.911   7.292  0.8771  0.1460 -0.3022
 6675SOL    HW122657   1.768   3.970   7.285  0.5519 -0.0064  1.4423
 6675SOL    HW222658   1.905   3.958   7.349  0.3392 -1.3835  1.6715
 6676SOL     OW22659   5.686   8.886   3.060  0.0867 -0.5922  0.1216
 6676SOL    HW122660   5.728   8.808   3.095 -0.4262 -0.9052  0.0504
 6676SOL    HW222661   5.753   8.954   3.065  0.8132 -1.2420 -0.6081
 6677SOL     OW22662   5.837   1.244   6.144 -0.3586  0.0188 -0.2804
 6677SOL    HW122663   5.790   1.239   6.061 -0.5258  0.4419 -0.2153
 6677SOL    HW222664   5.902   1.313   6.131 -0.4332  0.1351 -0.0379
 6678SOL     OW22665   6.460   7.822   1.990 -0.5076 -0.4484  0.6265
 6678SOL    HW122666   6.420   7.802   1.905  1.4312 -0.1894 -0.4169
 6678SOL    HW222667   6.426   7.908   2.013 -0.4012 -0.1346 -0.3314
 6679SOL     OW22668   8.301   1.129   0.799 -0.0348 -0.3117  0.7683
 6679SOL    HW122669   8.278   1.211   0.842 -0.9868 -1.1514  1.9191
 6679SOL    HW222670   8.247   1.127   0.720 -0.6460 -0.1976  1.1717
 6680SOL     OW22671   8.619   1.194   5.917 -0.0332 -0.0953  0.2155
 6680SOL    HW122672   8.595   1.149   5.998 -2.6188  2.5538  1.0687
 6680SOL    HW222673   8.658   1.277   5.946  1.6767 -0.2874 -1.3172
 6681SOL     OW22674   6.171   8.232   7.572  0.2397  0.4337  0.0205
 6681SOL    HW122675   6.084   8.232   7.611  0.8890  1.5682  1.6093
 6681SOL    HW222676   6.180   8.319   7.533 -0.2415 -0.5522 -2.4133
 6682SOL     OW22677   6.782   4.483   6.005  0.0780 -0.2487  0.0660
 6682SOL    HW122678   6.782   4.406   5.949 -0.7908 -0.1056 -0.1294
 6682SOL    HW222679   6.795   4.557   5.945 -1.3031 -0.0563 -0.0155
 6683SOL     OW22680   4.406   5.208   2.042  0.3487 -0.8093  0.8489
 6683SOL    HW122681   4.424   5.178   1.953  0.0172 -0.3225  0.6094
 6683SOL    HW222682   4.343   5.145   2.076 -1.2413  0.2037 -0.0632
 6684SOL     OW22683   5.054   5.664   6.765  0.0901 -0.7883 -0.7646
 6684SOL    HW122684   5.142   5.700   6.773 -0.2987  0.3564 -1.3286
 6684SOL    HW222685   5.009   5.693   6.844  0.3706 -1.8702 -0.1925
 6685SOL     OW22686   2.945   0.422   5.312 -0.6446 -0.1972 -0.6115
 6685SOL    HW122687   2.857   0.458   5.308  0.7726  3.8949  0.0905
 6685SOL    HW222688   3.000   0.485   5.265  2.2603 -1.2045  1.1094
 6686SOL     OW22689   6.304   2.602   2.384 -0.1307 -0.4568  0.3946
 6686SOL    HW122690   6.326   2.534   2.321 -1.8808 -0.5407 -0.1842
 6686SOL    HW222691   6.383   2.655   2.392  0.8697 -1.8349 -0.0564
 6687SOL     OW22692   4.637   0.643   7.213  0.6223 -0.5405  0.0048
 6687SOL    HW122693   4.599   0.589   7.143 -0.1077  2.4706 -2.1497
 6687SOL    HW222694   4.573   0.713   7.226  3.0741  1.8457 -0.0330
 6688SOL     OW22695   3.698   8.902   0.035 -0.1570 -0.5030  0.5169
 6688SOL    HW122696   3.689   8.862   0.122  2.2717 -2.1058  0.1345
 6688SOL    HW222697   3.675   8.833  -0.026  1.2972 -0.4658 -0.1269
 6689SOL     OW22698   9.595   5.760   7.325 -0.0165  0.3699  0.3649
 6689SOL    HW122699   9.566   5.742   7.235  1.3543 -0.4412  0.0516
 6689SOL    HW222700   9.614   5.673   7.361  3.6075  0.8365 -0.0532
 6690SOL     OW22701   5.424   8.298   6.674 -0.0818  0.7270  0.1204
 6690SOL    HW122702   5.377   8.235   6.619  2.1469 -0.0969 -0.9676
 6690SOL    HW222703   5.501   8.251   6.704  0.2073  2.0898  1.6539
 6691SOL     OW22704   7.563   0.344   6.443  0.4621  0.3666  0.1512
 6691SOL    HW122705   7.536   0.273   6.385  1.7626  0.6560 -0.8302
 6691SOL    HW222706   7.490   0.406   6.441 -0.4874 -0.7024  0.6635
 6692SOL     OW22707  10.089   7.604   7.319  0.1962 -0.0488  0.1837
 6692SOL    HW122708  10.178   7.576   7.297 -0.4213 -1.8588 -0.1633
 6692SOL    HW222709  10.059   7.652   7.242  0.7814  0.3845  0.2208
 6693SOL     OW22710   7.089   7.414   7.080  0.2033 -0.7354  0.1517
 6693SOL    HW122711   7.171   7.366   7.089  0.9192  0.7916  2.6886
 6693SOL    HW222712   7.032   7.378   7.147 -0.6885 -0.7684 -0.6066
 6694SOL     OW22713   0.500   0.340   1.285 -0.1806  0.2543 -0.3568
 6694SOL    HW122714   0.414   0.382   1.282 -0.3835 -0.1732 -0.5435
 6694SOL    HW222715   0.521   0.335   1.378 -0.5595 -0.0487 -0.2871
 6695SOL     OW22716   5.376   4.975   2.607  0.3052 -0.0747  0.0839
 6695SOL    HW122717   5.438   5.034   2.650 -1.1064  1.8914 -0.3907
 6695SOL    HW222718   5.413   4.888   2.619  2.3699  0.8583  1.0882
 6696SOL     OW22719   3.410   9.113   1.215  0.0879 -0.5866 -0.8002
 6696SOL    HW122720   3.423   9.043   1.151  0.9619  0.8604 -2.2735
 6696SOL    HW222721   3.422   9.194   1.165  1.2053  0.6035  1.2799
 6697SOL     OW22722  10.292   2.147   3.270  0.8378  0.0263  0.4917
 6697SOL    HW122723  10.296   2.224   3.326  1.8144 -0.6328  1.3945
 6697SOL    HW222724  10.253   2.177   3.189 -0.3856  1.0832  1.4291
 6698SOL     OW22725   3.825   3.098   3.703  0.4096  0.2881 -0.4025
 6698SOL    HW122726   3.897   3.161   3.708  0.4065  0.3648 -1.1419
 6698SOL    HW222727   3.762   3.129   3.768  1.2739 -0.1074  0.6659
 6699SOL     OW22728   2.569   6.942   8.263 -0.1414  0.5423  0.4956
 6699SOL    HW122729   2.508   6.868   8.267  1.3435 -0.6951  2.4904
 6699SOL    HW222730   2.522   7.014   8.305 -1.3936  0.6063 -0.9364
 6700SOL     OW22731   9.149   8.459   2.627 -0.0797  0.2075  0.5614
 6700SOL    HW122732   9.184   8.423   2.709 -0.9506 -3.3345 -0.4558
 6700SOL    HW222733   9.054   8.444   2.633 -0.2044  0.2865 -0.8869
 6701SOL     OW22734   6.376   4.213  10.156 -0.0299  0.1403 -0.8449
 6701SOL    HW122735   6.455   4.177  10.196 -1.7722 -0.3748  2.5582
 6701SOL    HW222736   6.399   4.304  10.135  1.5299 -0.0750 -0.2115
 6702SOL     OW22737   0.769   9.728   9.544 -0.4242 -0.0431  0.3641
 6702SOL    HW122738   0.747   9.636   9.526  0.3191 -0.3724  1.0594
 6702SOL    HW222739   0.735   9.744   9.632 -1.5438  0.6931 -0.1969
 6703SOL     OW22740   9.174   8.301   0.831 -0.0589  0.0951  0.2722
 6703SOL    HW122741   9.132   8.225   0.791 -1.2066  0.1475  1.3222
 6703SOL    HW222742   9.215   8.347   0.757 -0.2424 -0.9616 -0.5220
 6704SOL     OW22743   1.590   6.173   2.804 -0.6269 -0.5186 -0.0529
 6704SOL    HW122744   1.582   6.157   2.710 -1.7860 -0.1036 -0.0450
 6704SOL    HW222745   1.507   6.214   2.829 -0.2021 -0.2903  1.0884
 6705SOL     OW22746   5.516   0.288   6.190  0.0764  0.1659 -0.0701
 6705SOL    HW122747   5.427   0.303   6.157  0.3597  0.4784 -0.7082
 6705SOL    HW222748   5.504   0.237   6.270 -0.5612 -1.8921 -1.4134
 6706SOL     OW22749   9.312   9.165   2.030 -0.3642 -0.2562  0.2016
 6706SOL    HW122750   9.358   9.249   2.024  0.1983 -0.5579  0.2332
 6706SOL    HW222751   9.336   9.118   1.949 -0.9767 -0.2409  0.0031
 6707SOL     OW22752   7.328   1.603   1.622  0.0393 -0.0506  0.1286
 6707SOL    HW122753   7.407   1.594   1.676 -0.1964 -1.7952  0.2443
 6707SOL    HW222754   7.268   1.537   1.656 -0.7517 -0.0449 -1.1811
 6708SOL     OW22755   1.651   3.610   9.517 -1.0821  0.0160  0.2969
 6708SOL    HW122756   1.731   3.649   9.553  0.3908 -0.9129 -1.7544
 6708SOL    HW222757   1.582   3.641   9.575  0.5963  1.7982  1.5136
 6709SOL     OW22758   8.283   7.055  10.160  0.0629 -0.2852  0.0889
 6709SOL    HW122759   8.373   7.025  10.148  0.3996  0.9287 -0.6003
 6709SOL    HW222760   8.290   7.150  10.166 -1.1075 -0.2239  0.7763
 6710SOL     OW22761   6.255   3.332   0.875 -0.1474  0.3853 -1.0770
 6710SOL    HW122762   6.330   3.279   0.847 -0.1622 -0.3504  0.1996
 6710SOL    HW222763   6.220   3.285   0.951  0.1821  2.5328  0.4817
 6711SOL     OW22764  10.088   4.797   3.833  0.4954 -0.3445 -0.0300
 6711SOL    HW122765  10.179   4.822   3.848  0.3189  1.0717 -1.1243
 6711SOL    HW222766  10.047   4.875   3.795 -1.4041 -0.6701  1.1941
 6712SOL     OW22767   9.800   1.787   0.921 -0.0317  0.3783  0.2846
 6712SOL    HW122768   9.737   1.839   0.872 -0.7297 -0.1190  0.6322
 6712SOL    HW222769   9.750   1.749   0.993  0.2175 -1.5049 -0.4597
 6713SOL     OW22770   9.059   9.214  10.283 -0.1170  0.1507 -0.5328
 6713SOL    HW122771   9.090   9.215  10.373  2.2229 -0.5908 -1.2336
 6713SOL    HW222772   9.082   9.301  10.249  1.8732 -0.5565 -1.1888
 6714SOL     OW22773   8.647   3.388   7.574 -0.2112  0.7032 -0.3795
 6714SOL    HW122774   8.674   3.315   7.629 -0.9058  1.3616  0.8673
 6714SOL    HW222775   8.707   3.384   7.499  1.3311  0.3040  0.8183
 6715SOL     OW22776   1.702   7.682   8.689 -0.5265 -0.6920  0.2126
 6715SOL    HW122777   1.751   7.711   8.766 -0.0215  2.5641 -1.1914
 6715SOL    HW222778   1.769   7.660   8.624 -0.7306  2.4342 -1.2420
 6716SOL     OW22779   8.425   1.534   5.762  0.3739  0.0318  0.5521
 6716SOL    HW122780   8.420   1.439   5.755 -0.2225 -0.0146  1.3982
 6716SOL    HW222781   8.380   1.568   5.685  0.9246 -0.3693  0.0533
 6717SOL     OW22782   1.241   4.796   1.956  0.3954  0.4866  0.0873
 6717SOL    HW122783   1.249   4.835   2.043  0.9867  0.7817 -0.0905
 6717SOL    HW222784   1.303   4.845   1.903 -1.0732  1.3469 -0.8847
 6718SOL     OW22785   2.786   0.108   0.004  0.1268  0.1839 -0.0800
 6718SOL    HW122786   2.848   0.145   0.068  2.3445  1.3064 -2.6421
 6718SOL    HW222787   2.747   0.185  -0.038 -1.7879 -0.5292  0.3024
 6719SOL     OW22788   9.768   1.014   2.850 -0.0023  0.1455  0.1478
 6719SOL    HW122789   9.724   1.004   2.935 -1.0903  1.0200 -0.2909
 6719SOL    HW222790   9.748   1.103   2.823  1.7865  0.4592 -0.2512
 6720SOL     OW22791   8.222   0.741   8.340 -0.2131 -0.7124  0.2184
 6720SOL    HW122792   8.148   0.730   8.399 -0.4673 -0.3332 -0.0247
 6720SOL    HW222793   8.186   0.788   8.265  0.3407 -0.2714  0.2249
 6721SOL     OW22794   1.973   4.910   1.288  0.3177  0.1992 -0.1754
 6721SOL    HW122795   1.888   4.871   1.271 -0.1905  1.8541 -1.6835
 6721SOL    HW222796   1.964   4.951   1.374 -1.2671  2.4274 -1.3237
 6722SOL     OW22797   9.252   4.362   0.080 -0.4974 -0.3712  0.5551
 6722SOL    HW122798   9.175   4.404   0.042  0.1229  1.7012  1.4241
 6722SOL    HW222799   9.227   4.270   0.090 -2.1909 -0.1185 -0.8074
 6723SOL     OW22800   1.624  10.284   6.685  0.2113 -0.7328 -0.5375
 6723SOL    HW122801   1.654  10.200   6.651  0.3550 -0.6366 -0.6472
 6723SOL    HW222802   1.684  10.348   6.648  0.2905 -0.6124 -0.2064
 6724SOL     OW22803   5.445   8.825   9.414 -0.0280  0.3566 -0.8831
 6724SOL    HW122804   5.470   8.738   9.383  3.0113  0.4109  0.9222
 6724SOL    HW222805   5.427   8.813   9.507  3.2312  1.9361  0.1049
 6725SOL     OW22806  10.280   6.787   1.416  0.0804 -0.4634  0.0280
 6725SOL    HW122807  10.359   6.740   1.442 -0.2262 -0.2001  1.5327
 6725SOL    HW222808  10.210   6.721   1.422 -0.1200 -0.1995  0.7057
 6726SOL     OW22809   3.728  10.004   8.073  0.0604  0.2533 -0.1407
 6726SOL    HW122810   3.638  10.034   8.088  0.6070  0.8992  2.3381
 6726SOL    HW222811   3.723   9.909   8.080 -0.1952  0.3687  2.0709
 6727SOL     OW22812  10.207   6.654   4.142 -0.1702 -0.1275 -0.2318
 6727SOL    HW122813  10.194   6.579   4.200  0.4142  0.7686  1.1252
 6727SOL    HW222814  10.257   6.717   4.196 -0.3427  1.0829 -1.4376
 6728SOL     OW22815   6.101   3.397   8.120  0.1629  0.4319 -0.3603
 6728SOL    HW122816   6.065   3.445   8.045  0.5067  2.8964  0.9447
 6728SOL    HW222817   6.034   3.332   8.141 -0.8524  1.0369 -1.5743
 6729SOL     OW22818   2.458   1.037   8.331  0.5041  0.2052  0.6341
 6729SOL    HW122819   2.444   1.131   8.318  0.7150  0.1613  0.0501
 6729SOL    HW222820   2.370   1.002   8.344  0.1257  0.1182 -1.7507
 6730SOL     OW22821   4.718   3.792   4.376 -0.0513  0.3684 -0.2754
 6730SOL    HW122822   4.674   3.843   4.308  1.3441  0.6390 -1.0182
 6730SOL    HW222823   4.772   3.730   4.328  2.2720  1.6760  0.4911
 6731SOL     OW22824   1.068   3.940   9.549  0.3823 -0.4069 -0.1607
 6731SOL    HW122825   1.010   3.924   9.623  0.2736 -1.1515 -0.3968
 6731SOL    HW222826   1.048   4.029   9.522 -2.0927 -1.2539 -1.4427
 6732SOL     OW22827   6.606   2.299   2.450 -0.2488 -0.3730  0.4985
 6732SOL    HW122828   6.530   2.288   2.507  0.2245 -0.0544  1.2009
 6732SOL    HW222829   6.581   2.256   2.368 -2.4982  2.5008 -0.5054
 6733SOL     OW22830   6.227   3.021   7.837 -0.4180  0.0710  0.4567
 6733SOL    HW122831   6.190   2.937   7.810  0.9470 -0.9754  1.7399
 6733SOL    HW222832   6.155   3.084   7.824 -1.6394 -1.3697  0.0081
 6734SOL     OW22833   9.851  10.257   2.846 -0.3691 -0.2147 -0.2475
 6734SOL    HW122834   9.883  10.174   2.810 -0.7094 -0.3742 -0.1900
 6734SOL    HW222835   9.899  10.324   2.798 -0.0887 -0.4456 -0.2940
 6735SOL     OW22836   4.871   7.715   8.527  0.4419 -0.0795 -0.3325
 6735SOL    HW122837   4.861   7.797   8.479 -1.8244 -0.5080 -0.6903
 6735SOL    HW222838   4.873   7.647   8.459  1.8886 -0.3831 -0.0192
 6736SOL     OW22839   2.137   4.687   2.954  0.0369  0.2321 -0.0528
 6736SOL    HW122840   2.104   4.632   2.883  1.5454  0.2473 -0.7987
 6736SOL    HW222841   2.160   4.625   3.024 -0.6144  0.1469  0.0966
 6737SOL     OW22842   9.792   4.029   5.522  0.1362  0.0519 -0.2312
 6737SOL    HW122843   9.871   3.986   5.491  0.1512  0.8280 -1.3320
 6737SOL    HW222844   9.757   4.074   5.445 -1.9495 -1.1045 -0.0448
 6738SOL     OW22845   1.551   6.189   2.545 -0.0991  0.0972 -0.3828
 6738SOL    HW122846   1.626   6.184   2.486  1.2247  1.6858  1.0810
 6738SOL    HW222847   1.485   6.238   2.496  0.0521 -0.6764 -1.4040
 6739SOL     OW22848   2.082   6.966   3.317 -0.2848  0.1980 -0.0366
 6739SOL    HW122849   2.066   6.872   3.327  0.0776  0.2774  1.6923
 6739SOL    HW222850   2.020   6.993   3.249  0.3786 -1.4608 -1.3912
 6740SOL     OW22851   5.858   4.603   2.947 -0.0014  0.1853 -0.3184
 6740SOL    HW122852   5.901   4.524   2.914  0.3924  0.2137  0.1238
 6740SOL    HW222853   5.895   4.616   3.034  1.7974  2.2339 -1.2990
 6741SOL     OW22854   5.849   5.696   2.896 -0.4170  0.1434 -0.5647
 6741SOL    HW122855   5.918   5.747   2.939 -1.4704  0.5740  0.6902
 6741SOL    HW222856   5.887   5.609   2.884  0.1192  0.1719  0.7741
 6742SOL     OW22857   6.844   5.464   8.526  0.0118  0.5389 -0.3240
 6742SOL    HW122858   6.901   5.410   8.581  0.6503  0.9615 -0.5657
 6742SOL    HW222859   6.756   5.444   8.557  0.3077  0.1233  0.2747
 6743SOL     OW22860   3.949   1.097   3.112 -0.1273 -0.4561 -0.2280
 6743SOL    HW122861   4.031   1.058   3.142 -0.0196  0.3443  0.5657
 6743SOL    HW222862   3.881   1.049   3.159  0.0015  0.2407  0.6968
 6744SOL     OW22863   9.082   6.186   0.450  0.0037  0.0910  0.0803
 6744SOL    HW122864   9.095   6.239   0.372  3.5721  1.1071  1.1570
 6744SOL    HW222865   9.066   6.098   0.417 -0.7962  0.8698 -1.7459
 6745SOL     OW22866   4.937   3.316   1.419 -0.0858 -0.3755 -0.4585
 6745SOL    HW122867   4.958   3.234   1.374  0.4324  0.2018 -1.3005
 6745SOL    HW222868   4.864   3.352   1.368 -0.6612 -0.5655  0.2246
 6746SOL     OW22869   4.106   8.840   5.700 -0.1848  0.3940  0.1536
 6746SOL    HW122870   4.179   8.838   5.763 -0.9117 -2.0804  1.0319
 6746SOL    HW222871   4.149   8.845   5.614  0.9138  1.0892  0.7132
 6747SOL     OW22872   9.085   1.362   9.486 -1.0323 -0.1256  0.4287
 6747SOL    HW122873   9.166   1.351   9.537  0.1555 -0.5277 -1.4263
 6747SOL    HW222874   9.056   1.451   9.506 -0.8085 -0.3731  2.0222
 6748SOL     OW22875   0.338   8.523   0.581  0.2187  0.5910 -0.0427
 6748SOL    HW122876   0.286   8.590   0.625 -0.0061  0.6349 -0.3758
 6748SOL    HW222877   0.301   8.440   0.611 -0.3091  0.6215 -0.5847
 6749SOL     OW22878   3.376   3.583   8.291  0.0012  0.3291 -0.2196
 6749SOL    HW122879   3.397   3.576   8.197 -1.3391  0.2774 -0.5268
 6749SOL    HW222880   3.375   3.493   8.322  2.3782  0.4060  0.3365
 6750SOL     OW22881   8.198   2.899   9.769 -0.2659  0.0958  0.2615
 6750SOL    HW122882   8.219   2.828   9.708  2.4128  1.5347 -0.6378
 6750SOL    HW222883   8.143   2.959   9.718 -2.8907 -1.4003  1.1497
 6751SOL     OW22884   9.051   4.867   3.851 -0.0400 -0.0248 -0.1591
 6751SOL    HW122885   9.009   4.815   3.783 -0.5327 -0.9200  0.7944
 6751SOL    HW222886   8.982   4.880   3.917  0.9227 -0.8042  1.0464
 6752SOL     OW22887   2.534   7.728   7.398 -0.8038  0.2948 -0.2170
 6752SOL    HW122888   2.573   7.772   7.474  2.9974  0.0485 -1.7921
 6752SOL    HW222889   2.535   7.793   7.329 -0.0960 -0.6687 -1.1554
 6753SOL     OW22890   0.011   7.565   8.929  0.5155 -0.4454 -0.4969
 6753SOL    HW122891   0.052   7.520   9.003 -1.4379  0.9920  1.5864
 6753SOL    HW222892  -0.006   7.496   8.866  1.2444 -1.9344  0.8430
 6754SOL     OW22893   7.944   6.819   0.377  0.3910  0.3209 -0.0741
 6754SOL    HW122894   7.961   6.808   0.283  1.8733 -0.3522  0.2397
 6754SOL    HW222895   7.865   6.768   0.393  1.1617 -1.1181 -0.6517
 6755SOL     OW22896   8.970  10.282   1.660 -0.6262  0.1806  0.3424
 6755SOL    HW122897   8.951  10.205   1.606  2.0640  0.3546 -1.0530
 6755SOL    HW222898   8.994  10.350   1.596  2.6196  0.4301  1.6316
 6756SOL     OW22899   8.288   7.783   2.043 -0.7668  0.0174  0.0602
 6756SOL    HW122900   8.272   7.723   1.970 -1.7656  0.4870 -0.1204
 6756SOL    HW222901   8.286   7.870   2.003 -0.3638  0.2327  0.4949
 6757SOL     OW22902   0.872   9.226   9.563  0.3067 -0.3273 -0.2662
 6757SOL    HW122903   0.952   9.268   9.532  0.6618 -1.3232 -0.7102
 6757SOL    HW222904   0.844   9.170   9.490 -1.0364  0.3191 -0.2961
 6758SOL     OW22905   4.652   3.412   2.398  0.7034  0.0251 -0.5717
 6758SOL    HW122906   4.746   3.420   2.383  0.5746  0.3494 -1.2420
 6758SOL    HW222907   4.615   3.494   2.365  0.1553 -0.2200 -0.5870
 6759SOL     OW22908   0.752   8.025   3.290 -0.1322 -0.1346  0.0529
 6759SOL    HW122909   0.685   8.086   3.260 -1.2785 -1.1138  0.5283
 6759SOL    HW222910   0.832   8.077   3.295 -1.2470  1.5779  1.3446
 6760SOL     OW22911   1.172   5.301   7.670 -0.5764 -0.3579  0.3124
 6760SOL    HW122912   1.157   5.395   7.678  0.7776 -0.2513  2.4224
 6760SOL    HW222913   1.085   5.263   7.669 -1.1497  0.8957 -0.6422
 6761SOL     OW22914   1.445   4.253   5.183  0.0886 -0.4979  0.2934
 6761SOL    HW122915   1.508   4.323   5.168  0.1222 -0.6767 -0.4469
 6761SOL    HW222916   1.487   4.175   5.149 -0.2962 -0.7250  0.3287
 6762SOL     OW22917   9.691   6.379   5.908  0.0930  0.4939 -0.2670
 6762SOL    HW122918   9.630   6.337   5.968  1.1424  0.2405  0.6433
 6762SOL    HW222919   9.771   6.328   5.915  0.6701  1.2818 -0.8703
 6763SOL     OW22920   1.013   6.937   8.250  0.1254  0.5461 -0.0602
 6763SOL    HW122921   0.950   6.871   8.223  0.1825  0.3495  0.2814
 6763SOL    HW222922   0.965   6.995   8.309 -0.0983  1.1900 -0.8558
 6764SOL     OW22923   8.734   3.384   1.605 -0.0541 -0.1798 -0.4168
 6764SOL    HW122924   8.794   3.319   1.641  0.4808  1.0401  1.0045
 6764SOL    HW222925   8.732   3.365   1.511  0.9199 -1.5470 -0.1996
 6765SOL     OW22926   9.298   4.062   8.761  0.0762  0.3139 -0.0593
 6765SOL    HW122927   9.208   4.095   8.759 -0.1380 -0.3131 -1.2618
 6765SOL    HW222928   9.293   3.976   8.719  1.6245  1.3394 -2.5789
 6766SOL     OW22929   7.133   9.100   8.651  0.0368  0.0518 -0.1652
 6766SOL    HW122930   7.044   9.094   8.616  0.2996 -0.1234 -0.8214
 6766SOL    HW222931   7.160   9.008   8.662  1.2551  0.0061 -2.9070
 6767SOL     OW22932   5.809   1.671   0.512  0.0338  0.5193 -0.5775
 6767SOL    HW122933   5.793   1.613   0.438 -1.0047 -0.4618  0.3599
 6767SOL    HW222934   5.722   1.693   0.544  0.4531  1.4481 -0.0436
 6768SOL     OW22935   7.491   0.147  10.194  0.2219  0.4596 -0.8046
 6768SOL    HW122936   7.438   0.208  10.245  0.6565  0.1295  0.0686
 6768SOL    HW222937   7.535   0.202  10.130  0.7562  1.1063  0.0892
 6769SOL     OW22938   5.081   1.317   1.600  0.1406  0.3088 -0.2830
 6769SOL    HW122939   4.986   1.323   1.607  0.1458  1.4382 -0.8782
 6769SOL    HW222940   5.098   1.225   1.583 -0.8637  0.1242 -0.3510
 6770SOL     OW22941   1.551   1.980   2.688 -0.0332 -0.2591 -0.4949
 6770SOL    HW122942   1.456   1.975   2.678 -0.1445 -0.1649  0.4019
 6770SOL    HW222943   1.578   1.890   2.703  0.0984 -0.3624 -1.2939
 6771SOL     OW22944   5.071   5.062   6.743 -0.4704  0.8041 -0.5027
 6771SOL    HW122945   5.040   5.007   6.815 -1.4864  0.4676 -1.1841
 6771SOL    HW222946   5.143   5.112   6.781  0.5916 -1.0985  0.0792
 6772SOL     OW22947   3.923   9.029   9.251  0.5247 -0.5043  0.0819
 6772SOL    HW122948   3.873   8.947   9.251  0.9842 -0.8315  1.7965
 6772SOL    HW222949   3.933   9.050   9.344  2.2511  0.3621 -0.2620
 6773SOL     OW22950   3.753   8.405   3.108 -0.3738  0.0773  0.3421
 6773SOL    HW122951   3.692   8.431   3.039 -1.3873  1.3608  1.6773
 6773SOL    HW222952   3.699   8.362   3.174  0.3501  0.1532  1.0079
 6774SOL     OW22953   6.429   2.808   8.161  0.5516  0.5866  0.5824
 6774SOL    HW122954   6.370   2.734   8.148  0.0764  1.0451  0.0595
 6774SOL    HW222955   6.517   2.770   8.157  0.2977 -0.0979  1.3240
 6775SOL     OW22956   7.414   6.770   7.057  0.2709  0.2941 -0.2357
 6775SOL    HW122957   7.435   6.702   6.993  1.2063  1.8742 -1.6687
 6775SOL    HW222958   7.348   6.824   7.015 -1.0686 -0.1284  1.2109
 6776SOL     OW22959   3.227   0.320   5.904  0.1615 -0.0034  0.4748
 6776SOL    HW122960   3.144   0.326   5.952 -1.2758 -0.8120 -1.7876
 6776SOL    HW222961   3.233   0.228   5.878  1.5150  0.1728  0.1073
 6777SOL     OW22962   5.633   3.547   2.991  0.3163  0.1639  0.2132
 6777SOL    HW122963   5.658   3.626   2.944  0.8084  0.4858  1.0028
 6777SOL    HW222964   5.552   3.519   2.949  0.8852  0.2912 -0.9888
 6778SOL     OW22965   0.820   7.105   0.032 -0.3027 -0.3440  0.1142
 6778SOL    HW122966   0.868   7.174   0.080 -0.3206 -0.9868  1.0867
 6778SOL    HW222967   0.822   7.030   0.091 -1.4923 -0.7536 -0.3436
 6779SOL     OW22968   3.995   9.828  10.111  0.3764 -0.3739 -0.9004
 6779SOL    HW122969   3.900   9.832  10.127  0.5294 -2.1020  0.8091
 6779SOL    HW222970   4.028   9.912  10.143 -0.6279  0.5734 -2.2226
 6780SOL     OW22971   2.778   3.809   0.907  0.1177  0.0073 -0.1930
 6780SOL    HW122972   2.799   3.716   0.912 -1.4634 -0.3921 -0.2893
 6780SOL    HW222973   2.682   3.813   0.914 -0.0207  1.4856 -1.8555
 6781SOL     OW22974   1.711   9.254   0.989  0.3807  0.5023 -0.1824
 6781SOL    HW122975   1.792   9.272   0.941 -0.0707  1.9986 -0.4485
 6781SOL    HW222976   1.642   9.292   0.935 -0.3318  0.5844  0.7579
 6782SOL     OW22977   3.948   3.144   8.199 -0.0807 -0.5376  0.3429
 6782SOL    HW122978   3.924   3.086   8.272 -0.0096 -2.0673 -0.7898
 6782SOL    HW222979   3.866   3.183   8.171  0.0502  1.1355  2.0363
 6783SOL     OW22980   0.967   5.183   2.849 -0.1688  0.1650  0.1032
 6783SOL    HW122981   0.942   5.261   2.898  1.1873  1.4259 -1.1208
 6783SOL    HW222982   0.909   5.182   2.773  0.7224  0.7878 -0.6029
 6784SOL     OW22983   8.696   6.716   3.723 -0.2117  0.1865  0.0577
 6784SOL    HW122984   8.667   6.629   3.753  0.2429  0.7755  2.4373
 6784SOL    HW222985   8.751   6.749   3.794  1.7096  1.4393 -1.8671
 6785SOL     OW22986   3.593   5.993   6.831  0.0653  0.3638 -0.9754
 6785SOL    HW122987   3.686   5.980   6.850  0.1131  0.8156 -0.8683
 6785SOL    HW222988   3.582   6.088   6.834 -0.3674  0.3199 -1.1451
 6786SOL     OW22989   2.241   1.965   9.475  0.0912 -0.5753  0.3170
 6786SOL    HW122990   2.158   1.988   9.518  0.1899 -0.3940  0.4115
 6786SOL    HW222991   2.215   1.944   9.385  0.0316  0.2117  0.1422
 6787SOL     OW22992  10.031   1.373   4.403 -0.3493  0.2178  0.1053
 6787SOL    HW122993   9.945   1.353   4.369 -0.1375  1.2107 -1.0759
 6787SOL    HW222994  10.045   1.465   4.381  0.4206  0.4969  1.5750
 6788SOL     OW22995   8.323   2.764   3.436 -0.3502  0.0375 -0.1656
 6788SOL    HW122996   8.259   2.775   3.365 -1.8719 -1.8628  0.8238
 6788SOL    HW222997   8.374   2.687   3.410 -0.8245 -0.5825  0.6804
 6789SOL     OW22998   2.368   5.128   7.024 -0.0899  0.3189 -0.1731
 6789SOL    HW122999   2.273   5.123   7.025 -0.0833 -0.2435  1.5823
 6789SOL    HW223000   2.398   5.037   7.022  0.3683  0.4332  0.6429
 6790SOL     OW23001   6.339   3.075   1.355 -0.0652 -0.0237 -0.7990
 6790SOL    HW123002   6.374   3.164   1.348 -0.7263  0.3020 -0.1157
 6790SOL    HW223003   6.298   3.072   1.441 -0.7479 -0.7403 -1.1355
 6791SOL     OW23004   1.366   8.616   1.236  0.1532 -0.1340 -0.2572
 6791SOL    HW123005   1.355   8.646   1.326 -0.4190  0.5484 -0.5445
 6791SOL    HW223006   1.326   8.685   1.183  1.4774  0.0127 -1.0982
 6792SOL     OW23007   2.034   7.229   9.942 -0.1734  0.4528 -0.3301
 6792SOL    HW123008   1.964   7.254   9.883 -0.3602  0.5879 -0.0505
 6792SOL    HW223009   2.114   7.239   9.889 -0.4703 -1.2906 -1.1860
 6793SOL     OW23010   6.189   8.744   0.999  0.5467  0.0937  0.2386
 6793SOL    HW123011   6.168   8.652   0.986  0.4745 -0.1595  1.9713
 6793SOL    HW223012   6.145   8.789   0.926  0.0058 -1.1584 -0.2292
 6794SOL     OW23013   0.859   3.317   4.271 -0.1393 -0.4070  0.6255
 6794SOL    HW123014   0.869   3.403   4.231 -0.2528  0.0169  1.5049
 6794SOL    HW223015   0.919   3.261   4.222 -0.9607 -0.1295 -0.7811
 6795SOL     OW23016   7.720   0.144   1.711 -0.2483 -0.6925  0.0997
 6795SOL    HW123017   7.653   0.148   1.643 -0.8037  2.0962  0.6849
 6795SOL    HW223018   7.796   0.188   1.672 -0.5766  0.9520  1.1948
 6796SOL     OW23019   6.337   1.160   8.805  0.1311  0.1131 -0.3305
 6796SOL    HW123020   6.326   1.141   8.898 -0.0115  3.2920  0.4521
 6796SOL    HW223021   6.430   1.147   8.789  0.2493 -0.0296  0.3984
 6797SOL     OW23022   7.521   9.827   1.292  0.3028  0.1229 -0.2772
 6797SOL    HW123023   7.517   9.796   1.382 -1.2257 -0.9469 -0.6497
 6797SOL    HW223024   7.610   9.806   1.263  0.1009 -1.7493  0.2769
 6798SOL     OW23025   3.559   0.368   1.679 -0.0269  0.2610  0.1919
 6798SOL    HW123026   3.637   0.394   1.728 -0.6177  2.4786  0.0827
 6798SOL    HW223027   3.569   0.274   1.665  1.0723 -0.1039  2.9172
 6799SOL     OW23028   1.728   3.361   0.696 -0.4970  0.3128 -0.1752
 6799SOL    HW123029   1.693   3.445   0.665 -0.7884  0.9051  1.6425
 6799SOL    HW223030   1.805   3.385   0.747 -0.7969 -0.4827  0.6733
 6800SOL     OW23031   8.697   4.775   8.575  0.1895  0.4010  0.1822
 6800SOL    HW123032   8.703   4.680   8.579 -0.6746  0.3667  1.7875
 6800SOL    HW223033   8.713   4.797   8.483  3.1902 -1.0326  0.2527
 6801SOL     OW23034   1.478   4.579   5.458  0.2927  0.4935 -0.2637
 6801SOL    HW123035   1.424   4.574   5.379 -0.1972 -0.0502  0.1073
 6801SOL    HW223036   1.568   4.569   5.425  0.0873  0.1929 -0.7484
 6802SOL     OW23037   4.484   3.455   1.908  0.3233  0.3680  0.1360
 6802SOL    HW123038   4.563   3.404   1.887  0.0259 -0.9602  1.9487
 6802SOL    HW223039   4.479   3.452   2.003 -0.8804  2.0986  0.1718
 6803SOL     OW23040   6.445   5.246   8.270  0.2141 -0.0259 -0.5043
 6803SOL    HW123041   6.516   5.218   8.213  1.7549  0.2723  1.1976
 6803SOL    HW223042   6.485   5.307   8.332 -1.5664  0.3380  0.3646
 6804SOL     OW23043   5.241   6.795   1.804  0.4330  0.7267 -0.5928
 6804SOL    HW123044   5.317   6.797   1.747  0.9948  1.9990  0.1686
 6804SOL    HW223045   5.276   6.801   1.893 -0.4955  0.2176 -0.1715
 6805SOL     OW23046   7.072   1.906   1.990  0.0576 -0.3066  0.3864
 6805SOL    HW123047   7.103   1.871   2.074  0.0652  0.9529  0.9203
 6805SOL    HW223048   6.982   1.875   1.983  0.2033 -0.8050  0.6232
 6806SOL     OW23049   8.559   0.642   5.625 -0.5159 -0.1714 -0.2086
 6806SOL    HW123050   8.532   0.728   5.654 -2.8908 -0.8530 -0.1927
 6806SOL    HW223051   8.484   0.607   5.578  1.3710 -1.1423 -2.7471
 6807SOL     OW23052   5.761   3.456   0.489 -0.0782  0.4957 -0.2131
 6807SOL    HW123053   5.736   3.389   0.552 -0.7676 -0.5525 -1.5527
 6807SOL    HW223054   5.703   3.530   0.509  0.5676  0.6539  1.1640
 6808SOL     OW23055   3.411   0.795   7.444 -0.3767  0.4484 -0.3747
 6808SOL    HW123056   3.342   0.748   7.396 -1.1501  1.2490 -0.0927
 6808SOL    HW223057   3.412   0.882   7.404  0.0505  0.6304  0.0292
 6809SOL     OW23058   8.336   2.852   7.989 -0.5000 -0.5548 -0.2369
 6809SOL    HW123059   8.304   2.910   7.920 -3.2017  0.4421  1.6584
 6809SOL    HW223060   8.275   2.779   7.988 -1.1693 -0.0747  1.5989
 6810SOL     OW23061   4.082   1.590   7.028  0.3333  1.0319  0.0376
 6810SOL    HW123062   4.086   1.650   6.954 -1.2949  1.0159 -0.1160
 6810SOL    HW223063   4.081   1.647   7.105 -1.4186  1.2821 -0.1154
 6811SOL     OW23064   7.573   9.440   2.305  0.0887 -0.0251  0.4714
 6811SOL    HW123065   7.601   9.380   2.237 -2.7331  0.1601 -0.9745
 6811SOL    HW223066   7.615   9.523   2.283 -2.5327  0.6878 -2.6021
 6812SOL     OW23067   2.088  10.334   8.784 -0.1590  0.4300  0.5381
 6812SOL    HW123068   2.019  10.273   8.811  0.3693 -0.8760 -0.9091
 6812SOL    HW223069   2.139  10.286   8.719  1.9514  1.4675  1.3297
 6813SOL     OW23070   8.202   6.247   7.171 -0.6821 -0.2253  0.0000
 6813SOL    HW123071   8.123   6.285   7.133 -0.1974  1.0861  0.2426
 6813SOL    HW223072   8.274   6.296   7.131  0.1172 -2.2324 -1.1618
 6814SOL     OW23073   5.053   8.545   9.735  0.0258 -0.3827 -0.4558
 6814SOL    HW123074   5.084   8.629   9.768 -1.8072  0.0469  0.2880
 6814SOL    HW223075   5.028   8.496   9.813 -0.0312 -1.1605 -0.9496
 6815SOL     OW23076   0.732   1.115   4.739 -0.3320 -0.2411  0.1615
 6815SOL    HW123077   0.719   1.124   4.645 -0.7196 -1.1479  0.1123
 6815SOL    HW223078   0.645   1.094   4.773 -0.3447  0.8376  0.8335
 6816SOL     OW23079   9.701   8.334   4.235  0.2140  0.0766  0.6464
 6816SOL    HW123080   9.768   8.391   4.274 -0.3000  0.0285  1.6371
 6816SOL    HW223081   9.730   8.245   4.258 -0.1410  0.0528  1.0065
 6817SOL     OW23082  10.215   0.252  10.159 -0.0709  0.3542  0.7464
 6817SOL    HW123083  10.207   0.298  10.076 -1.4494  0.7373  1.0675
 6817SOL    HW223084  10.160   0.174  10.149 -0.5046  0.5699  1.4127
 6818SOL     OW23085   6.108   7.675   9.950 -0.0769 -0.2699  0.4177
 6818SOL    HW123086   6.076   7.585   9.940 -0.0406 -0.4824  2.0273
 6818SOL    HW223087   6.028   7.729   9.950 -0.0695 -0.1869 -1.2162
 6819SOL     OW23088   0.852   3.125   8.766  0.2444 -0.1541 -0.5152
 6819SOL    HW123089   0.827   3.160   8.681 -0.9092  0.1857 -0.0544
 6819SOL    HW223090   0.928   3.070   8.748 -0.0547 -0.1778 -1.7808
 6820SOL     OW23091   6.292   3.694  10.265  0.0734  0.0754  0.5464
 6820SOL    HW123092   6.205   3.723  10.238 -0.1841 -1.0706  0.0846
 6820SOL    HW223093   6.344   3.697  10.185 -0.6675 -3.2477 -0.2159
 6821SOL     OW23094   3.662   6.546   7.095 -0.3691  0.3335  0.1648
 6821SOL    HW123095   3.603   6.616   7.067  1.0090  1.3935 -0.2063
 6821SOL    HW223096   3.750   6.584   7.089  0.4168 -1.3665  0.1361
 6822SOL     OW23097   1.016   7.735   8.537 -0.7069 -0.2395  0.0552
 6822SOL    HW123098   1.081   7.694   8.480 -1.4275 -0.4157 -0.6568
 6822SOL    HW223099   1.048   7.717   8.625  0.9232  0.8446 -0.2565
 6823SOL     OW23100   0.514   7.056   9.223 -0.1509 -0.0388  0.9695
 6823SOL    HW123101   0.466   7.027   9.146 -1.4331  2.3516  0.7792
 6823SOL    HW223102   0.462   7.026   9.297 -1.2819  1.3807  0.7858
 6824SOL     OW23103   0.828   8.367   4.350 -0.1829 -0.2208 -0.8364
 6824SOL    HW123104   0.770   8.413   4.289  0.1974 -0.8597 -1.7177
 6824SOL    HW223105   0.789   8.280   4.359 -1.1440  0.3645  1.1657
 6825SOL     OW23106   7.277   6.451   0.426 -0.5894  0.3312  0.4051
 6825SOL    HW123107   7.278   6.386   0.356 -0.7675  2.1037 -1.3525
 6825SOL    HW223108   7.326   6.410   0.498  0.7007 -1.1048 -1.1950
 6826SOL     OW23109   7.057   7.140   9.206  0.0503 -0.1121  0.1907
 6826SOL    HW123110   7.082   7.152   9.115 -1.9710  0.5635 -0.3235
 6826SOL    HW223111   7.020   7.224   9.233  2.1887  0.2919  2.2423
 6827SOL     OW23112   2.839   7.384   3.686 -0.2137 -0.3820  0.3229
 6827SOL    HW123113   2.823   7.478   3.689 -0.6879 -0.4800  1.3537
 6827SOL    HW223114   2.781   7.351   3.617 -0.6440 -0.0254  0.5115
 6828SOL     OW23115   2.710   1.116   9.969 -0.3757  0.7430  0.0276
 6828SOL    HW123116   2.748   1.029   9.959  0.7474  1.4136 -2.0785
 6828SOL    HW223117   2.616   1.100   9.978 -0.1248 -0.6930  0.3192
 6829SOL     OW23118   4.580   4.643   3.011  0.2024 -0.4537  0.3738
 6829SOL    HW123119   4.631   4.592   2.948 -0.9905 -1.6011  0.2785
 6829SOL    HW223120   4.489   4.621   2.991 -0.2351 -0.4152  2.1170
 6830SOL     OW23121   5.511   9.734   7.506 -0.0520 -0.0884 -0.0049
 6830SOL    HW123122   5.541   9.821   7.532 -1.5377  0.5006 -0.2016
 6830SOL    HW223123   5.591   9.681   7.503  1.0265  1.5135 -0.8689
 6831SOL     OW23124   5.364   2.131   6.979  0.2691 -0.3786  0.2509
 6831SOL    HW123125   5.447   2.139   6.932 -0.2283 -1.0464 -0.7787
 6831SOL    HW223126   5.302   2.097   6.914 -0.9945  0.7537  0.8133
 6832SOL     OW23127   6.419   8.041   0.782  0.3759  0.1675  0.3447
 6832SOL    HW123128   6.364   8.119   0.777  0.5635  0.2277 -1.4586
 6832SOL    HW223129   6.358   7.969   0.795  0.0000  0.3967 -0.1269
 6833SOL     OW23130   4.097   7.581   2.996  0.2823 -0.0809  0.2187
 6833SOL    HW123131   4.069   7.668   3.021 -0.0423 -0.0805 -0.1270
 6833SOL    HW223132   4.049   7.563   2.915  1.1849 -0.1335 -0.3178
 6834SOL     OW23133   5.871   3.625  10.106 -0.2566 -0.2810  1.0824
 6834SOL    HW123134   5.898   3.705  10.151 -0.1284 -0.7952  1.9556
 6834SOL    HW223135   5.932   3.558  10.139 -0.7442 -0.8565  0.8345
 6835SOL     OW23136   4.211   4.780   6.438  0.5599  0.3541  0.3382
 6835SOL    HW123137   4.120   4.753   6.445  0.0977  1.9744  0.9294
 6835SOL    HW223138   4.214   4.867   6.477  2.0837  0.9171 -0.9011
 6836SOL     OW23139   1.314   7.467   8.012 -0.7663  0.1989  0.2228
 6836SOL    HW123140   1.316   7.420   8.095 -0.5657 -0.7537 -0.3056
 6836SOL    HW223141   1.286   7.556   8.035 -2.0404 -0.4066  1.1302
 6837SOL     OW23142   7.728   8.152   1.449  0.2697  0.1158 -0.4955
 6837SOL    HW123143   7.795   8.193   1.393  0.4703 -0.0105 -0.3506
 6837SOL    HW223144   7.756   8.172   1.538  0.5803 -0.6558 -0.4129
 6838SOL     OW23145   9.986   8.585   7.615  0.1225  0.0589 -0.3533
 6838SOL    HW123146   9.893   8.579   7.593  0.1946 -1.5546 -0.3473
 6838SOL    HW223147  10.022   8.650   7.555 -0.6321 -0.7323 -1.6813
 6839SOL     OW23148   0.212  10.260   5.163  0.1913  0.3540 -0.1723
 6839SOL    HW123149   0.236  10.340   5.210  0.0650  1.1306 -1.3836
 6839SOL    HW223150   0.279  10.197   5.187 -0.2079  0.5235  1.5246
 6840SOL     OW23151   8.684   7.322   7.326  0.2774 -0.4653 -0.3814
 6840SOL    HW123152   8.639   7.264   7.387 -2.2637  1.7857  0.0467
 6840SOL    HW223153   8.664   7.287   7.240  0.4049 -1.3062 -0.0749
 6841SOL     OW23154   3.805   3.532   3.376  0.4930 -0.1734 -0.4744
 6841SOL    HW123155   3.755   3.511   3.455  0.1573  0.4756 -0.5074
 6841SOL    HW223156   3.745   3.516   3.304 -0.4557  2.6198 -0.4294
 6842SOL     OW23157   3.497   6.794   8.299 -0.2015  0.9574  0.0983
 6842SOL    HW123158   3.431   6.848   8.344 -0.5202  0.4584  0.2305
 6842SOL    HW223159   3.574   6.798   8.356 -0.7593 -0.0797  0.9661
 6843SOL     OW23160   6.164   6.789  10.073  0.6610  0.1350 -0.1115
 6843SOL    HW123161   6.194   6.876  10.097 -0.8320  0.6366  0.0371
 6843SOL    HW223162   6.124   6.800   9.987 -2.4863  0.3472  1.2647
 6844SOL     OW23163   6.385   9.127   0.023 -0.1855  0.2297 -0.5258
 6844SOL    HW123164   6.305   9.094  -0.018 -1.7903  2.0009  1.0055
 6844SOL    HW223165   6.370   9.220   0.035  2.0665  0.5913 -0.0152
 6845SOL     OW23166  10.013   1.489   8.491 -0.0906 -0.1622  0.1126
 6845SOL    HW123167   9.924   1.460   8.469 -0.0804  0.7755 -1.2738
 6845SOL    HW223168  10.013   1.583   8.471  1.5622 -0.3780 -1.0725
 6846SOL     OW23169   5.800   8.209   5.407  0.6292 -0.6172  0.3859
 6846SOL    HW123170   5.825   8.277   5.344  1.6170 -1.4786 -0.1706
 6846SOL    HW223171   5.870   8.210   5.472  0.1220 -0.4150  0.9333
 6847SOL     OW23172   8.453   3.008   5.949  0.9422  0.2282 -0.1601
 6847SOL    HW123173   8.414   2.983   5.865  1.6394 -2.5952  0.2413
 6847SOL    HW223174   8.439   3.102   5.955 -2.9167 -0.0956 -1.4777
 6848SOL     OW23175   0.093   4.883   8.821  0.2248  0.3158 -0.3640
 6848SOL    HW123176   0.131   4.910   8.905 -0.6457 -1.3902  0.6282
 6848SOL    HW223177   0.168   4.852   8.770  0.6273  0.3432  0.1958
 6849SOL     OW23178   2.521   8.248   2.762 -0.1165 -0.1542  0.1780
 6849SOL    HW123179   2.593   8.303   2.729 -0.6230  0.6676  0.4221
 6849SOL    HW223180   2.556   8.159   2.758  1.2656  0.3042  1.1846
 6850SOL     OW23181   3.212   8.723   8.180  0.2774  0.0729 -0.6818
 6850SOL    HW123182   3.299   8.696   8.211 -1.0339 -1.7876  1.7121
 6850SOL    HW223183   3.192   8.663   8.108 -0.2689 -1.7216  0.8886
 6851SOL     OW23184   3.205   0.606   4.831 -0.1246  0.5269  0.0575
 6851SOL    HW123185   3.235   0.672   4.768 -0.8531  1.3786  0.5865
 6851SOL    HW223186   3.281   0.591   4.887  0.0649  0.8639 -0.1064
 6852SOL     OW23187   4.170   7.986   4.094  0.1079  0.0056  0.1755
 6852SOL    HW123188   4.104   7.918   4.106 -0.9850  0.9890 -0.0728
 6852SOL    HW223189   4.119   8.066   4.076  1.2687  1.1768  1.7689
 6853SOL     OW23190   7.716   9.129   6.196 -0.1102  0.3814  0.0179
 6853SOL    HW123191   7.733   9.127   6.101  0.2255  2.9801 -0.0482
 6853SOL    HW223192   7.672   9.045   6.213  0.8492 -0.6837 -2.1983
 6854SOL     OW23193   1.780   4.603   7.017 -0.1152  0.1843  0.2580
 6854SOL    HW123194   1.696   4.621   7.060 -1.1381 -2.2399 -0.5799
 6854SOL    HW223195   1.787   4.671   6.950 -3.5445 -1.7693 -2.4456
 6855SOL     OW23196   4.461   0.456   6.714 -0.4995  0.0450  0.0389
 6855SOL    HW123197   4.411   0.402   6.653  1.5338 -0.7247 -1.0352
 6855SOL    HW223198   4.416   0.541   6.712 -1.7434 -0.5970 -0.8766
 6856SOL     OW23199   5.799   1.699   9.804  0.0700 -0.2529 -0.2650
 6856SOL    HW123200   5.727   1.748   9.766  0.3501  0.1114 -0.3307
 6856SOL    HW223201   5.868   1.764   9.817  0.1225 -0.4529  0.4892
 6857SOL     OW23202  10.036   5.309   6.387 -0.5677  0.2368 -0.4435
 6857SOL    HW123203  10.120   5.353   6.402 -0.1164 -1.0040  0.8980
 6857SOL    HW223204   9.974   5.359   6.440  0.2113 -1.4677  2.2992
 6858SOL     OW23205   2.309   4.411   1.033 -0.0315 -0.1715  0.5022
 6858SOL    HW123206   2.381   4.361   0.995  0.6151  1.9721 -1.3366
 6858SOL    HW223207   2.241   4.409   0.966 -1.6459 -1.8399  2.0555
 6859SOL     OW23208   0.200   4.717   2.971 -0.1374  0.4367  0.0683
 6859SOL    HW123209   0.110   4.744   2.987 -1.5090 -2.5300 -1.8836
 6859SOL    HW223210   0.219   4.653   3.039  0.7306  1.4124  0.7754
 6860SOL     OW23211   3.981   0.002   4.669 -0.4695  0.5274 -0.0244
 6860SOL    HW123212   3.887   0.012   4.650 -0.6778 -0.8151  0.1939
 6860SOL    HW223213   3.987  -0.082   4.714  1.0276 -0.1159 -1.3378
 6861SOL     OW23214   3.085   2.507   9.706  0.5686 -0.0153 -0.1911
 6861SOL    HW123215   3.145   2.434   9.688  0.0070 -0.5396  0.0405
 6861SOL    HW223216   2.998   2.472   9.685  0.3796  0.9024 -1.0019
 6862SOL     OW23217   2.735   8.058   5.121  0.2288  0.3465 -0.4798
 6862SOL    HW123218   2.651   8.031   5.083  0.4989 -0.6405 -0.3955
 6862SOL    HW223219   2.775   8.113   5.054  0.4060 -0.8475 -1.3889
 6863SOL     OW23220   7.133   6.905   0.401 -0.1178 -0.3661  0.1702
 6863SOL    HW123221   7.124   6.897   0.496 -0.6808  0.6876  0.2228
 6863SOL    HW223222   7.160   6.818   0.372  1.7463 -0.2779  1.4779
 6864SOL     OW23223   1.394   7.617   3.897  0.2395  0.4839 -0.8195
 6864SOL    HW123224   1.418   7.709   3.913 -0.3150  0.2419  1.7475
 6864SOL    HW223225   1.386   7.579   3.984 -1.5582 -1.5095 -1.7828
 6865SOL     OW23226   2.083   3.545   1.158 -0.8461 -0.1939  0.1818
 6865SOL    HW123227   2.176   3.565   1.151 -1.5568  3.0119 -3.1521
 6865SOL    HW223228   2.063   3.558   1.251  1.4831  2.2652  0.4797
 6866SOL     OW23229   3.896   1.037   0.466 -0.1200 -0.1878  0.0938
 6866SOL    HW123230   3.926   0.988   0.389 -0.6204  1.2259 -1.0510
 6866SOL    HW223231   3.808   1.065   0.443 -0.2648  0.2929  1.1922
 6867SOL     OW23232   1.373   0.349   9.844 -0.6646 -0.1491  0.0472
 6867SOL    HW123233   1.305   0.291   9.809  1.2414 -1.2538 -2.1329
 6867SOL    HW223234   1.404   0.305   9.923 -2.1961  0.2108  0.8931
 6868SOL     OW23235   8.927   1.986   9.976  0.1760  0.0029  0.2402
 6868SOL    HW123236   9.021   2.004   9.969  0.2060 -0.6071 -1.4118
 6868SOL    HW223237   8.886   2.056   9.925 -0.2410 -0.0014  0.5642
 6869SOL     OW23238   4.348   3.488   8.777  0.2242 -0.3086 -0.1386
 6869SOL    HW123239   4.408   3.421   8.745 -1.6592 -1.0959 -2.2904
 6869SOL    HW223240   4.343   3.552   8.706 -1.9177 -0.6130 -0.3250
 6870SOL     OW23241   2.985   2.566   7.313 -0.1033 -0.1585  0.7098
 6870SOL    HW123242   2.920   2.498   7.332  0.1284 -0.6933 -0.3105
 6870SOL    HW223243   3.042   2.567   7.390  0.0406 -1.3060  0.6424
 6871SOL     OW23244   2.725   4.585   7.383 -0.4490  0.1208 -0.5970
 6871SOL    HW123245   2.777   4.640   7.325  0.9900  0.8146  1.2685
 6871SOL    HW223246   2.640   4.577   7.339  0.2040  1.5540 -2.2184
 6872SOL     OW23247   5.863   0.302   9.015 -0.1538  0.4201  0.4565
 6872SOL    HW123248   5.895   0.338   9.098  0.9104 -0.0140  0.2456
 6872SOL    HW223249   5.826   0.217   9.039  0.7576  0.0001  0.3952
 6873SOL     OW23250   4.060   3.488   0.728  0.9678 -0.6088  0.1730
 6873SOL    HW123251   3.974   3.446   0.722  0.2868  0.3786  2.3076
 6873SOL    HW223252   4.048   3.572   0.684  0.3701  0.1659  1.7566
 6874SOL     OW23253   4.930   4.682   2.734 -0.8454  0.6609  0.4131
 6874SOL    HW123254   5.003   4.688   2.672  0.4238  1.7034  1.9319
 6874SOL    HW223255   4.953   4.608   2.790 -1.2012  0.7058  0.6198
 6875SOL     OW23256   7.271   1.497   2.492 -0.5308  0.2982 -0.7251
 6875SOL    HW123257   7.258   1.591   2.487 -1.2761  0.1882 -0.9000
 6875SOL    HW223258   7.239   1.463   2.409  0.1541 -0.0679 -0.8518
 6876SOL     OW23259   1.870   2.440   7.747  0.2738  0.6565 -0.4918
 6876SOL    HW123260   1.948   2.386   7.730 -0.3870 -0.9122  1.0876
 6876SOL    HW223261   1.903   2.530   7.749  2.7146 -0.0871  2.8872
 6877SOL     OW23262   0.269   5.872   2.900  0.2785  0.3628  0.4375
 6877SOL    HW123263   0.265   5.875   2.805 -0.3882 -0.8576  0.4087
 6877SOL    HW223264   0.265   5.779   2.922 -3.2331  0.6600  1.7334
 6878SOL     OW23265   3.400   4.471   4.665 -0.2048  0.3294  0.4199
 6878SOL    HW123266   3.311   4.444   4.690  0.8761 -0.9692  3.3004
 6878SOL    HW223267   3.407   4.561   4.696 -0.0513 -0.0767  1.6034
 6879SOL     OW23268   6.304  10.274   5.253  0.1780  0.5412  0.2559
 6879SOL    HW123269   6.398  10.265   5.273  0.0911  0.0165  0.4608
 6879SOL    HW223270   6.260  10.230   5.326 -0.1827 -0.4343 -0.5134
 6880SOL     OW23271   1.810   0.268   9.845 -0.8724  1.1915 -0.0572
 6880SOL    HW123272   1.810   0.342   9.906  2.8768  1.4162 -0.0924
 6880SOL    HW223273   1.790   0.192   9.899 -0.1078  1.6912  0.9565
 6881SOL     OW23274   7.717   7.174   1.202  0.0085 -0.1813  0.0759
 6881SOL    HW123275   7.654   7.205   1.267  1.2724  0.0981  1.2071
 6881SOL    HW223276   7.777   7.118   1.251  2.3373  1.8110 -0.3121
 6882SOL     OW23277   9.029   2.135   8.193 -0.1502  0.2830  0.2869
 6882SOL    HW123278   9.024   2.203   8.260  2.9372 -0.4806  1.4871
 6882SOL    HW223279   9.005   2.055   8.238  1.4486 -0.1582  0.4170
 6883SOL     OW23280   3.568   3.968   3.950 -0.1306  0.1532  0.4885
 6883SOL    HW123281   3.614   4.044   3.916  1.4436 -0.2113  1.6776
 6883SOL    HW223282   3.491   4.004   3.995 -1.1495  0.7597 -1.6178
 6884SOL     OW23283   9.165   4.217   3.832  0.1108  0.5540 -0.2116
 6884SOL    HW123284   9.100   4.161   3.873  0.4095  0.5432  0.2609
 6884SOL    HW223285   9.120   4.301   3.820  0.3084  0.8631  1.0593
 6885SOL     OW23286   4.534   4.709   7.279  0.0011 -0.7823 -0.5506
 6885SOL    HW123287   4.575   4.787   7.241 -1.1512  0.4945  0.6756
 6885SOL    HW223288   4.442   4.734   7.289  0.1784 -1.0208  2.9272
 6886SOL     OW23289   1.233   5.938   1.130  0.2489 -0.4988 -0.0352
 6886SOL    HW123290   1.216   5.879   1.056 -2.2468 -0.8577  0.7098
 6886SOL    HW223291   1.313   5.905   1.169  0.2547 -1.8608 -1.1046
 6887SOL     OW23292   7.364   5.441   0.238 -0.6353  0.1297  0.7331
 6887SOL    HW123293   7.289   5.393   0.202  0.9006 -0.0564 -2.6587
 6887SOL    HW223294   7.438   5.382   0.225  0.7698  2.0217 -0.3936
 6888SOL     OW23295   4.631   4.442   7.860 -0.0981 -0.3361  0.0238
 6888SOL    HW123296   4.686   4.438   7.938  0.2574  0.5767 -0.1685
 6888SOL    HW223297   4.619   4.535   7.843 -1.6894 -0.5231  0.0263
 6889SOL     OW23298   9.888   2.752   7.771  0.4507  0.5487  0.1800
 6889SOL    HW123299   9.794   2.743   7.787  0.2203  0.6901 -1.0035
 6889SOL    HW223300   9.929   2.690   7.832 -0.5873 -1.7782 -1.3507
 6890SOL     OW23301   3.273   1.656   6.005  0.0573 -0.1851  0.3295
 6890SOL    HW123302   3.367   1.667   5.994  0.1201 -0.4559  0.5942
 6890SOL    HW223303   3.259   1.659   6.100  0.1907 -3.1428  0.5300
 6891SOL     OW23304   0.766   6.595   8.952  0.0640 -0.2123  0.7662
 6891SOL    HW123305   0.695   6.659   8.952 -1.7155 -1.9813 -1.4410
 6891SOL    HW223306   0.750   6.542   9.030 -0.4995 -0.0300  0.7817
 6892SOL     OW23307   8.291   6.534   3.540  0.0898 -0.4984 -0.2119
 6892SOL    HW123308   8.267   6.593   3.611  3.7920  3.6081 -1.9361
 6892SOL    HW223309   8.253   6.574   3.461  0.0647 -2.2424 -1.1313
 6893SOL     OW23310   0.205   5.681   1.952  0.0179  0.1443 -0.0060
 6893SOL    HW123311   0.271   5.616   1.976 -1.5249 -1.4015  0.3446
 6893SOL    HW223312   0.222   5.701   1.860  0.8709 -0.3236  0.0423
 6894SOL     OW23313   8.929   0.229   2.338  0.5446 -0.4276  0.2574
 6894SOL    HW123314   9.016   0.242   2.375  0.7608 -1.0131 -0.0352
 6894SOL    HW223315   8.941   0.164   2.269 -0.1902 -0.8242  0.4861
 6895SOL     OW23316   4.469   2.067   8.618 -0.1228  0.6420 -0.3484
 6895SOL    HW123317   4.431   2.013   8.549  0.5935 -1.2209  0.6545
 6895SOL    HW223318   4.394   2.102   8.666 -0.6535 -1.7891  0.7017
 6896SOL     OW23319   0.622   3.513   2.526  0.5754  0.4808  0.2462
 6896SOL    HW123320   0.710   3.504   2.564  0.3979 -1.0490  0.3433
 6896SOL    HW223321   0.631   3.484   2.436  0.0323 -0.3810  0.4593
 6897SOL     OW23322   6.207   7.544   2.944 -0.5994 -0.6031 -0.0686
 6897SOL    HW123323   6.147   7.568   3.014 -0.2802 -0.3919  0.1373
 6897SOL    HW223324   6.210   7.620   2.886  1.7427  0.6285  1.4987
 6898SOL     OW23325   4.522   7.688   8.835 -0.1322 -0.3734 -0.4481
 6898SOL    HW123326   4.617   7.693   8.824 -0.1427 -2.7270 -2.5079
 6898SOL    HW223327   4.486   7.728   8.756 -1.0247  2.3752  1.2092
 6899SOL     OW23328   4.985   1.085   3.933 -0.7776  0.3426 -0.8933
 6899SOL    HW123329   5.041   1.116   3.862 -0.9130 -0.1669 -1.2276
 6899SOL    HW223330   4.919   1.154   3.944  0.7902  1.7051  0.5511
 6900SOL     OW23331   1.668   1.685   3.980 -0.2352 -0.3280 -0.2338
 6900SOL    HW123332   1.702   1.769   4.012 -0.5260 -0.2167 -0.2131
 6900SOL    HW223333   1.678   1.690   3.885  0.1445 -0.4452 -0.2006
 6901SOL     OW23334   3.370   2.021   9.955  0.1270  0.4076 -0.2834
 6901SOL    HW123335   3.404   2.077  10.025 -0.1246  1.7252 -1.1728
 6901SOL    HW223336   3.445   2.008   9.897 -0.0084  0.4587 -0.4702
 6902SOL     OW23337   5.724   0.554   3.144 -0.3508 -0.2802 -0.0672
 6902SOL    HW123338   5.779   0.608   3.201 -2.0231  0.2910  1.0857
 6902SOL    HW223339   5.691   0.616   3.079 -0.0075 -0.5287 -0.4823
 6903SOL     OW23340   8.303   8.105   8.820 -0.3283 -0.0019  0.2115
 6903SOL    HW123341   8.373   8.168   8.805  1.0611 -1.7184 -0.9749
 6903SOL    HW223342   8.269   8.127   8.907  1.2485  1.2946  0.5516
 6904SOL     OW23343   3.436   6.314   0.144 -0.0181  0.3677  0.7540
 6904SOL    HW123344   3.388   6.264   0.211  0.4995 -1.4111 -0.1204
 6904SOL    HW223345   3.418   6.267   0.063 -0.8023  2.6156 -0.4316
 6905SOL     OW23346   7.571   0.680  10.019 -0.1588  0.5172  0.2891
 6905SOL    HW123347   7.541   0.590  10.008 -1.0832  0.8800 -0.2173
 6905SOL    HW223348   7.561   0.697  10.113  1.2867 -0.3303  0.6220
 6906SOL     OW23349   0.513   1.477   1.793  0.0949 -0.8605 -0.4953
 6906SOL    HW123350   0.470   1.517   1.868  3.4190  0.1025  1.0998
 6906SOL    HW223351   0.551   1.396   1.827  2.4563  0.0494 -0.7752
 6907SOL     OW23352   5.419   8.259   2.217 -0.1870  0.2174 -0.2230
 6907SOL    HW123353   5.495   8.207   2.244 -0.6187 -0.1315  0.3429
 6907SOL    HW223354   5.456   8.336   2.175  0.4728 -0.7839 -1.5584
 6908SOL     OW23355   9.422   4.862   1.151  0.4486  0.1849 -0.2672
 6908SOL    HW123356   9.327   4.866   1.139  0.4576  0.8611 -0.1567
 6908SOL    HW223357   9.447   4.952   1.170  1.3731  0.4226 -2.3059
 6909SOL     OW23358   1.378   8.377   5.105  0.5563  0.1757  0.1986
 6909SOL    HW123359   1.395   8.297   5.056  0.0101 -0.2284  0.6605
 6909SOL    HW223360   1.336   8.348   5.186  0.1247  0.9361  0.2621
 6910SOL     OW23361   3.342   5.310   7.144 -0.3596  0.5638  0.8556
 6910SOL    HW123362   3.384   5.287   7.227  0.4658  1.9626  0.8546
 6910SOL    HW223363   3.384   5.255   7.079  1.2025  1.6165  0.9255
 6911SOL     OW23364  10.121   7.771   1.287 -0.8058 -0.1926  0.2028
 6911SOL    HW123365  10.114   7.697   1.348  0.8294 -0.0892  0.5522
 6911SOL    HW223366  10.153   7.844   1.340 -0.5029  0.2261 -0.5402
 6912SOL     OW23367   6.645   8.711   3.184  0.0478 -0.2431  0.4652
 6912SOL    HW123368   6.678   8.768   3.254  0.4630  1.0808 -0.7429
 6912SOL    HW223369   6.707   8.724   3.112 -0.6958 -1.1041 -0.3543
 6913SOL     OW23370   6.532   4.289   8.863  0.5755  0.2877 -0.1096
 6913SOL    HW123371   6.570   4.216   8.912 -0.3179  0.0559  0.2750
 6913SOL    HW223372   6.449   4.254   8.830  0.5243  0.8762 -0.6208
 6914SOL     OW23373   2.232  10.011   7.059  0.5309 -0.1653  0.1667
 6914SOL    HW123374   2.212  10.063   7.136  0.2686 -0.2300  0.1445
 6914SOL    HW223375   2.196  10.061   6.986 -0.6000 -0.8358  0.2402
 6915SOL     OW23376   7.478   2.557   0.217  0.4975  0.5518 -0.0791
 6915SOL    HW123377   7.403   2.616   0.209 -0.4092 -0.5129  0.2612
 6915SOL    HW223378   7.550   2.613   0.244 -0.3849  1.4643  0.4490
 6916SOL     OW23379   2.195   4.356   0.448  0.1355 -0.7778  0.1257
 6916SOL    HW123380   2.170   4.420   0.515  0.4112 -1.5647  1.0065
 6916SOL    HW223381   2.112   4.321   0.417 -0.0324  0.2201 -0.5935
 6917SOL     OW23382   0.068   6.640   7.715  0.3680  0.0263 -0.1887
 6917SOL    HW123383   0.134   6.571   7.708 -1.7907 -2.0122 -1.9122
 6917SOL    HW223384   0.056   6.651   7.810  1.4688 -1.2620  0.1399
 6918SOL     OW23385   5.601   2.298   0.465 -0.3397  0.4349  0.6284
 6918SOL    HW123386   5.679   2.303   0.411  0.8447 -1.2595  2.0593
 6918SOL    HW223387   5.528   2.311   0.404  0.8975 -1.4307 -1.3928
 6919SOL     OW23388   9.296   9.187   8.947  0.3301 -0.0732  0.1610
 6919SOL    HW123389   9.270   9.138   9.024  1.6524  0.3773  0.9224
 6919SOL    HW223390   9.230   9.256   8.939 -0.3546 -0.6990  0.3051
 6920SOL     OW23391   4.610   0.570   0.365 -0.0959  0.0781 -0.3537
 6920SOL    HW123392   4.548   0.496   0.366 -0.6438  0.5331 -0.2860
 6920SOL    HW223393   4.682   0.539   0.310 -0.4631 -0.3961 -0.5838
 6921SOL     OW23394   2.793   2.127   5.316  0.2181 -0.0975 -0.3522
 6921SOL    HW123395   2.723   2.127   5.381 -0.3188  0.3322 -0.9258
 6921SOL    HW223396   2.764   2.066   5.249  1.2132 -1.2912  0.2537
 6922SOL     OW23397   9.359   3.696   1.897  0.3819 -0.0011  0.6420
 6922SOL    HW123398   9.416   3.731   1.965  0.2694  0.8125  0.3299
 6922SOL    HW223399   9.270   3.709   1.930  0.3427 -1.4458  1.2161
 6923SOL     OW23400   2.856   5.843   5.906 -0.0097  0.2289 -0.3280
 6923SOL    HW123401   2.924   5.879   5.848  1.4282 -0.6173  0.7495
 6923SOL    HW223402   2.816   5.919   5.947  0.9212  0.7204 -0.3069
 6924SOL     OW23403   6.399   6.650   0.697 -0.4179  0.0746 -0.1403
 6924SOL    HW123404   6.432   6.589   0.632  0.5239  1.0221 -0.5837
 6924SOL    HW223405   6.456   6.727   0.689  0.1470 -0.0218  2.2423
 6925SOL     OW23406   1.230   0.296   8.218  0.0900 -0.0679 -0.0717
 6925SOL    HW123407   1.326   0.295   8.218  0.0925 -1.1904 -0.3841
 6925SOL    HW223408   1.206   0.240   8.292 -0.3865  3.6667  2.8732
 6926SOL     OW23409   1.923   2.043   5.886  0.6544  0.5756 -0.6215
 6926SOL    HW123410   1.938   1.958   5.844  0.1886  0.2173 -0.0857
 6926SOL    HW223411   2.003   2.059   5.936  0.9629  0.7132 -1.1561
 6927SOL     OW23412   4.650   9.789   2.263 -0.3150  0.8183  0.1430
 6927SOL    HW123413   4.692   9.715   2.219 -2.3035 -0.3200  0.0393
 6927SOL    HW223414   4.708   9.810   2.336  0.0442 -1.2352  0.5139
 6928SOL     OW23415   6.704   7.080   8.877 -0.3947  0.4270  0.2529
 6928SOL    HW123416   6.770   7.011   8.878  0.0272  0.8306  1.1722
 6928SOL    HW223417   6.729   7.135   8.802  0.5741  0.8123  0.8410
 6929SOL     OW23418   3.556   8.197   5.694  0.3810  0.2050  0.2281
 6929SOL    HW123419   3.615   8.152   5.633  0.7919  0.5921  0.3301
 6929SOL    HW223420   3.608   8.271   5.727 -0.4676  1.0969 -0.3706
 6930SOL     OW23421   1.736   5.159   9.285 -0.1648 -0.4615  0.0726
 6930SOL    HW123422   1.675   5.091   9.315 -0.4353  0.2203  1.1098
 6930SOL    HW223423   1.714   5.171   9.193  0.0399 -1.9306 -0.2076
 6931SOL     OW23424   2.595   9.311   3.833  0.1525  0.2870  0.7414
 6931SOL    HW123425   2.660   9.250   3.867  1.3647  0.3103 -1.3689
 6931SOL    HW223426   2.644   9.373   3.781 -1.5518  0.0078 -1.3625
 6932SOL     OW23427   2.434   1.638   1.088  0.1912 -0.3520 -0.1907
 6932SOL    HW123428   2.486   1.562   1.112 -0.9661 -1.5112 -1.2144
 6932SOL    HW223429   2.344   1.614   1.111 -0.3460  0.2376 -1.5664
 6933SOL     OW23430   2.938  10.324   5.175  0.4248  0.4140 -0.3238
 6933SOL    HW123431   2.924  10.314   5.081  0.7659 -0.2720 -0.3050
 6933SOL    HW223432   2.871  10.268   5.216  1.3863 -0.6806 -0.1952
 6934SOL     OW23433   0.572   5.346   7.255 -0.1493 -0.2029  0.1930
 6934SOL    HW123434   0.522   5.278   7.301 -0.5215 -0.1881 -0.1878
 6934SOL    HW223435   0.653   5.302   7.228  0.4545  0.0055  1.5843
 6935SOL     OW23436   2.933   4.759   8.044 -0.1414 -0.2033  0.0602
 6935SOL    HW123437   3.019   4.762   8.086  0.5851  1.0054 -1.4234
 6935SOL    HW223438   2.879   4.708   8.104  1.9245 -2.1119  0.4372
 6936SOL     OW23439   4.500   5.429   9.564  0.0909 -0.9203 -0.2871
 6936SOL    HW123440   4.487   5.347   9.613 -1.1096 -0.3392  0.4298
 6936SOL    HW223441   4.591   5.452   9.580  0.4132 -2.0514 -0.3987
 6937SOL     OW23442   4.859   1.020   2.186  0.2696  0.7188 -0.1727
 6937SOL    HW123443   4.915   1.051   2.257 -0.6733  0.8521  0.5431
 6937SOL    HW223444   4.875   1.081   2.114 -0.3050  1.8893  0.6507
 6938SOL     OW23445   4.328   2.878   7.781 -0.7514  0.2518 -0.2820
 6938SOL    HW123446   4.303   2.923   7.700 -0.7925  1.9844  0.6598
 6938SOL    HW223447   4.380   2.941   7.829  0.6065 -1.3003  0.3815
 6939SOL     OW23448   4.262   0.679   8.924 -0.1043 -0.6007 -0.4942
 6939SOL    HW123449   4.278   0.758   8.872 -0.1533  0.1672  0.6118
 6939SOL    HW223450   4.331   0.618   8.899  1.7820  0.9059  0.7873
 6940SOL     OW23451   1.009   2.170   4.788  0.3289  0.2923 -0.4355
 6940SOL    HW123452   1.029   2.223   4.865 -0.0099  1.1734 -0.9360
 6940SOL    HW223453   1.023   2.229   4.714  2.1471 -0.9827 -1.1646
 6941SOL     OW23454   2.943   1.375  10.174 -0.1370 -0.4217 -0.6593
 6941SOL    HW123455   3.036   1.354  10.171  0.4635  1.4963  1.5177
 6941SOL    HW223456   2.939   1.462  10.214 -2.9217 -0.9026  0.3594
 6942SOL     OW23457   7.308   2.922   9.187 -0.7792  0.3530 -0.7093
 6942SOL    HW123458   7.359   3.000   9.166  0.1689 -0.1484 -0.3169
 6942SOL    HW223459   7.243   2.916   9.117  0.6844  0.1510 -2.1217
 6943SOL     OW23460   1.742   6.024   5.106 -0.2089  0.6547  0.2690
 6943SOL    HW123461   1.793   5.974   5.170  1.1840  2.2399  0.4437
 6943SOL    HW223462   1.773   6.114   5.115 -0.9590  1.1549 -1.7101
 6944SOL     OW23463   7.019   4.138   4.293 -0.0039  0.2075  0.0312
 6944SOL    HW123464   6.930   4.119   4.263  0.4515  0.2152 -1.3635
 6944SOL    HW223465   7.016   4.229   4.321 -0.3017  0.3754 -0.5310
 6945SOL     OW23466   6.822   0.711   3.777  0.2357 -0.1728 -0.4811
 6945SOL    HW123467   6.853   0.624   3.800 -1.4643 -1.1432 -1.6570
 6945SOL    HW223468   6.787   0.746   3.860  1.2339 -0.4484  0.0692
 6946SOL     OW23469   6.979   7.384   8.955  0.8225 -0.5070  0.4599
 6946SOL    HW123470   7.047   7.408   9.018  0.0602  0.7244  0.8455
 6946SOL    HW223471   6.902   7.365   9.009 -0.2695  1.9689 -0.0936
 6947SOL     OW23472   5.160   6.543   0.232 -0.4623 -0.1001  0.1262
 6947SOL    HW123473   5.131   6.454   0.249 -1.0323 -0.0807 -0.6740
 6947SOL    HW223474   5.078   6.593   0.224 -0.1892  0.1741 -1.0770
 6948SOL     OW23475   8.069   2.660  10.126 -0.5851 -0.6192  0.3350
 6948SOL    HW123476   8.038   2.594  10.188  0.0892  0.3566  1.7613
 6948SOL    HW223477   8.150   2.694  10.165 -1.2565  1.5208  0.0249
 6949SOL     OW23478   8.009   7.539   8.301 -0.0900  0.5588  0.3462
 6949SOL    HW123479   7.933   7.588   8.331 -0.9519 -0.1919 -0.5370
 6949SOL    HW223480   8.056   7.515   8.381 -0.1369  2.0312  0.8331
 6950SOL     OW23481   7.247   8.833   8.595  0.3112 -0.5463  0.7096
 6950SOL    HW123482   7.242   8.834   8.499 -0.5367  0.2772  0.7439
 6950SOL    HW223483   7.339   8.815   8.614  0.5443 -0.4582 -0.2631
 6951SOL     OW23484   8.733   6.383   6.004 -0.1149  0.2541 -0.1669
 6951SOL    HW123485   8.739   6.327   6.081 -0.1809  0.5982  0.0874
 6951SOL    HW223486   8.746   6.323   5.930 -0.2760 -0.1141  0.0982
 6952SOL     OW23487   8.908   9.190   4.710  0.6225  0.1619  0.0287
 6952SOL    HW123488   8.841   9.248   4.674  1.2139  0.6009 -0.3797
 6952SOL    HW223489   8.934   9.232   4.792 -0.4036 -0.6067  0.7825
 6953SOL     OW23490   6.356   1.105   5.738 -0.2986 -0.1293  0.4215
 6953SOL    HW123491   6.445   1.137   5.749  0.2690 -1.0383 -1.2403
 6953SOL    HW223492   6.365   1.010   5.732 -1.4495 -0.2837  0.7906
 6954SOL     OW23493   4.765   8.640   9.671 -0.4399 -0.2426  0.3092
 6954SOL    HW123494   4.842   8.687   9.703 -0.2747  2.1995 -3.0884
 6954SOL    HW223495   4.789   8.548   9.676  1.9059  0.3511  1.2167
 6955SOL     OW23496   9.649   4.674   3.416 -0.0279  0.3561 -0.0189
 6955SOL    HW123497   9.586   4.684   3.345  0.5901  1.0315 -0.4868
 6955SOL    HW223498   9.725   4.631   3.375 -0.2619 -0.6997  0.5960
 6956SOL     OW23499   5.368   2.087  10.330 -0.0027 -0.4615 -0.3860
 6956SOL    HW123500   5.378   2.018  10.395  1.3047  0.0412 -0.0250
 6956SOL    HW223501   5.333   2.043  10.253 -0.1330 -1.3354  0.1603
 6957SOL     OW23502   4.925   5.597   6.370  0.1025  0.4432 -0.3423
 6957SOL    HW123503   4.849   5.571   6.318 -0.2686 -0.1955  0.4884
 6957SOL    HW223504   4.953   5.679   6.332 -1.6153  1.2032 -0.0812
 6958SOL     OW23505   0.360   1.433   1.176 -0.3456  0.3117  0.0306
 6958SOL    HW123506   0.400   1.516   1.201  1.3798 -0.0171 -1.4284
 6958SOL    HW223507   0.300   1.456   1.105  0.4308  0.2820 -0.6469
 6959SOL     OW23508   2.393   4.034   8.592 -0.3192  0.1408  0.3148
 6959SOL    HW123509   2.463   4.014   8.654 -0.2619 -1.0876 -0.1204
 6959SOL    HW223510   2.327   3.966   8.607  0.1034 -0.7485 -1.5850
 6960SOL     OW23511   8.036   1.156   3.912 -0.0990 -0.2095  0.0475
 6960SOL    HW123512   8.029   1.110   3.827  1.4311 -1.2541  0.4384
 6960SOL    HW223513   8.069   1.243   3.889  0.7650 -0.6414 -0.4139
 6961SOL     OW23514   9.510  10.117   7.658 -0.2736 -0.1584  0.6495
 6961SOL    HW123515   9.464  10.159   7.731  0.6275 -0.8673  1.6678
 6961SOL    HW223516   9.481  10.165   7.580 -1.7997  0.1630  1.3793
 6962SOL     OW23517   3.477   2.171   7.091 -0.2511 -0.6409 -0.0667
 6962SOL    HW123518   3.505   2.232   7.023  0.0107 -0.1625  0.4627
 6962SOL    HW223519   3.549   2.108   7.098  0.3792  0.1300  0.7395
 6963SOL     OW23520  10.119   3.931   4.510 -0.1551 -0.0293 -0.2238
 6963SOL    HW123521  10.150   3.984   4.583 -1.2245 -0.3722  0.5099
 6963SOL    HW223522  10.132   3.840   4.538 -0.8108 -0.1659 -0.3384
 6964SOL     OW23523   6.297   1.353   3.623  0.1069 -0.1877  0.2681
 6964SOL    HW123524   6.319   1.304   3.544 -4.3880  1.3314 -2.3418
 6964SOL    HW223525   6.268   1.287   3.685 -1.5147 -1.2486 -1.4953
 6965SOL     OW23526   3.464   2.040   9.621 -0.1274 -0.0416 -0.5208
 6965SOL    HW123527   3.538   2.035   9.682 -0.3984 -0.8598 -0.2308
 6965SOL    HW223528   3.449   1.949   9.595  0.6337  0.4045 -2.6334
 6966SOL     OW23529   3.990   1.799   2.324  0.3942 -0.0758  0.5033
 6966SOL    HW123530   3.936   1.848   2.385  0.7023  2.0022 -0.8007
 6966SOL    HW223531   3.968   1.707   2.341 -0.2435  0.4713  2.9990
 6967SOL     OW23532   9.068   6.075   6.246 -0.2526  0.2544 -0.0291
 6967SOL    HW123533   8.997   6.100   6.187  1.4791  1.4758 -1.6980
 6967SOL    HW223534   9.056   6.132   6.323 -1.0603  0.4573 -0.2940
 6968SOL     OW23535   8.123   8.281   2.960  0.6447 -0.2386  0.6005
 6968SOL    HW123536   8.035   8.272   2.924  0.7417  1.2975 -0.0811
 6968SOL    HW223537   8.127   8.215   3.029 -1.2706  0.1256  1.1132
 6969SOL     OW23538   3.297   2.829   5.094 -0.0472  0.2193  0.2247
 6969SOL    HW123539   3.285   2.900   5.156 -1.0604  0.4576 -0.2210
 6969SOL    HW223540   3.215   2.779   5.098  0.0791 -0.0728 -0.5225
 6970SOL     OW23541   9.325   7.003   5.847  0.1432 -0.4907  0.1784
 6970SOL    HW123542   9.236   7.034   5.862  1.4286  3.7273  0.4095
 6970SOL    HW223543   9.329   6.983   5.753 -0.8693 -0.1661  0.0604
 6971SOL     OW23544   0.136   9.499   0.811 -0.2520 -0.2816  0.5696
 6971SOL    HW123545   0.222   9.540   0.806 -1.0454  1.4640  0.6848
 6971SOL    HW223546   0.151   9.416   0.856  1.3060  0.1575  0.8819
 6972SOL     OW23547   5.814   5.465   4.402 -0.3071 -0.1220 -0.0138
 6972SOL    HW123548   5.796   5.536   4.463 -0.3612 -0.1387 -0.0102
 6972SOL    HW223549   5.787   5.386   4.448  0.5601 -0.2327  0.3151
 6973SOL     OW23550   8.735   9.334   4.042  0.2597  0.3881 -0.1013
 6973SOL    HW123551   8.684   9.261   4.076  1.7157 -0.9741 -0.7158
 6973SOL    HW223552   8.673   9.407   4.039 -1.3803 -0.9369  0.0631
 6974SOL     OW23553   2.088   4.527   1.462  0.6385 -0.0824 -0.1080
 6974SOL    HW123554   2.178   4.531   1.494  0.6511  0.7031 -0.2293
 6974SOL    HW223555   2.096   4.526   1.367  0.4914  1.6010 -0.1709
 6975SOL     OW23556   7.861  10.106   1.213 -0.3269  0.1756 -0.1956
 6975SOL    HW123557   7.939  10.110   1.159 -1.2276 -0.7039 -1.6245
 6975SOL    HW223558   7.891  10.130   1.301  1.8645 -1.6574 -0.3566
 6976SOL     OW23559   5.036   6.513   0.933  0.0418 -0.1252  0.2547
 6976SOL    HW123560   4.948   6.484   0.956 -0.1382  0.4583  0.3091
 6976SOL    HW223561   5.057   6.464   0.854 -0.8477  0.6709 -0.5003
 6977SOL     OW23562   4.596   2.210   9.980  0.5440 -0.1294  0.1193
 6977SOL    HW123563   4.555   2.125   9.967  0.2577  0.2237 -1.4006
 6977SOL    HW223564   4.545   2.251  10.050 -0.6538 -0.3770 -0.5816
 6978SOL     OW23565   7.845   5.457   1.041 -0.3244 -0.1581  0.8905
 6978SOL    HW123566   7.754   5.426   1.048 -0.5015  0.4039  1.1368
 6978SOL    HW223567   7.895   5.394   1.092 -0.6386 -0.2171  1.1327
 6979SOL     OW23568   9.326   6.400   2.950 -0.0188 -1.0645  0.2164
 6979SOL    HW123569   9.327   6.438   2.862  0.5436 -0.9967  0.2481
 6979SOL    HW223570   9.311   6.474   3.008 -0.8214 -1.1727  0.1487
 6980SOL     OW23571   4.207   3.238   7.912 -0.6048 -0.2504 -0.1065
 6980SOL    HW123572   4.203   3.326   7.949  0.7906 -1.1810  2.5740
 6980SOL    HW223573   4.301   3.216   7.912 -0.7572 -1.1981 -2.2308
 6981SOL     OW23574   4.416   5.437   8.070  0.0092 -0.0901 -0.7836
 6981SOL    HW123575   4.363   5.455   8.148  0.7413  0.2476 -0.3482
 6981SOL    HW223576   4.466   5.358   8.093  1.5597  1.0032 -0.1741
 6982SOL     OW23577   5.127   1.889   8.591 -0.1155 -0.0070  0.5262
 6982SOL    HW123578   5.220   1.876   8.610  0.0353  0.6777  0.3143
 6982SOL    HW223579   5.096   1.804   8.560  0.7757  0.0963 -0.7241
 6983SOL     OW23580   4.336   8.984   0.776  0.0176  0.1244  0.1304
 6983SOL    HW123581   4.386   9.023   0.848  0.9103  0.9618 -0.9030
 6983SOL    HW223582   4.353   8.890   0.783  0.8844  0.2916  0.4367
 6984SOL     OW23583   0.454   5.579   3.896 -0.0067  0.1589 -0.3177
 6984SOL    HW123584   0.370   5.611   3.930  0.1692  1.8176 -1.3082
 6984SOL    HW223585   0.517   5.601   3.965 -0.2137 -0.1295 -0.0284
 6985SOL     OW23586   7.649   4.561   7.300  0.1031 -0.4105  0.8622
 6985SOL    HW123587   7.579   4.531   7.242 -0.6798  0.4890  1.3123
 6985SOL    HW223588   7.665   4.652   7.273  1.0596 -0.5890  0.8091
 6986SOL     OW23589   2.535   4.136   7.318 -0.5887  0.4194  0.2323
 6986SOL    HW123590   2.494   4.166   7.237 -0.9262  1.6698  0.8364
 6986SOL    HW223591   2.462   4.105   7.372 -0.6640  1.7467  0.9335
 6987SOL     OW23592   0.351   9.745  10.081  0.8248 -0.2497 -0.4931
 6987SOL    HW123593   0.398   9.800  10.018  0.7876 -1.5619 -1.7112
 6987SOL    HW223594   0.265   9.786  10.090  1.0061  0.2248 -0.9170
 6988SOL     OW23595   3.779   4.977   5.734 -0.1245 -0.0441  0.9390
 6988SOL    HW123596   3.749   5.063   5.704 -0.5335 -0.6523 -0.4665
 6988SOL    HW223597   3.729   4.962   5.815  0.1381  1.1246  1.3481
 6989SOL     OW23598   8.147   7.563   4.863  0.0542 -0.3806  0.1162
 6989SOL    HW123599   8.095   7.634   4.900  2.0562  1.5094 -0.4566
 6989SOL    HW223600   8.215   7.546   4.929  1.0772  0.0300 -0.7895
 6990SOL     OW23601   8.967   5.922   7.736 -0.0200  0.6089 -0.3604
 6990SOL    HW123602   8.987   5.839   7.780  1.0390  1.2964  0.4954
 6990SOL    HW223603   8.987   5.989   7.801  3.9599  1.8332 -2.5061
 6991SOL     OW23604   1.964   8.706   6.769 -0.0970  0.3986 -0.1018
 6991SOL    HW123605   2.051   8.722   6.732 -0.0782 -0.0881 -0.2751
 6991SOL    HW223606   1.978   8.636   6.833  0.1114  2.0612  1.7874
 6992SOL     OW23607   9.204   1.438   6.476  0.5143 -0.4805 -0.8292
 6992SOL    HW123608   9.293   1.467   6.495  1.2173 -3.1002  0.2855
 6992SOL    HW223609   9.162   1.432   6.563 -0.1419 -1.0792 -1.1763
 6993SOL     OW23610   1.836   5.890   6.206  0.1037 -0.3556  0.0793
 6993SOL    HW123611   1.764   5.844   6.162  0.4378 -0.1147 -0.7325
 6993SOL    HW223612   1.868   5.953   6.141  0.6594 -0.0429  0.6428
 6994SOL     OW23613   0.912   2.586   1.035 -0.6279  0.6512 -0.2422
 6994SOL    HW123614   0.962   2.557   1.112 -0.7931 -1.2906 -0.8154
 6994SOL    HW223615   0.979   2.610   0.971 -0.4800  1.4116  0.1885
 6995SOL     OW23616   2.908   7.128   1.641  0.1216  0.1879 -0.1798
 6995SOL    HW123617   2.888   7.040   1.609 -0.5148  0.5583 -0.8395
 6995SOL    HW223618   2.907   7.182   1.562  0.5758  0.7741  0.2127
 6996SOL     OW23619   9.924   7.301   6.712  0.4499  0.4631  0.2178
 6996SOL    HW123620  10.001   7.328   6.663  1.2262  1.3696  1.8542
 6996SOL    HW223621   9.938   7.207   6.728  0.2644  0.1946 -1.0857
 6997SOL     OW23622   5.905   7.743   4.896  0.1980  0.4896  0.2981
 6997SOL    HW123623   5.997   7.753   4.921  0.5358 -2.6873  0.7130
 6997SOL    HW223624   5.869   7.680   4.959 -1.8292  0.4238 -0.8306
 6998SOL     OW23625   1.887   2.384   9.804  0.4175 -0.1824  0.0852
 6998SOL    HW123626   1.979   2.411   9.796 -0.4336  2.5135 -2.0962
 6998SOL    HW223627   1.839   2.465   9.821 -1.6573 -1.3987  0.3192
 6999SOL     OW23628   9.964   5.418   4.120  0.7459 -0.4458  0.3669
 6999SOL    HW123629   9.909   5.378   4.053 -0.3320  0.4424  0.6929
 6999SOL    HW223630   9.918   5.402   4.202 -0.0023  1.8656  0.4552
 7000SOL     OW23631   1.612   9.238   3.755  0.4972  0.1233 -0.6338
 7000SOL    HW123632   1.637   9.252   3.664  2.4324 -1.3827 -0.3928
 7000SOL    HW223633   1.694   9.241   3.804 -0.4690  0.6851  1.0524
 7001SOL     OW23634   7.173   4.953   4.892  0.4297  0.1529  0.1982
 7001SOL    HW123635   7.095   4.998   4.861  1.0420  2.1978  1.4211
 7001SOL    HW223636   7.142   4.894   4.960 -0.0021  1.5412  1.2437
 7002SOL     OW23637   3.883   8.415   3.993  0.4803 -0.1332 -0.3542
 7002SOL    HW123638   3.885   8.321   4.013  0.8957 -0.3645 -1.3794
 7002SOL    HW223639   3.827   8.453   4.060 -0.5168 -1.2643 -0.5149
 7003SOL     OW23640   4.806   2.725   1.953 -0.3975  0.3081  0.4656
 7003SOL    HW123641   4.888   2.749   1.910 -0.3740 -1.8505 -0.7968
 7003SOL    HW223642   4.834   2.684   2.035 -0.3590  1.8437  1.2699
 7004SOL     OW23643   8.319   8.851   1.799  0.6073  0.3891 -0.0234
 7004SOL    HW123644   8.327   8.929   1.853 -0.1106 -1.0011  2.2155
 7004SOL    HW223645   8.287   8.783   1.859  1.4949 -1.7209 -1.8007
 7005SOL     OW23646   4.057   2.075   2.317  0.2673  0.3972  0.4098
 7005SOL    HW123647   4.022   1.991   2.285  2.3468  0.1602 -1.4883
 7005SOL    HW223648   4.146   2.078   2.283  0.7483  2.7496  1.6903
 7006SOL     OW23649   8.887   4.573   9.632  0.3624 -0.7899  0.8394
 7006SOL    HW123650   8.849   4.661   9.631 -2.1845 -1.8314  0.5576
 7006SOL    HW223651   8.974   4.585   9.592 -0.0210  1.5288  0.5430
 7007SOL     OW23652   0.333   1.520   9.917  0.4427 -0.0865  0.2911
 7007SOL    HW123653   0.424   1.518   9.887  0.4157 -2.4809  0.2028
 7007SOL    HW223654   0.302   1.430   9.906 -1.7642  0.5380  0.8932
 7008SOL     OW23655   2.011   4.706   6.147 -0.4989 -0.2584 -0.8649
 7008SOL    HW123656   2.104   4.683   6.151 -0.5227 -0.1825  0.4600
 7008SOL    HW223657   1.966   4.624   6.130 -0.1271 -0.1243 -2.6512
 7009SOL     OW23658   3.395   0.097   0.949 -0.2004  0.5783 -0.5807
 7009SOL    HW123659   3.450   0.146   1.010 -1.1172  0.4986  0.3329
 7009SOL    HW223660   3.367   0.162   0.884  0.0889  0.8438 -0.4439
 7010SOL     OW23661   9.121   2.960   0.587  0.2244 -0.3476  0.0972
 7010SOL    HW123662   9.065   2.980   0.661 -1.1615 -2.2691 -0.3604
 7010SOL    HW223663   9.070   2.986   0.510 -0.6619 -3.1422 -0.3878
 7011SOL     OW23664   4.962   9.702  10.351  0.0164  0.1872  0.1923
 7011SOL    HW123665   4.911   9.629  10.386  0.4570 -0.1715  0.0979
 7011SOL    HW223666   5.052   9.669  10.349  0.0443  0.3189 -0.9779
 7012SOL     OW23667  10.016   9.900   8.565  0.1403 -0.2969  0.2322
 7012SOL    HW123668  10.000   9.963   8.634 -1.0602 -1.3371  0.9618
 7012SOL    HW223669   9.987   9.944   8.485 -1.3204 -0.1339  0.8162
 7013SOL     OW23670   8.526   3.441   4.735  0.4361  0.7429 -0.5102
 7013SOL    HW123671   8.455   3.499   4.762 -0.2026  0.7040 -2.0014
 7013SOL    HW223672   8.487   3.353   4.739  0.7254  0.6188 -0.3602
 7014SOL     OW23673   6.777   1.863   3.653  0.3171  0.3986  0.3553
 7014SOL    HW123674   6.857   1.811   3.656  1.8492  2.2572 -2.9918
 7014SOL    HW223675   6.791   1.933   3.716 -0.2330 -1.1261  2.2606
 7015SOL     OW23676   1.325   0.656   0.635 -0.1836  0.2981 -0.0149
 7015SOL    HW123677   1.255   0.721   0.627  0.3359  0.8949  0.2484
 7015SOL    HW223678   1.307   0.594   0.564 -1.5094 -0.0748  0.6066
 7016SOL     OW23679  10.261   4.409   2.740  0.2414 -0.3828 -0.2950
 7016SOL    HW123680  10.272   4.502   2.721  0.3401 -0.7569 -2.3622
 7016SOL    HW223681  10.342   4.383   2.783  0.4633  0.3725 -0.2475
 7017SOL     OW23682   7.132   5.258  10.080 -0.7581 -0.1141  0.3586
 7017SOL    HW123683   7.060   5.321  10.077 -1.3972 -0.8365 -2.4973
 7017SOL    HW223684   7.182   5.275  10.000  2.2979  0.3258  2.2082
 7018SOL     OW23685   4.026   1.191   7.274 -0.1013  0.0183 -0.1988
 7018SOL    HW123686   4.078   1.211   7.197 -0.9279 -0.9384 -1.0373
 7018SOL    HW223687   3.935   1.206   7.247 -0.3964 -0.1650  0.6291
 7019SOL     OW23688   4.268   2.495   3.110 -0.1080  0.1852 -0.1889
 7019SOL    HW123689   4.303   2.413   3.076  0.2116  0.1604  0.1906
 7019SOL    HW223690   4.309   2.505   3.197  0.2461  0.9921 -0.4320
 7020SOL     OW23691   5.935   0.192   3.004  0.2651  0.2959 -0.1824
 7020SOL    HW123692   6.006   0.220   2.947 -1.1398 -0.8340 -2.6670
 7020SOL    HW223693   5.934   0.096   2.995 -2.2395  0.3351 -1.1985
 7021SOL     OW23694   2.762   2.075   4.771  0.1191  0.4450  0.8114
 7021SOL    HW123695   2.674   2.039   4.759  0.8478 -0.6898 -2.1081
 7021SOL    HW223696   2.756   2.165   4.738  0.4404 -0.3588 -1.7169
 7022SOL     OW23697  10.152   0.476   2.675  0.3566  0.3409  0.1651
 7022SOL    HW123698  10.187   0.453   2.761  0.7172 -1.7807 -0.4910
 7022SOL    HW223699  10.174   0.569   2.665  0.2997  0.6468  2.3304
 7023SOL     OW23700   6.805   4.848  10.202 -0.8006  0.2245 -0.2328
 7023SOL    HW123701   6.869   4.840  10.273 -1.4903 -0.7962  0.2920
 7023SOL    HW223702   6.839   4.790  10.133  1.1140  2.9352 -1.7642
 7024SOL     OW23703   8.644   5.600   6.457  0.2608  0.0299  1.2297
 7024SOL    HW123704   8.635   5.677   6.513 -0.3968 -0.2189  1.4777
 7024SOL    HW223705   8.593   5.533   6.501  0.5477 -0.4536  0.8338
 7025SOL     OW23706   5.031   5.464   6.571  0.6731  0.3781  0.0739
 7025SOL    HW123707   4.991   5.519   6.503 -1.0709 -1.0093 -0.0892
 7025SOL    HW223708   5.021   5.514   6.652 -0.2900  0.5863 -0.1689
 7026SOL     OW23709   8.288   4.307   5.750  0.4039  0.0870  0.0161
 7026SOL    HW123710   8.242   4.254   5.685 -0.0731 -1.6551  1.7183
 7026SOL    HW223711   8.259   4.274   5.835  0.2861  2.8990  1.2060
 7027SOL     OW23712   8.341   0.797   0.163  0.2091 -0.6219  0.2794
 7027SOL    HW123713   8.365   0.706   0.179 -0.8076 -1.0424 -0.5114
 7027SOL    HW223714   8.408   0.848   0.208 -0.1280 -1.7470  2.1335
 7028SOL     OW23715   3.803   5.244   2.924  0.4365 -0.2112 -0.8998
 7028SOL    HW123716   3.884   5.244   2.976 -0.0644 -1.1412 -0.0714
 7028SOL    HW223717   3.752   5.317   2.960 -0.1754 -1.2324  0.4199
 7029SOL     OW23718   6.270   3.158   1.084 -0.9875 -0.1186  0.1775
 7029SOL    HW123719   6.258   3.091   1.153  1.4304 -1.5018 -0.6376
 7029SOL    HW223720   6.353   3.135   1.043 -1.7675  1.4053 -2.4304
 7030SOL     OW23721   4.057   4.881   1.129  0.1582  0.1100  0.0994
 7030SOL    HW123722   4.095   4.801   1.166  0.1778  0.1853  0.2402
 7030SOL    HW223723   4.085   4.879   1.037 -2.1321 -1.4843 -0.6645
 7031SOL     OW23724   0.821   1.554   4.501 -0.4554  0.2603 -0.1360
 7031SOL    HW123725   0.739   1.584   4.541 -1.2978 -0.7912 -1.0201
 7031SOL    HW223726   0.830   1.463   4.530  0.9383  0.6353  0.7471
 7032SOL     OW23727   8.629   3.803   2.827  0.5752 -0.3141  0.2552
 7032SOL    HW123728   8.638   3.897   2.844 -0.3293 -0.1336 -0.2270
 7032SOL    HW223729   8.653   3.793   2.735 -0.2055 -0.4177  0.0614
 7033SOL     OW23730  10.036   9.934   7.252  0.0120 -0.0162 -0.1133
 7033SOL    HW123731  10.123   9.971   7.241  0.2592 -0.9004 -1.3602
 7033SOL    HW223732  10.030   9.865   7.186 -0.9150 -1.2962  1.2150
 7034SOL     OW23733   2.481   9.497   0.505  0.0161 -0.1147 -0.5195
 7034SOL    HW123734   2.435   9.572   0.468 -0.4453 -0.0931  0.0804
 7034SOL    HW223735   2.561   9.534   0.541 -1.1244  0.4601  1.5755
 7035SOL     OW23736   6.266   6.731   2.875  0.2678  0.0280 -0.3125
 7035SOL    HW123737   6.260   6.824   2.897 -0.8496 -0.2092  0.4685
 7035SOL    HW223738   6.203   6.719   2.804  1.5158  0.1478 -1.4720
 7036SOL     OW23739   2.747   0.400   0.384  0.0634  0.2518 -0.0805
 7036SOL    HW123740   2.702   0.317   0.368  0.6722 -0.0908 -0.0391
 7036SOL    HW223741   2.712   0.430   0.468  1.6020 -1.1908  1.1470
 7037SOL     OW23742   9.246   5.041   3.990  0.3954  0.0422 -0.1845
 7037SOL    HW123743   9.307   5.042   3.917 -0.4970  0.0676 -0.9430
 7037SOL    HW223744   9.169   4.995   3.957 -0.0809  0.1760  0.6958
 7038SOL     OW23745   7.713   0.929  10.195 -0.4428 -0.4251  0.4406
 7038SOL    HW123746   7.797   0.885  10.182  0.1772  0.3676  1.5825
 7038SOL    HW223747   7.727   1.018  10.161 -0.9984 -0.4648  0.1026
 7039SOL     OW23748   5.907   8.271   7.643  0.4982 -0.6287  0.4055
 7039SOL    HW123749   5.866   8.321   7.572  1.6508 -0.2012  0.0204
 7039SOL    HW223750   5.845   8.200   7.661 -0.6921  0.3525  0.2712
 7040SOL     OW23751   2.430   2.209   2.823 -0.1693 -0.2160 -0.2717
 7040SOL    HW123752   2.442   2.177   2.733  0.5618  1.8028 -0.9397
 7040SOL    HW223753   2.335   2.205   2.837 -0.4682  0.9147 -1.7462
 7041SOL     OW23754   6.130   1.497   9.761 -0.5183  0.2382 -0.1943
 7041SOL    HW123755   6.074   1.523   9.688  0.0746  0.0973 -0.7058
 7041SOL    HW223756   6.163   1.411   9.738 -1.6757 -0.5788  1.0396
 7042SOL     OW23757   4.958   9.273   4.368  0.3997 -0.2320 -0.3240
 7042SOL    HW123758   4.938   9.184   4.341 -1.6403 -0.0397  0.3239
 7042SOL    HW223759   4.883   9.324   4.339 -0.4780  0.5209  2.8129
 7043SOL     OW23760   1.463   8.309   8.891  0.6417  0.0217  0.1395
 7043SOL    HW123761   1.399   8.238   8.897  0.5401  0.1615  0.8375
 7043SOL    HW223762   1.420   8.375   8.837  1.0630 -0.7749 -1.2147
 7044SOL     OW23763  10.219   0.233   0.142  0.1978 -0.1870  0.3706
 7044SOL    HW123764  10.284   0.174   0.180  1.5855  1.4426  0.6005
 7044SOL    HW223765  10.236   0.230   0.048  1.5474  1.2541  0.5351
 7045SOL     OW23766   1.037   4.536   9.035 -0.3797  0.0449 -0.1301
 7045SOL    HW123767   1.120   4.533   8.987 -0.2475 -0.4157  0.1192
 7045SOL    HW223768   1.019   4.445   9.058 -0.6396  0.2109  0.3547
 7046SOL     OW23769   8.563   2.724   4.050 -0.3975 -0.1087 -0.2036
 7046SOL    HW123770   8.574   2.733   4.145  0.3151  1.0355 -0.3649
 7046SOL    HW223771   8.480   2.768   4.031  0.3811  1.3924 -0.3098
 7047SOL     OW23772   2.271   5.164   1.537  0.1344  0.1161  0.2746
 7047SOL    HW123773   2.228   5.241   1.574  0.2828  0.9177 -1.1141
 7047SOL    HW223774   2.357   5.161   1.579  0.2468  0.9028  0.1175
 7048SOL     OW23775   3.731   4.258   9.634  0.2052  0.5307 -0.0956
 7048SOL    HW123776   3.718   4.180   9.580 -0.1127  0.6690 -0.2208
 7048SOL    HW223777   3.657   4.257   9.695 -0.7069  1.5972 -1.1353
 7049SOL     OW23778   0.708   9.033   3.096  0.3288  0.1880  0.2349
 7049SOL    HW123779   0.690   9.101   3.161 -0.0221  0.2642  0.0593
 7049SOL    HW223780   0.633   8.973   3.102 -0.5319  1.0640 -1.2269
 7050SOL     OW23781   6.584   1.931   2.978 -0.6318  0.0693  0.4816
 7050SOL    HW123782   6.514   1.927   2.914 -0.5484  0.2672  0.3787
 7050SOL    HW223783   6.543   1.906   3.061 -0.3234 -2.1680  0.0240
 7051SOL     OW23784   7.006   1.101   5.782  0.0569  0.5975  0.1407
 7051SOL    HW123785   6.933   1.109   5.721 -0.9318 -0.7364  1.0781
 7051SOL    HW223786   6.969   1.054   5.857  1.8391  0.0377  0.7149
 7052SOL     OW23787  10.326   6.874   1.836  0.2758 -0.5071  0.0782
 7052SOL    HW123788  10.335   6.812   1.908  1.2039  0.8588  1.2171
 7052SOL    HW223789  10.416   6.889   1.807  0.1766  0.9286  0.4290
 7053SOL     OW23790   8.496   3.514   9.368 -0.8225 -0.6529 -0.3447
 7053SOL    HW123791   8.465   3.583   9.310  2.0519  0.7668 -0.3998
 7053SOL    HW223792   8.493   3.435   9.315  1.3728  0.5345 -2.4734
 7054SOL     OW23793   6.514   9.918   5.211 -0.6217 -0.2685  0.6802
 7054SOL    HW123794   6.515   9.860   5.286  1.3086 -0.5045  0.5331
 7054SOL    HW223795   6.558   9.998   5.241 -0.4530 -0.0968  0.0027
 7055SOL     OW23796  10.085   3.025   0.492  0.0523  0.2087 -0.2419
 7055SOL    HW123797  10.145   3.014   0.565 -1.1330 -1.6608  0.5348
 7055SOL    HW223798  10.133   2.994   0.416  0.2882 -0.7055  0.2675
 7056SOL     OW23799   2.550   1.392   3.568 -0.0694 -0.1289  0.2775
 7056SOL    HW123800   2.608   1.450   3.617  1.5936 -0.3115 -1.3970
 7056SOL    HW223801   2.595   1.375   3.486 -0.7422 -3.3567  0.4432
 7057SOL     OW23802   3.203   0.124   7.242 -0.1227 -0.0978  0.3172
 7057SOL    HW123803   3.115   0.086   7.252  0.3550 -1.3221 -0.0634
 7057SOL    HW223804   3.244   0.112   7.328  0.1445 -0.7418  0.0997
 7058SOL     OW23805   8.092   0.380   5.451  0.5556  0.4575  0.2102
 7058SOL    HW123806   8.141   0.302   5.425  1.3322  1.4592 -1.4698
 7058SOL    HW223807   8.005   0.346   5.474  0.1528 -0.7153 -2.6462
 7059SOL     OW23808   4.146   8.619   3.699  0.1223 -0.2228 -0.0491
 7059SOL    HW123809   4.202   8.680   3.747 -1.2184  2.6965 -1.9220
 7059SOL    HW223810   4.058   8.635   3.732 -0.2759 -1.1041 -0.6274
 7060SOL     OW23811   7.211   3.351   8.730 -0.3431  0.3171 -0.0896
 7060SOL    HW123812   7.233   3.265   8.694  0.7809  0.8059 -0.6358
 7060SOL    HW223813   7.121   3.367   8.700 -0.8854 -1.0047  0.7326
 7061SOL     OW23814  10.307   6.820   4.591 -0.0256  0.7441  0.0758
 7061SOL    HW123815  10.381   6.818   4.652 -0.7559 -0.2292  0.9786
 7061SOL    HW223816  10.283   6.912   4.585 -0.5178  0.7946  2.0294
 7062SOL     OW23817  10.357   7.450   3.807  0.2080  0.3258  0.2061
 7062SOL    HW123818  10.310   7.528   3.838 -1.5867 -0.7502  0.3793
 7062SOL    HW223819  10.325   7.380   3.863  0.7978 -0.7619 -0.7903
 7063SOL     OW23820   0.460   0.983   0.521  0.1621  0.2993  0.2224
 7063SOL    HW123821   0.426   0.946   0.439  0.4793  0.8987 -0.1865
 7063SOL    HW223822   0.523   0.918   0.551  1.4550  0.9159 -1.0131
 7064SOL     OW23823   9.852   4.285   3.069  0.1196  0.2782 -0.3049
 7064SOL    HW123824   9.924   4.288   3.006 -0.8236 -1.2379 -1.5461
 7064SOL    HW223825   9.841   4.192   3.088 -0.2281  0.6449  1.4157
 7065SOL     OW23826   8.487   0.767   3.499  0.7261 -0.1449 -0.3044
 7065SOL    HW123827   8.463   0.757   3.407 -0.9358 -2.5337  0.2953
 7065SOL    HW223828   8.583   0.764   3.499  0.7908 -4.3251 -1.7197
 7066SOL     OW23829  10.051   8.040   1.816  0.2676 -0.2587  0.6995
 7066SOL    HW123830  10.121   8.015   1.876  0.0765 -1.3148  0.5097
 7066SOL    HW223831  10.078   8.005   1.731  0.4975  1.1468  0.1558
 7067SOL     OW23832   8.018   8.071   5.618  0.3907 -0.1568  0.3637
 7067SOL    HW123833   8.020   8.099   5.709  1.7802  1.6807 -0.1862
 7067SOL    HW223834   8.020   8.152   5.567 -0.2663 -1.1384 -1.3256
 7068SOL     OW23835   9.164   8.872   3.838  0.5205 -0.4808  0.6724
 7068SOL    HW123836   9.248   8.855   3.796  0.5206 -0.7208  0.7672
 7068SOL    HW223837   9.137   8.957   3.804  0.3310 -0.8483 -0.1219
 7069SOL     OW23838   1.612   7.175   8.330 -0.3018  0.4439 -0.4277
 7069SOL    HW123839   1.589   7.247   8.389 -0.2375 -0.2275  0.4582
 7069SOL    HW223840   1.562   7.100   8.365 -0.7450  0.1749 -1.6135
 7070SOL     OW23841   0.386   2.540   9.675 -0.0411 -0.1404 -0.3682
 7070SOL    HW123842   0.348   2.510   9.592 -0.9857  0.3670 -0.1385
 7070SOL    HW223843   0.480   2.526   9.665 -0.2965 -1.6925 -0.8632
 7071SOL     OW23844   8.519   2.917   0.268 -0.0439  0.6642 -0.1909
 7071SOL    HW123845   8.466   2.921   0.188 -0.9072 -0.7948  0.2677
 7071SOL    HW223846   8.479   2.980   0.327 -0.8215  0.1148 -0.1178
 7072SOL     OW23847   7.178   7.871   5.259 -0.2542  0.0347 -0.2009
 7072SOL    HW123848   7.220   7.837   5.180  2.0846  3.4692 -0.6718
 7072SOL    HW223849   7.163   7.794   5.313  4.2954 -1.9179 -1.1856
 7073SOL     OW23850   0.544   6.666   0.424  0.2886 -0.3632 -1.1354
 7073SOL    HW123851   0.489   6.590   0.445 -0.0879 -0.2394 -1.6654
 7073SOL    HW223852   0.485   6.741   0.432  0.3213 -0.2502 -1.9265
 7074SOL     OW23853   6.212   9.457   9.804  0.2833  0.4165  0.0658
 7074SOL    HW123854   6.184   9.392   9.738  0.9560  0.5258 -0.3371
 7074SOL    HW223855   6.245   9.404   9.877  1.0318  0.2915 -0.3500
 7075SOL     OW23856   3.070   9.065   3.243 -0.0459  0.5871  0.3672
 7075SOL    HW123857   3.115   8.984   3.267 -1.1995 -0.1179  0.1716
 7075SOL    HW223858   3.123   9.134   3.284 -0.2546 -0.3902  2.4194
 7076SOL     OW23859   3.861   4.196   8.608 -0.6976 -0.4016  0.3895
 7076SOL    HW123860   3.890   4.269   8.662 -1.6682 -0.8655  1.5877
 7076SOL    HW223861   3.940   4.168   8.561 -0.1907  1.0114  0.3728
 7077SOL     OW23862   1.817   6.613   4.586 -0.3842  0.4846 -0.9011
 7077SOL    HW123863   1.751   6.683   4.592 -0.5971  0.2261  4.3142
 7077SOL    HW223864   1.900   6.656   4.606 -0.2510 -0.3900  0.5620
 7078SOL     OW23865   4.375   0.734   2.246 -0.4306  0.0273  0.2722
 7078SOL    HW123866   4.316   0.795   2.289  1.0768  1.7552  0.0033
 7078SOL    HW223867   4.348   0.734   2.155  0.7544  1.8915 -0.1358
 7079SOL     OW23868   9.050   4.750   7.498  0.3533 -0.4616 -0.0787
 7079SOL    HW123869   9.128   4.805   7.507 -0.5683  0.7043  1.2018
 7079SOL    HW223870   9.002   4.788   7.425  0.7387 -0.9002 -0.5707
 7080SOL     OW23871  10.177   2.305   2.230 -0.2109  0.0603  0.4777
 7080SOL    HW123872  10.196   2.309   2.136  0.0962 -2.0207  0.4173
 7080SOL    HW223873  10.082   2.319   2.235 -0.3961 -0.8035 -0.2556
 7081SOL     OW23874   5.421   9.990   1.209  0.5480  0.3821 -0.0079
 7081SOL    HW123875   5.393  10.078   1.234 -0.7688  0.3213 -1.1451
 7081SOL    HW223876   5.495  10.004   1.150  0.5532  0.7110  0.0780
 7082SOL     OW23877   1.698   1.661   3.710  0.1414 -0.0570  0.4181
 7082SOL    HW123878   1.606   1.686   3.717 -0.0083 -0.3607 -0.3351
 7082SOL    HW223879   1.728   1.703   3.629  1.4527  2.4049  2.0650
 7083SOL     OW23880   2.741   1.307   0.132  0.1548 -0.1679 -0.3654
 7083SOL    HW123881   2.794   1.268   0.063  0.8622  2.2479 -1.3113
 7083SOL    HW223882   2.662   1.337   0.087 -0.8165 -1.3147  0.5164
 7084SOL     OW23883   3.142   0.234   8.073 -0.3225 -0.6050 -0.3431
 7084SOL    HW123884   3.129   0.154   8.022 -0.4270 -0.0587 -1.1993
 7084SOL    HW223885   3.093   0.301   8.025 -0.2494 -0.0246  0.3681
 7085SOL     OW23886   6.068   8.006   0.356 -0.3262 -0.0464 -0.3887
 7085SOL    HW123887   6.149   7.960   0.335 -0.3127 -0.2615  0.1018
 7085SOL    HW223888   6.075   8.024   0.450 -0.5667  0.4946 -0.4719
 7086SOL     OW23889   7.603   6.420   0.182 -0.0829 -0.0814 -0.1141
 7086SOL    HW123890   7.587   6.374   0.265  1.3732  1.4562  1.0843
 7086SOL    HW223891   7.582   6.355   0.115 -1.5751 -1.2959  1.4257
 7087SOL     OW23892  10.144   9.753   7.576  0.2133 -0.0093 -0.0108
 7087SOL    HW123893  10.181   9.677   7.620  1.0979  1.6116  2.3110
 7087SOL    HW223894  10.219   9.795   7.534  0.4463  1.3174  1.6025
 7088SOL     OW23895  10.170   1.100   5.215  0.0427  0.8402  0.3575
 7088SOL    HW123896  10.233   1.168   5.191 -2.2802  2.5280 -1.4808
 7088SOL    HW223897  10.094   1.117   5.158 -1.3713 -2.1863  1.1426
 7089SOL     OW23898   1.485   0.138   7.222  0.7069  0.6170  0.2358
 7089SOL    HW123899   1.431   0.156   7.144  1.5612  0.8589 -0.3145
 7089SOL    HW223900   1.472   0.214   7.278 -0.0121  0.3860  0.3985
 7090SOL     OW23901   1.240   9.703   9.979  0.4099 -0.1175 -0.2839
 7090SOL    HW123902   1.164   9.715   9.923  0.0994 -0.6489  0.0184
 7090SOL    HW223903   1.248   9.786  10.027  0.7120  0.3606 -1.1330
 7091SOL     OW23904   0.821   0.922   7.378  0.4391 -0.2158 -0.4815
 7091SOL    HW123905   0.839   0.847   7.322  1.0782 -0.7018  0.3531
 7091SOL    HW223906   0.725   0.931   7.377  0.4109 -0.5268 -1.2235
 7092SOL     OW23907   3.134   3.819   8.952 -0.2550  0.5748  1.1785
 7092SOL    HW123908   3.092   3.903   8.968  1.3373  1.6984 -0.2716
 7092SOL    HW223909   3.068   3.754   8.979 -2.0648  2.2559  1.0057
 7093SOL     OW23910  10.148   3.208  10.057  0.0645 -0.2971 -0.2255
 7093SOL    HW123911  10.096   3.255  10.121 -0.1424 -1.7386  0.7143
 7093SOL    HW223912  10.107   3.228   9.973 -0.1890  0.9177  0.1705
 7094SOL     OW23913   1.073   5.475   0.882  0.1181 -0.2594  0.0034
 7094SOL    HW123914   1.114   5.392   0.856 -0.3114 -0.0084 -1.5891
 7094SOL    HW223915   1.030   5.456   0.965 -0.7047 -1.9023 -0.7552
 7095SOL     OW23916   3.955   4.110   5.056  0.0230 -0.0326  0.0453
 7095SOL    HW123917   4.024   4.052   5.024 -0.0837  1.0855 -2.4123
 7095SOL    HW223918   3.969   4.192   5.010 -2.1646  0.6541  0.4867
 7096SOL     OW23919   4.743   5.903   6.110  0.6175 -0.0477  0.1714
 7096SOL    HW123920   4.709   5.819   6.142  1.3487 -1.0813 -1.6337
 7096SOL    HW223921   4.828   5.913   6.153  0.6082 -0.3134  0.2512
 7097SOL     OW23922   8.189   6.138   0.002  0.3195  0.2232  0.2997
 7097SOL    HW123923   8.177   6.048   0.032  1.4491  0.1137  0.4726
 7097SOL    HW223924   8.107   6.160  -0.042  0.1746 -1.0161 -0.0866
 7098SOL     OW23925   1.273   1.560   1.247 -0.4220  0.4167  0.0914
 7098SOL    HW123926   1.303   1.614   1.320 -0.1642 -0.4719  0.6600
 7098SOL    HW223927   1.202   1.507   1.283 -0.2118 -0.1150 -0.2556
 7099SOL     OW23928   7.145   5.899   2.325 -0.5406  0.1988 -0.1731
 7099SOL    HW123929   7.136   5.810   2.291  0.4169  0.5876 -1.5086
 7099SOL    HW223930   7.156   5.887   2.419  1.9985 -1.2736 -0.5769
 7100SOL     OW23931   0.360   4.959   0.731  0.4027  0.3009  0.3141
 7100SOL    HW123932   0.390   4.897   0.797 -0.8212  2.3612  2.9890
 7100SOL    HW223933   0.267   4.939   0.719  0.1116  1.2734  0.8412
 7101SOL     OW23934   7.060   0.540   1.848 -0.3005 -0.1536  0.2327
 7101SOL    HW123935   7.137   0.560   1.794 -0.1816  0.1942  0.5225
 7101SOL    HW223936   7.027   0.626   1.874 -0.4702 -0.3138  0.5508
 7102SOL     OW23937   8.329   4.580   2.520  0.0893  0.6613 -0.1480
 7102SOL    HW123938   8.284   4.574   2.436 -0.1501 -1.3867  0.0913
 7102SOL    HW223939   8.267   4.624   2.577 -0.2587  0.8856 -0.6843
 7103SOL     OW23940   8.020   9.682   9.386 -0.0079 -0.0392  0.2267
 7103SOL    HW123941   8.012   9.650   9.476  0.5609 -2.0390 -0.3985
 7103SOL    HW223942   8.102   9.733   9.386  1.8292 -2.7720  0.1571
 7104SOL     OW23943   6.441   0.324   8.984  0.0513 -0.2051 -0.0470
 7104SOL    HW123944   6.352   0.293   8.966 -0.8178  0.8253  2.1154
 7104SOL    HW223945   6.456   0.302   9.075  1.6088  0.6262 -0.0668
 7105SOL     OW23946   0.405   2.512   8.766  0.2704  0.2564 -0.5984
 7105SOL    HW123947   0.443   2.477   8.847  2.6128 -0.0913 -1.7375
 7105SOL    HW223948   0.315   2.535   8.789  0.4248 -1.1094  1.7264
 7106SOL     OW23949   7.435   6.937   0.602  0.3330  0.1558  0.1030
 7106SOL    HW123950   7.452   7.029   0.621 -1.2463  0.5627 -0.3176
 7106SOL    HW223951   7.437   6.932   0.506 -2.5478  0.4326 -0.0525
 7107SOL     OW23952   6.955   1.765   9.281 -0.2117  0.1724 -0.3863
 7107SOL    HW123953   6.990   1.853   9.294  1.7338 -0.5431 -0.4960
 7107SOL    HW223954   6.909   1.746   9.362 -1.7160  1.7150 -0.8096
 7108SOL     OW23955   6.903   5.451   1.356 -0.2046 -0.0083 -0.1683
 7108SOL    HW123956   6.960   5.495   1.419 -0.4714 -2.0521  1.6361
 7108SOL    HW223957   6.951   5.456   1.273  0.8670  1.4928  0.4981
 7109SOL     OW23958   0.893   2.488  10.235 -0.0748 -0.4207  0.0969
 7109SOL    HW123959   0.827   2.431  10.273  0.4465 -1.7438 -0.8991
 7109SOL    HW223960   0.968   2.482  10.295  0.4278 -1.8020 -0.6402
 7110SOL     OW23961   4.638   0.915   9.650  0.0620  0.7165 -0.0664
 7110SOL    HW123962   4.592   0.935   9.568 -2.0076  2.2592  1.3542
 7110SOL    HW223963   4.627   0.994   9.703  0.9008 -0.4053  1.8899
 7111SOL     OW23964   3.341   0.512   8.755 -0.0998  0.2258 -0.8619
 7111SOL    HW123965   3.349   0.513   8.660  1.4458  0.7254 -0.7568
 7111SOL    HW223966   3.297   0.594   8.777  1.7499  1.3192 -1.0282
 7112SOL     OW23967   2.481   7.713   8.495  0.1432 -0.4205 -0.8938
 7112SOL    HW123968   2.391   7.710   8.463 -0.9667 -1.6079  2.0470
 7112SOL    HW223969   2.506   7.805   8.490 -0.4837 -0.3102 -3.4498
 7113SOL     OW23970   4.119   3.382   8.932  0.5938 -0.2286  0.0003
 7113SOL    HW123971   4.170   3.391   8.851  0.2230  0.0088 -0.2110
 7113SOL    HW223972   4.072   3.299   8.921 -1.3769  0.9609 -1.1455
 7114SOL     OW23973   5.484   1.508   6.864 -0.4919  0.5443  0.0117
 7114SOL    HW123974   5.494   1.414   6.852 -0.5599  0.4232  0.8760
 7114SOL    HW223975   5.396   1.518   6.900  0.0698  0.7931  1.3903
 7115SOL     OW23976   0.758   7.841   5.410  0.3894 -0.6698  0.2701
 7115SOL    HW123977   0.767   7.829   5.505 -1.9704  0.8546  0.7482
 7115SOL    HW223978   0.675   7.799   5.388 -0.2981  1.1041 -0.6727
 7116SOL     OW23979  10.019   6.352   8.108  0.2092  0.1274  0.2662
 7116SOL    HW123980  10.014   6.390   8.020 -1.5758  0.1825  0.3624
 7116SOL    HW223981  10.092   6.398   8.150  1.3149 -0.1482 -1.2802
 7117SOL     OW23982   3.127   7.991   3.646  0.1276  0.5349  0.1991
 7117SOL    HW123983   3.139   8.063   3.707  0.0115  0.4568  0.3147
 7117SOL    HW223984   3.183   8.013   3.571 -0.3192  1.0148 -0.0029
 7118SOL     OW23985   8.227   0.157   2.089 -0.1474  0.2846 -0.5214
 7118SOL    HW123986   8.214   0.238   2.139  1.9334  1.0174 -1.0377
 7118SOL    HW223987   8.318   0.132   2.108 -0.1172 -0.8059 -1.9500
 7119SOL     OW23988   4.134   0.124   9.052  0.7679  0.3284  0.2836
 7119SOL    HW123989   4.205   0.184   9.026 -0.6168  1.4435 -1.0706
 7119SOL    HW223990   4.107   0.156   9.138  0.3649  1.3992 -0.2196
 7120SOL     OW23991   0.406   4.471   9.384  0.2086 -0.0145 -0.0917
 7120SOL    HW123992   0.382   4.537   9.320  0.1316  0.5009  0.4566
 7120SOL    HW223993   0.500   4.459   9.373  0.5807  1.5125  0.9878
 7121SOL     OW23994   3.037   7.895   4.955  0.2750 -0.7646 -0.7980
 7121SOL    HW123995   3.020   7.945   4.876  0.2257  0.0284 -0.2938
 7121SOL    HW223996   3.059   7.807   4.924 -1.6887 -1.0198 -1.6217
 7122SOL     OW23997   9.720   8.055   5.513  0.1923 -0.1273 -0.4622
 7122SOL    HW123998   9.673   7.973   5.527  0.8772 -0.2373  1.6193
 7122SOL    HW223999   9.810   8.035   5.539  0.8896  0.7171 -2.0792
 7123SOL     OW24000   9.670   7.694   1.593 -0.4559 -0.5909 -0.1992
 7123SOL    HW124001   9.687   7.646   1.674 -0.7985  0.0230  0.2525
 7123SOL    HW224002   9.613   7.637   1.542 -1.7672 -0.2440  0.8050
 7124SOL     OW24003   4.180   0.020   3.033 -0.0572  0.3058  0.1109
 7124SOL    HW124004   4.088   0.034   3.053  0.6211  1.4432  3.0684
 7124SOL    HW224005   4.220  -0.001   3.118  2.3352 -0.6434 -1.1359
 7125SOL     OW24006   0.172   9.235   1.604 -0.3060 -0.0733 -0.1280
 7125SOL    HW124007   0.211   9.322   1.614 -1.5913  0.7188 -1.5747
 7125SOL    HW224008   0.238   9.185   1.556  0.2952  0.1866  0.4019
 7126SOL     OW24009   9.628   1.335   8.122  0.0965  0.8552 -0.0933
 7126SOL    HW124010   9.592   1.273   8.186 -0.0068  1.9338  0.9145
 7126SOL    HW224011   9.719   1.346   8.149  0.1505  1.0500 -0.3529
 7127SOL     OW24012   3.924   2.861   1.011  0.3420  0.2745 -0.0440
 7127SOL    HW124013   3.887   2.947   1.032 -0.1705 -0.0850  0.5655
 7127SOL    HW224014   4.017   2.878   0.998  0.2772  0.8958  0.2500
 7128SOL     OW24015   1.030   7.899   0.397  0.5436  0.1860  0.0654
 7128SOL    HW124016   1.078   7.953   0.460 -0.0859  0.1161  0.6078
 7128SOL    HW224017   0.944   7.941   0.390  1.1129  1.1553 -1.9712
 7129SOL     OW24018   2.706   2.162   2.696 -0.8878  0.5767  0.2512
 7129SOL    HW124019   2.635   2.117   2.742 -0.6975 -1.4860 -1.3454
 7129SOL    HW224020   2.778   2.161   2.758 -0.5971 -2.2706  0.0187
 7130SOL     OW24021   1.927   0.638   8.042  0.0365 -0.3481 -0.4009
 7130SOL    HW124022   2.020   0.637   8.021  0.4891  0.7335  1.3614
 7130SOL    HW224023   1.908   0.548   8.070  0.1114 -1.0120 -2.3107
 7131SOL     OW24024   8.313   5.490   7.739 -0.4648  0.0748  0.0837
 7131SOL    HW124025   8.253   5.428   7.780 -0.0244 -1.0859 -0.9754
 7131SOL    HW224026   8.366   5.524   7.811 -1.2679 -0.1315  0.7937
 7132SOL     OW24027   5.213   8.143   5.701  0.2756 -0.4247  0.4476
 7132SOL    HW124028   5.238   8.131   5.792 -0.6525  2.2089  1.1252
 7132SOL    HW224029   5.290   8.184   5.661  0.9565 -2.2347 -0.1917
 7133SOL     OW24030   3.589   3.890   4.402  0.1323 -0.5420  0.5761
 7133SOL    HW124031   3.501   3.872   4.368 -1.1288  1.9888  2.2180
 7133SOL    HW224032   3.640   3.916   4.325 -0.4875 -2.0690 -0.4001
 7134SOL     OW24033   6.233   3.509   3.457  0.2302  0.4740 -0.0141
 7134SOL    HW124034   6.196   3.497   3.370  0.0646  0.1356  0.1005
 7134SOL    HW224035   6.302   3.443   3.463 -1.4874 -1.3391  1.0712
 7135SOL     OW24036   9.329   3.336   3.866 -0.2710  0.1879 -0.0418
 7135SOL    HW124037   9.252   3.292   3.901 -2.3533  2.1898 -1.7816
 7135SOL    HW224038   9.328   3.423   3.908  0.4732  0.5823 -0.8119
 7136SOL     OW24039   4.197   0.422   4.922  0.0031 -0.0931 -0.1541
 7136SOL    HW124040   4.278   0.472   4.910  0.6588 -0.7184  1.3777
 7136SOL    HW224041   4.150   0.432   4.839  1.5201  0.5134 -0.9822
 7137SOL     OW24042   0.083   9.179   2.594 -0.1509  0.3443  0.0927
 7137SOL    HW124043  -0.012   9.169   2.601  0.0492 -0.9668  1.6070
 7137SOL    HW224044   0.116   9.151   2.679  1.7057 -0.7518 -0.9251
 7138SOL     OW24045   6.532   0.818  10.286  0.0365 -0.5082 -0.0636
 7138SOL    HW124046   6.567   0.843  10.372  0.9615 -0.4515 -0.4494
 7138SOL    HW224047   6.577   0.875  10.224 -0.2127 -0.9332 -0.6392
 7139SOL     OW24048   8.415   3.391   5.234 -0.0406 -0.3734  0.6568
 7139SOL    HW124049   8.417   3.482   5.263  0.7429 -0.9021  2.3714
 7139SOL    HW224050   8.507   3.369   5.219 -0.3147 -0.5341 -1.0451
 7140SOL     OW24051   2.829   2.927   2.372  0.1124  0.4775 -0.4405
 7140SOL    HW124052   2.858   2.983   2.444  0.7698  2.1324 -1.9195
 7140SOL    HW224053   2.818   2.841   2.412 -0.6395  1.5645  1.8516
 7141SOL     OW24054   4.130   4.348   9.374  0.3791 -0.4591 -0.0894
 7141SOL    HW124055   4.083   4.429   9.393 -0.2123 -0.2842 -2.1081
 7141SOL    HW224056   4.061   4.285   9.354  0.9134 -0.7528 -1.0624
 7142SOL     OW24057   7.532   9.831   3.426  0.5658  0.0713  0.4018
 7142SOL    HW124058   7.612   9.802   3.383  0.3589 -0.1658  0.1784
 7142SOL    HW224059   7.468   9.842   3.356 -0.0384 -1.1946  0.7322
 7143SOL     OW24060   2.216   6.712   5.798 -0.0213 -0.1349  0.1617
 7143SOL    HW124061   2.298   6.664   5.815  0.1350  0.5819  1.5104
 7143SOL    HW224062   2.245   6.793   5.755 -0.2220 -0.8631 -1.3931
 7144SOL     OW24063   7.152   3.604   8.920 -0.3524 -0.4167  0.3009
 7144SOL    HW124064   7.170   3.640   8.833 -0.2806 -0.1119  0.4427
 7144SOL    HW224065   7.168   3.510   8.909  0.6291 -0.2623  0.2274
 7145SOL     OW24066   5.490   4.485   3.699 -0.2553  0.3187  0.1003
 7145SOL    HW124067   5.533   4.416   3.750 -0.7892 -0.1136 -0.0201
 7145SOL    HW224068   5.471   4.553   3.764  0.8733  0.6505  0.0953
 7146SOL     OW24069   4.151   3.536   5.441 -0.8649  0.3234 -0.2097
 7146SOL    HW124070   4.236   3.580   5.442 -0.1699 -0.9474 -1.2305
 7146SOL    HW224071   4.088   3.607   5.423  0.1541  1.0184 -1.1762
 7147SOL     OW24072   8.356   7.158   3.453  0.6266 -0.2444  0.6832
 7147SOL    HW124073   8.339   7.064   3.452  2.2190 -0.5724  1.3532
 7147SOL    HW224074   8.366   7.182   3.361 -1.4875 -0.3466  0.3685
 7148SOL     OW24075   5.740   2.561  10.260 -0.1544  0.0706  0.2609
 7148SOL    HW124076   5.653   2.534  10.232  0.4495 -1.0782 -0.6226
 7148SOL    HW224077   5.728   2.650  10.294 -1.5918  0.0886 -0.2158
 7149SOL     OW24078   1.423  10.308   0.920 -0.2804  0.0206 -0.0583
 7149SOL    HW124079   1.440  10.219   0.888 -0.1832  0.0426 -0.0670
 7149SOL    HW224080   1.502  10.331   0.969  1.1602  1.3623 -2.7561
 7150SOL     OW24081   3.543   6.698   5.818 -0.2076 -0.5357  0.1111
 7150SOL    HW124082   3.463   6.660   5.781 -0.8215  0.1857  0.6547
 7150SOL    HW224083   3.544   6.668   5.909  0.4667 -1.0263 -0.0485
 7151SOL     OW24084   3.060   9.901   0.180  0.8939 -0.6131  0.3789
 7151SOL    HW124085   2.987   9.906   0.119 -0.7988  0.6746  2.3984
 7151SOL    HW224086   3.065   9.808   0.203 -0.5918 -0.6317  0.7354
 7152SOL     OW24087   4.854   8.634   8.546 -0.3981  0.2820 -0.4906
 7152SOL    HW124088   4.911   8.695   8.499 -0.5634  0.3417 -0.6162
 7152SOL    HW224089   4.859   8.553   8.494  2.0289 -0.7494  1.1825
 7153SOL     OW24090   5.206   0.083   6.395  0.2966  0.2888 -0.2264
 7153SOL    HW124091   5.278   0.049   6.343  1.3107  1.1387  0.5707
 7153SOL    HW224092   5.235   0.169   6.424 -1.1451  0.7607 -0.0748
 7154SOL     OW24093   4.608   6.586   8.440 -0.0348 -0.0457 -0.0588
 7154SOL    HW124094   4.666   6.519   8.476 -0.7278 -0.7168 -0.1742
 7154SOL    HW224095   4.629   6.665   8.491  0.5915 -0.4105  0.2664
 7155SOL     OW24096   6.129   3.924   1.012  0.8331 -0.3278 -0.2204
 7155SOL    HW124097   6.132   3.904   1.106  0.7399  1.0338  0.0890
 7155SOL    HW224098   6.036   3.917   0.989  0.8142 -0.3160 -0.1453
 7156SOL     OW24099   4.855   3.661   6.627  0.1292 -0.2047 -0.0557
 7156SOL    HW124100   4.864   3.624   6.539 -0.4238  1.8511 -1.0421
 7156SOL    HW224101   4.803   3.596   6.674 -0.7601 -0.7381 -1.6724
 7157SOL     OW24102  10.040   3.421   7.489 -0.4192 -0.2601  0.7808
 7157SOL    HW124103   9.946   3.435   7.497 -0.4491  1.2919 -1.4546
 7157SOL    HW224104  10.071   3.494   7.435  2.2098 -0.3122  2.0335
 7158SOL     OW24105   9.193   6.085   3.625 -0.1928 -0.0225 -0.4985
 7158SOL    HW124106   9.221   6.019   3.561 -0.1726 -2.1174  1.5299
 7158SOL    HW224107   9.103   6.106   3.600  0.3636  0.5391 -2.1987
 7159SOL     OW24108   9.005   5.611   6.456  0.4064 -0.2943  0.1926
 7159SOL    HW124109   9.067   5.554   6.502  0.8244 -0.5421 -0.6525
 7159SOL    HW224110   8.963   5.554   6.392  0.1763  0.1477 -0.0530
 7160SOL     OW24111   4.272   1.709   4.782  0.1276 -0.3584 -0.0043
 7160SOL    HW124112   4.205   1.683   4.719  1.2496  0.2835 -1.5385
 7160SOL    HW224113   4.303   1.627   4.819 -0.5345 -0.7561 -0.2983
 7161SOL     OW24114   8.588   9.081   8.336 -0.5047  0.4194 -0.2050
 7161SOL    HW124115   8.586   9.066   8.431 -1.8856 -0.4452 -0.3480
 7161SOL    HW224116   8.515   9.142   8.320  0.6236  1.7332 -0.5549
 7162SOL     OW24117   9.317   6.216   5.834 -0.7583  0.2176 -0.1441
 7162SOL    HW124118   9.307   6.193   5.926 -0.6919 -1.1887 -0.4590
 7162SOL    HW224119   9.244   6.174   5.790 -1.0181  1.2148 -0.6944
 7163SOL     OW24120   5.838   3.282   9.781 -0.1432 -0.0831 -0.2348
 7163SOL    HW124121   5.933   3.278   9.795  0.4375  0.1723 -3.3067
 7163SOL    HW224122   5.816   3.374   9.797  0.2931  0.0377 -0.3001
 7164SOL     OW24123   3.897   5.098   0.741 -0.0484  0.0054 -0.0717
 7164SOL    HW124124   3.921   5.180   0.784  2.7697 -0.9439  0.4299
 7164SOL    HW224125   3.860   5.044   0.811 -2.2286  0.8817 -0.4725
 7165SOL     OW24126   8.045   3.311   0.640 -0.5986 -0.0094  0.1105
 7165SOL    HW124127   8.032   3.221   0.670 -2.3652 -0.4330 -1.7249
 7165SOL    HW224128   8.111   3.304   0.571  0.4300  0.3655  1.0292
 7166SOL     OW24129   9.394   4.855   5.879 -0.3026  0.5957 -0.8316
 7166SOL    HW124130   9.306   4.832   5.850 -0.7430  2.1086 -0.7802
 7166SOL    HW224131   9.394   4.951   5.882  0.4327  0.5828  1.9206
 7167SOL     OW24132   3.913   4.441   1.598 -0.3239  0.1110  0.1832
 7167SOL    HW124133   3.922   4.524   1.645  2.3605 -0.4683  0.8601
 7167SOL    HW224134   3.834   4.402   1.634 -1.3435  2.1148  0.2372
 7168SOL     OW24135   6.498   6.952   3.308 -0.1115 -0.3238  0.1094
 7168SOL    HW124136   6.490   6.956   3.403 -2.8043  1.2105 -0.0608
 7168SOL    HW224137   6.573   7.008   3.288 -0.6262  0.8279  1.2652
 7169SOL     OW24138   6.466   2.589   4.763 -0.1907  0.0696  0.4163
 7169SOL    HW124139   6.431   2.502   4.744  0.3425 -0.4651  1.7827
 7169SOL    HW224140   6.390   2.639   4.795 -0.4187  0.0014 -0.0083
 7170SOL     OW24141   2.631   7.952   4.640 -0.4272 -0.1371  0.2124
 7170SOL    HW124142   2.632   7.989   4.551  0.6787 -0.3631  0.1058
 7170SOL    HW224143   2.583   8.015   4.692 -0.5627  0.3050 -0.4364
 7171SOL     OW24144   9.682   2.124   3.675 -0.5963  0.3698 -0.7632
 7171SOL    HW124145   9.758   2.081   3.634 -1.0272 -0.2723 -0.9165
 7171SOL    HW224146   9.716   2.163   3.755 -0.0611  0.2585 -0.9334
 7172SOL     OW24147   1.191   6.848   8.488 -0.6650  0.0535  0.3382
 7172SOL    HW124148   1.143   6.886   8.561 -3.3940 -0.6755 -0.9697
 7172SOL    HW224149   1.156   6.891   8.411  0.6491 -0.6856 -0.7202
 7173SOL     OW24150   2.019   6.130   9.768  0.9804  0.3337  0.3444
 7173SOL    HW124151   2.075   6.207   9.774 -1.1675  1.9039  2.1333
 7173SOL    HW224152   1.930   6.166   9.761  0.0990 -1.9984 -2.3338
 7174SOL     OW24153   0.890   6.111   0.626  0.3131  0.0408 -0.0037
 7174SOL    HW124154   0.962   6.115   0.563  2.3772 -1.2139  2.1155
 7174SOL    HW224155   0.933   6.113   0.711 -2.3727  2.2240  1.4683
 7175SOL     OW24156   9.219   9.937   3.579  0.4637  0.2280 -0.9319
 7175SOL    HW124157   9.128   9.961   3.563  0.6093  0.7570 -0.9799
 7175SOL    HW224158   9.248   9.997   3.647  0.4268 -0.7292 -0.0486
 7176SOL     OW24159   9.771   9.923   9.400 -0.2726 -0.2207 -0.0407
 7176SOL    HW124160   9.734   9.835   9.402 -0.5328 -0.1937 -2.1923
 7176SOL    HW224161   9.856   9.913   9.357  0.4370  0.3624  1.1501
 7177SOL     OW24162   4.757   5.319   6.111  0.3390 -0.0236 -0.0718
 7177SOL    HW124163   4.793   5.264   6.181  2.8290  0.3221 -0.9612
 7177SOL    HW224164   4.752   5.260   6.035  0.5757  0.3488 -0.3780
 7178SOL     OW24165   0.360   2.311   6.742  0.7735 -0.2049  0.1224
 7178SOL    HW124166   0.365   2.259   6.822  0.7690  0.9681  0.9162
 7178SOL    HW224167   0.434   2.280   6.689  0.0182 -1.8896 -0.0058
 7179SOL     OW24168   6.799   5.321   2.120 -0.0582 -0.0088 -0.1150
 7179SOL    HW124169   6.825   5.393   2.063  0.7639 -0.0643  0.1791
 7179SOL    HW224170   6.837   5.343   2.205 -0.7195 -0.2516  0.2556
 7180SOL     OW24171   1.984   2.263   4.579  0.3750  0.0869 -0.3741
 7180SOL    HW124172   2.058   2.215   4.541  1.6234  1.5388  0.0870
 7180SOL    HW224173   1.999   2.354   4.553 -1.4245  0.3836 -0.4924
 7181SOL     OW24174  10.184  10.115   1.553 -0.0187  0.3337  0.1934
 7181SOL    HW124175  10.245  10.041   1.553 -1.3831 -0.8265  0.3893
 7181SOL    HW224176  10.171  10.134   1.460 -1.9244 -1.6702 -0.0399
 7182SOL     OW24177   5.394   4.686   9.595  0.1631 -0.0141  0.5688
 7182SOL    HW124178   5.321   4.718   9.541  0.6026 -0.5399 -0.3482
 7182SOL    HW224179   5.456   4.649   9.533  0.5446 -0.9284  1.4602
 7183SOL     OW24180   4.690   1.877   0.408  0.0634 -0.0815 -0.0790
 7183SOL    HW124181   4.683   1.892   0.314  1.0033 -0.0711 -0.1565
 7183SOL    HW224182   4.636   1.946   0.448  0.1454  0.2783 -0.5872
 7184SOL     OW24183   7.372   5.263   3.272 -0.3594 -0.0218 -0.2415
 7184SOL    HW124184   7.359   5.330   3.206 -0.0852 -0.3676 -0.6499
 7184SOL    HW224185   7.364   5.309   3.355 -0.5610  0.4405 -0.5159
 7185SOL     OW24186   0.757   4.280   1.277  0.4754  0.1307 -0.2960
 7185SOL    HW124187   0.825   4.229   1.321  1.6004 -0.4678 -2.5541
 7185SOL    HW224188   0.800   4.361   1.252 -0.6945  1.3155  1.3197
 7186SOL     OW24189  10.098   6.772   2.583  0.2819 -0.5127 -0.2823
 7186SOL    HW124190  10.120   6.858   2.620  0.9491 -1.6227  2.1133
 7186SOL    HW224191  10.002   6.773   2.576  0.3316  0.6933 -1.0695
 7187SOL     OW24192   7.004   9.322  10.262  0.3063 -0.2904  0.2826
 7187SOL    HW124193   6.918   9.310  10.222  1.1795 -0.8032 -1.5001
 7187SOL    HW224194   7.013   9.417  10.269 -1.7008 -0.1659  3.5530
 7188SOL     OW24195   5.366   3.917   8.478  0.0152 -0.1261  0.3932
 7188SOL    HW124196   5.399   3.950   8.562  1.3468  3.1088 -1.2136
 7188SOL    HW224197   5.340   3.996   8.431 -3.9622 -2.0779 -1.0410
 7189SOL     OW24198   0.855   3.231   7.195 -0.2302  0.2621  0.0239
 7189SOL    HW124199   0.936   3.266   7.157 -0.1977  1.2308  0.9469
 7189SOL    HW224200   0.857   3.138   7.172  1.4065  0.1579  0.4283
 7190SOL     OW24201   0.997   1.973   2.658  1.1605 -0.3369 -0.1412
 7190SOL    HW124202   0.912   1.935   2.640  0.9156  0.7315 -1.3844
 7190SOL    HW224203   1.000   2.053   2.605  1.8823  1.0616  1.8881
 7191SOL     OW24204   2.880   4.874   4.211 -0.0262  0.3316 -0.4145
 7191SOL    HW124205   2.907   4.894   4.301 -1.4255 -0.1525  0.1302
 7191SOL    HW224206   2.935   4.932   4.158  0.4151  1.0696  0.7745
 7192SOL     OW24207   8.208   8.129   1.491  0.2086 -0.1330  0.1233
 7192SOL    HW124208   8.135   8.081   1.530  0.2432  0.5242  1.0331
 7192SOL    HW224209   8.176   8.218   1.483  0.8288  0.1173  0.3353
 7193SOL     OW24210   7.996   6.779   1.922 -0.5549  0.4025  0.0041
 7193SOL    HW124211   8.026   6.751   2.008  1.0255  0.3370 -0.5392
 7193SOL    HW224212   8.031   6.867   1.911  0.0233  0.0794 -0.9116
 7194SOL     OW24213   6.681   4.028   1.739 -0.1621 -0.1544 -0.2093
 7194SOL    HW124214   6.740   3.957   1.712 -0.6966 -0.5673 -0.2986
 7194SOL    HW224215   6.609   3.984   1.784 -1.2302  0.1973 -1.5255
 7195SOL     OW24216  10.229   4.696   8.338  0.0341  0.0674  0.0277
 7195SOL    HW124217  10.238   4.670   8.429 -1.1259  1.0204  0.4423
 7195SOL    HW224218  10.228   4.792   8.340 -2.9300  0.1518 -0.5990
 7196SOL     OW24219   9.512   3.593  10.118 -0.0310  0.4566 -0.8068
 7196SOL    HW124220   9.572   3.664  10.096  0.8202  0.0826  0.2489
 7196SOL    HW224221   9.554   3.515  10.082 -1.0164  0.4614 -2.0617
 7197SOL     OW24222   4.805  10.195   9.303 -0.0270  0.6154  0.2273
 7197SOL    HW124223   4.832  10.206   9.211 -1.5604  2.0456 -0.0936
 7197SOL    HW224224   4.826  10.104   9.323  2.0833  0.7770 -0.9388
 7198SOL     OW24225   0.116   8.312   0.270 -0.2629 -0.0306  0.2747
 7198SOL    HW124226   0.089   8.351   0.187  1.9064  0.5877 -0.2020
 7198SOL    HW224227   0.034   8.288   0.313 -1.4976  1.0628 -1.3471
 7199SOL     OW24228   7.195   1.293   9.691  0.1852 -0.2837 -0.2057
 7199SOL    HW124229   7.145   1.373   9.702  0.9088 -0.1015  2.5880
 7199SOL    HW224230   7.216   1.289   9.597 -3.4021  0.5392 -1.1630
 7200SOL     OW24231   5.818   1.982   5.933 -0.2206 -0.2130 -0.0835
 7200SOL    HW124232   5.859   1.967   6.018 -1.0556 -0.9646  0.1958
 7200SOL    HW224233   5.788   2.073   5.937 -0.4079 -0.2964  0.4946
 7201SOL     OW24234  10.239   8.283   1.919  0.1165  0.3514 -0.1302
 7201SOL    HW124235  10.281   8.201   1.943 -1.4128 -0.1732  0.9609
 7201SOL    HW224236  10.150   8.258   1.892 -0.1237  1.5713 -0.5707
 7202SOL     OW24237   1.793   1.881   6.248 -0.1512  0.6244 -0.0228
 7202SOL    HW124238   1.814   1.798   6.206 -0.9565  0.8765 -0.9621
 7202SOL    HW224239   1.771   1.940   6.176  1.1155  1.8895  0.5584
 7203SOL     OW24240   8.042   3.138   6.059  0.3225  0.3423  0.1263
 7203SOL    HW124241   8.040   3.098   5.972  1.9600  2.2121 -0.8333
 7203SOL    HW224242   7.950   3.137   6.086 -0.3092  0.1034 -1.8033
 7204SOL     OW24243   5.662   8.488   5.213  0.1850 -0.4539  0.2632
 7204SOL    HW124244   5.683   8.563   5.157 -0.8113  0.0436  0.5337
 7204SOL    HW224245   5.739   8.479   5.270  0.8449 -0.4303 -0.6003
 7205SOL     OW24246   2.972   9.563   9.755  0.1088 -0.3494 -0.0613
 7205SOL    HW124247   2.941   9.578   9.666 -1.5616  1.8694  0.8009
 7205SOL    HW224248   2.998   9.649   9.786 -1.5723 -0.5993  2.3429
 7206SOL     OW24249   2.533   4.485   6.953  0.6105 -0.5634 -0.2744
 7206SOL    HW124250   2.505   4.535   7.030 -1.9634 -0.7384 -0.9829
 7206SOL    HW224251   2.514   4.394   6.976  0.4478 -0.6801 -0.8435
 7207SOL     OW24252   0.171   0.831   7.167 -0.0817 -0.3369 -0.9640
 7207SOL    HW124253   0.176   0.743   7.205  0.0266  0.0363 -0.0706
 7207SOL    HW224254   0.229   0.828   7.091  1.6378 -0.4659  0.2747
 7208SOL     OW24255   5.650   2.670   5.885  0.2368  0.1540  0.2789
 7208SOL    HW124256   5.661   2.621   5.804  0.6027 -0.8800  0.9318
 7208SOL    HW224257   5.621   2.756   5.857  1.1639  0.0855 -0.9986
 7209SOL     OW24258   7.199   0.290   1.948  0.4936 -0.3090  0.6233
 7209SOL    HW124259   7.106   0.299   1.969  0.4475  0.7075  0.0322
 7209SOL    HW224260   7.200   0.231   1.872  0.1844  0.9498 -0.3963
 7210SOL     OW24261   8.874   5.933   3.969 -0.2659 -0.1156  0.2455
 7210SOL    HW124262   8.919   6.006   3.928 -2.9199  2.0548  0.8820
 7210SOL    HW224263   8.905   5.856   3.922  0.3929  1.7212 -2.5516
 7211SOL     OW24264   1.313   8.814   0.014  0.2996 -0.1235  0.4218
 7211SOL    HW124265   1.282   8.876  -0.052  0.8807 -1.3558 -1.0982
 7211SOL    HW224266   1.403   8.842   0.033  0.1957  0.1251  0.5455
 7212SOL     OW24267   5.226   1.733   8.980 -0.2526  0.1259 -0.7128
 7212SOL    HW124268   5.233   1.828   8.965 -0.3724  0.0974 -0.9522
 7212SOL    HW224269   5.262   1.720   9.068  1.0806  0.2121 -1.2088
 7213SOL     OW24270   7.313   7.118   8.626 -0.0431  0.1742  0.3350
 7213SOL    HW124271   7.245   7.185   8.624  0.3842  0.6232  0.7835
 7213SOL    HW224272   7.388   7.160   8.667  0.2872 -0.5241  0.4691
 7214SOL     OW24273   2.796   5.894   4.327  0.4978  0.4100 -0.4231
 7214SOL    HW124274   2.737   5.938   4.265  0.9595 -0.5382 -1.5597
 7214SOL    HW224275   2.850   5.965   4.363 -1.4200  1.3415  0.8054
 7215SOL     OW24276   3.636   7.121   1.724 -0.3963  0.3955 -0.2626
 7215SOL    HW124277   3.623   7.089   1.813 -1.4587  0.6502 -0.3163
 7215SOL    HW224278   3.577   7.196   1.716 -1.6402 -0.6824 -1.7329
 7216SOL     OW24279   6.632   5.870   8.682 -0.1478  1.2157 -0.5839
 7216SOL    HW124280   6.650   5.901   8.771 -1.1447  1.2729 -0.3942
 7216SOL    HW224281   6.687   5.925   8.626  2.5219 -0.5398  0.1453
 7217SOL     OW24282   0.788   8.771   9.517 -0.4089  0.2401 -0.0580
 7217SOL    HW124283   0.791   8.677   9.499 -4.0161 -0.5244  2.1664
 7217SOL    HW224284   0.853   8.785   9.586 -1.8120 -1.4054  1.7344
 7218SOL     OW24285   7.807   8.765   8.323  0.2740 -0.2069  0.1361
 7218SOL    HW124286   7.886   8.739   8.369 -0.8766 -1.1683  1.6753
 7218SOL    HW224287   7.797   8.700   8.253  1.2496  0.4111 -0.6095
 7219SOL     OW24288   1.537   2.442   9.934  0.0556  0.3389 -0.2611
 7219SOL    HW124289   1.553   2.485   9.850 -0.0855  1.8216  0.4458
 7219SOL    HW224290   1.591   2.491   9.996 -0.6042 -0.1030  0.6835
 7220SOL     OW24291   9.082   0.998   2.847  0.1461 -0.2902  0.3105
 7220SOL    HW124292   9.086   1.025   2.755 -0.6560 -0.2650  0.2707
 7220SOL    HW224293   9.172   0.980   2.871  0.3584 -0.3572 -0.5027
 7221SOL     OW24294  10.043   4.753   6.353 -0.3494  0.3486  0.2410
 7221SOL    HW124295   9.974   4.810   6.387 -1.3687  0.0930 -1.2882
 7221SOL    HW224296  10.014   4.664   6.375 -0.3066  0.2593 -0.0598
 7222SOL     OW24297   6.452   3.771   4.992  0.3189  0.1350  0.0682
 7222SOL    HW124298   6.426   3.803   4.906 -0.9347 -0.3680  0.2309
 7222SOL    HW224299   6.398   3.693   5.006 -0.2226  0.7493  1.7010
 7223SOL     OW24300   5.139   5.538   3.300 -0.4003  0.4406  0.2202
 7223SOL    HW124301   5.099   5.527   3.386 -0.2755 -0.5681  0.1704
 7223SOL    HW224302   5.068   5.520   3.238  0.0353 -1.1722  0.1325
 7224SOL     OW24303   4.823   9.461   0.555 -0.1677 -0.2192  0.2973
 7224SOL    HW124304   4.807   9.511   0.475 -0.9244 -1.4538 -0.3381
 7224SOL    HW224305   4.822   9.527   0.625 -0.4352  0.7440 -0.5961
 7225SOL     OW24306   0.441   6.693   3.732  0.1694  0.0322  0.5404
 7225SOL    HW124307   0.430   6.745   3.652  1.7760 -0.9855 -0.4007
 7225SOL    HW224308   0.363   6.712   3.784 -0.5452  1.3281 -0.9227
 7226SOL     OW24309   6.242   6.832   3.288  0.2901  0.6862  0.0816
 7226SOL    HW124310   6.322   6.875   3.319 -0.5893  1.5122  1.3119
 7226SOL    HW224311   6.214   6.778   3.362 -0.8368  1.1957  0.0333
 7227SOL     OW24312   0.578   3.382   5.137  0.0542 -0.2186 -0.9946
 7227SOL    HW124313   0.636   3.320   5.182 -0.1463  0.4319  0.2132
 7227SOL    HW224314   0.494   3.372   5.181  0.2118  1.4272 -0.2270
 7228SOL     OW24315   9.710   5.515   2.245  0.2070 -0.2040 -0.6196
 7228SOL    HW124316   9.790   5.486   2.287  0.6501  1.0372 -0.5490
 7228SOL    HW224317   9.683   5.593   2.294 -2.4665 -1.9681  0.9688
 7229SOL     OW24318   7.471  10.241  10.229 -0.2000 -0.0218 -0.8988
 7229SOL    HW124319   7.383  10.211  10.254 -0.2572 -1.3659 -2.5612
 7229SOL    HW224320   7.463  10.336  10.223 -1.5758 -0.1297 -1.0757
 7230SOL     OW24321   0.840   5.412   3.637 -0.4084  0.3839  0.0984
 7230SOL    HW124322   0.780   5.371   3.700 -0.1284  1.4746  1.1157
 7230SOL    HW224323   0.921   5.424   3.686 -0.9043  3.4802  0.3983
 7231SOL     OW24324   2.814  10.150   9.132 -0.2990 -0.6806  0.8684
 7231SOL    HW124325   2.897  10.146   9.181 -0.2475 -0.0673  0.8488
 7231SOL    HW224326   2.814  10.239   9.095 -0.5039 -1.0164  0.0509
 7232SOL     OW24327   0.033   6.375   2.081 -0.2538 -0.0901 -0.2220
 7232SOL    HW124328   0.110   6.330   2.116  0.9232  0.6082 -1.7693
 7232SOL    HW224329   0.046   6.375   1.986 -1.2977  1.5468 -0.4150
 7233SOL     OW24330   1.755   3.847   5.973 -0.0493  0.3566 -0.5295
 7233SOL    HW124331   1.686   3.910   5.991 -0.2762  0.0396 -0.2824
 7233SOL    HW224332   1.729   3.806   5.891 -0.7274 -0.5368  0.1169
 7234SOL     OW24333   0.336   1.202   4.377  0.2105  0.1305  0.2186
 7234SOL    HW124334   0.256   1.190   4.428  1.4467  0.1899  2.3314
 7234SOL    HW224335   0.393   1.254   4.435  2.1735 -0.8688 -0.7117
 7235SOL     OW24336   6.322   1.931   0.946 -0.0613 -0.2098 -0.2314
 7235SOL    HW124337   6.272   1.891   1.017 -1.5082 -2.6198 -2.3962
 7235SOL    HW224338   6.313   2.025   0.959 -2.8116 -0.5733  1.1138
 7236SOL     OW24339   7.615   4.514   5.548 -0.4879 -0.0047  0.2281
 7236SOL    HW124340   7.553   4.453   5.509  1.3890 -1.0547 -1.3021
 7236SOL    HW224341   7.696   4.464   5.558  0.7393  1.8484  0.1981
 7237SOL     OW24342   6.476   5.886   7.677  0.3769  0.2340 -0.1042
 7237SOL    HW124343   6.434   5.971   7.664  1.4504  1.3529  2.9066
 7237SOL    HW224344   6.416   5.837   7.734  1.4076  0.4691  1.2478
 7238SOL     OW24345   1.405   3.292   2.267  0.0344 -0.4623 -0.1863
 7238SOL    HW124346   1.346   3.288   2.192  2.1958  1.2757 -2.1017
 7238SOL    HW224347   1.357   3.345   2.331 -1.2090 -0.6251 -0.9460
 7239SOL     OW24348   4.442   5.499   8.484 -0.0608 -0.6802 -0.1321
 7239SOL    HW124349   4.420   5.527   8.573  0.2169 -0.2633 -0.1930
 7239SOL    HW224350   4.529   5.458   8.492 -0.0412 -0.6543 -0.2097
 7240SOL     OW24351   1.454   7.558   2.085  0.0874  0.6552  0.2905
 7240SOL    HW124352   1.423   7.645   2.060 -1.5654  0.0123 -0.0428
 7240SOL    HW224353   1.384   7.499   2.057  0.6113 -0.6615  1.6416
 7241SOL     OW24354   8.844   2.254   9.247  0.0447 -0.4844 -0.1130
 7241SOL    HW124355   8.916   2.209   9.290 -0.5093  0.8823  2.4374
 7241SOL    HW224356   8.886   2.328   9.202  0.3552 -0.1930  0.6376
 7242SOL     OW24357   5.042   6.960   7.712  0.6178  0.4604 -0.3932
 7242SOL    HW124358   5.080   6.881   7.675 -2.1605 -0.3825 -1.6508
 7242SOL    HW224359   5.080   6.965   7.800  3.4002 -0.3426 -1.4340
 7243SOL     OW24360   8.017   0.646   6.287 -0.1157 -0.4712  0.0252
 7243SOL    HW124361   7.938   0.591   6.293 -1.2197  0.7034 -2.4794
 7243SOL    HW224362   8.087   0.584   6.265 -0.5038 -1.3841  1.2340
 7244SOL     OW24363   2.543   6.336   6.184  0.4204  0.0956 -0.1105
 7244SOL    HW124364   2.500   6.326   6.100 -1.4466 -0.2476  0.8246
 7244SOL    HW224365   2.498   6.409   6.226  2.1167  1.0422  0.1474
 7245SOL     OW24366   5.212   8.951   9.280 -0.3922  0.0103 -0.5052
 7245SOL    HW124367   5.139   8.922   9.335 -0.6990  0.1060 -0.8586
 7245SOL    HW224368   5.290   8.926   9.329 -0.6596  0.5159  0.1956
 7246SOL     OW24369   0.385   1.922   6.090 -0.2798 -0.0863  0.2039
 7246SOL    HW124370   0.342   1.905   6.006 -2.1183 -0.3046  1.1416
 7246SOL    HW224371   0.359   1.848   6.146 -2.8948  2.2176  2.3101
 7247SOL     OW24372   0.852   0.796   9.804 -0.2701  0.1244  0.2135
 7247SOL    HW124373   0.945   0.808   9.782  0.4052 -2.0570  1.5600
 7247SOL    HW224374   0.834   0.861   9.871  0.8695 -0.6481  1.3159
 7248SOL     OW24375   6.250  10.210   2.625  0.7619 -0.0419 -0.2742
 7248SOL    HW124376   6.250  10.118   2.599  1.9562 -0.5124  1.3076
 7248SOL    HW224377   6.323  10.219   2.686 -0.8655  1.3760  1.6088
 7249SOL     OW24378   5.451   7.881   4.798  0.1855  0.1426  0.4414
 7249SOL    HW124379   5.510   7.946   4.759 -1.1989  1.5845  0.6569
 7249SOL    HW224380   5.504   7.840   4.866  1.0088  1.2826  0.5290
 7250SOL     OW24381   8.976   3.734   4.398 -0.0933 -0.1909  0.1069
 7250SOL    HW124382   8.904   3.719   4.459  1.5689 -1.6460  1.8362
 7250SOL    HW224383   8.934   3.763   4.317 -2.6524 -1.6421  0.8300
 7251SOL     OW24384   5.567   0.173   8.250 -0.2401 -0.4698 -0.5022
 7251SOL    HW124385   5.472   0.160   8.244 -0.2732  0.3094 -2.0938
 7251SOL    HW224386   5.579   0.218   8.334 -1.2534 -0.7123 -0.2078
 7252SOL     OW24387   3.305   7.944   9.301  0.1391  0.3467 -0.3499
 7252SOL    HW124388   3.211   7.943   9.285  0.2035 -1.7734 -0.9625
 7252SOL    HW224389   3.313   7.955   9.396 -0.8041 -0.6636 -0.1227
 7253SOL     OW24390   4.729  10.280   8.734  0.3723  0.2140  0.0025
 7253SOL    HW124391   4.725  10.247   8.644  0.6807  1.1133 -0.3429
 7253SOL    HW224392   4.814  10.252   8.767  0.0901 -0.4749  0.1614
 7254SOL     OW24393   6.971   6.920   6.759 -0.1051  0.1085  0.5433
 7254SOL    HW124394   6.884   6.934   6.798 -0.2116 -0.6226  0.5848
 7254SOL    HW224395   6.955   6.923   6.665 -0.1975 -0.1463  0.5503
 7255SOL     OW24396   0.797   8.573   1.248 -0.2774  0.1409  0.0210
 7255SOL    HW124397   0.860   8.631   1.292  0.6871 -0.8536 -0.0187
 7255SOL    HW224398   0.793   8.606   1.158 -0.0828  0.4077  0.1081
 7256SOL     OW24399   5.476   9.585   2.158  0.0061  0.1991  0.5379
 7256SOL    HW124400   5.444   9.495   2.159  1.0484 -0.1904  0.7075
 7256SOL    HW224401   5.473   9.612   2.250  0.4212  0.0515  0.6001
 7257SOL     OW24402   8.559  10.041   7.480  0.0135  0.1655  0.4047
 7257SOL    HW124403   8.538   9.982   7.552 -2.3378 -0.4323 -0.6612
 7257SOL    HW224404   8.516  10.123   7.502 -1.7131 -0.3609 -0.7440
 7258SOL     OW24405   7.044   0.588   3.435  0.2412 -0.0776 -0.0648
 7258SOL    HW124406   6.969   0.632   3.476 -0.7155 -2.3698  0.8185
 7258SOL    HW224407   7.119   0.642   3.458 -0.5314 -0.1250  3.0113
 7259SOL     OW24408   7.789   9.348   9.422 -0.2827  0.1583  0.5735
 7259SOL    HW124409   7.788   9.310   9.511  0.0761 -0.7454  0.2077
 7259SOL    HW224410   7.880   9.339   9.394 -0.8096 -1.6602 -0.7362
 7260SOL     OW24411   2.451   1.059   7.515  0.4819 -0.2822 -0.4296
 7260SOL    HW124412   2.545   1.062   7.496  0.8148  1.3418  1.2176
 7260SOL    HW224413   2.409   1.077   7.431  1.6585 -0.3008 -1.0457
 7261SOL     OW24414   9.588   5.176   7.892  0.2269  0.1457  0.8954
 7261SOL    HW124415   9.624   5.264   7.881  0.6727 -0.1784 -0.3948
 7261SOL    HW224416   9.665   5.121   7.907  0.2409 -0.4369 -1.0993
 7262SOL     OW24417   3.564   4.853   8.671  0.4684  0.1939  0.0537
 7262SOL    HW124418   3.567   4.796   8.593  0.4501  1.7679 -1.1357
 7262SOL    HW224419   3.572   4.941   8.637 -3.7820  1.3409  1.3756
 7263SOL     OW24420   8.810   9.350   7.564 -0.1672 -0.2695 -0.1273
 7263SOL    HW124421   8.740   9.338   7.500 -0.0637  1.3571 -0.6127
 7263SOL    HW224422   8.836   9.262   7.589 -1.2258 -0.9242 -1.2242
 7264SOL     OW24423   2.675   7.092   5.715 -0.3984 -0.9901 -0.1191
 7264SOL    HW124424   2.686   7.052   5.801  1.0361 -0.7334 -0.1680
 7264SOL    HW224425   2.759   7.133   5.696 -1.2288  0.4509 -0.8867
 7265SOL     OW24426   4.065   8.377   6.369 -1.5788  0.2388  0.0003
 7265SOL    HW124427   4.071   8.363   6.274  1.8022 -0.1842  0.1407
 7265SOL    HW224428   3.984   8.334   6.395 -3.0120  1.0420 -2.7807
 7266SOL     OW24429   8.142   5.439  10.357 -0.6795 -0.0197 -0.3519
 7266SOL    HW124430   8.058   5.456  10.315 -0.8137 -0.0636 -0.0994
 7266SOL    HW224431   8.199   5.411  10.285 -1.1002 -0.7760 -0.4007
 7267SOL     OW24432   3.221  10.038   7.183 -0.2069 -0.4257 -1.1938
 7267SOL    HW124433   3.237   9.951   7.218 -1.7967  0.5764  2.5488
 7267SOL    HW224434   3.300  10.088   7.204  0.1932 -0.6145 -2.1936
 7268SOL     OW24435   3.571   1.039   7.118 -0.6999 -0.2204  0.3997
 7268SOL    HW124436   3.556   1.133   7.105  0.8345 -0.1530 -1.3552
 7268SOL    HW224437   3.665   1.028   7.108 -0.8321 -1.9433  0.7298
 7269SOL     OW24438  10.337   9.305   0.011  0.7011 -0.3014  0.1685
 7269SOL    HW124439  10.432   9.296   0.007  0.6132 -1.6420  0.6662
 7269SOL    HW224440  10.319   9.328   0.102  0.5981  0.8991 -0.1376
 7270SOL     OW24441   3.923   4.970   9.482  0.2868  0.7345  0.2900
 7270SOL    HW124442   3.881   5.043   9.437  0.7330  0.9808  0.2776
 7270SOL    HW224443   4.009   4.962   9.442  0.5298  0.6889  0.8066
 7271SOL     OW24444   3.091   0.974   0.567  1.0644  0.3786  0.3721
 7271SOL    HW124445   3.129   1.000   0.651  0.8729  0.0102  0.5742
 7271SOL    HW224446   3.011   1.026   0.560  1.1669  0.5342  0.3363
 7272SOL     OW24447   0.481   6.665   2.639  0.1071 -0.4186  0.3991
 7272SOL    HW124448   0.423   6.660   2.563  1.6156 -1.5160 -0.7174
 7272SOL    HW224449   0.539   6.739   2.620  0.0071 -0.2123  0.8689
 7273SOL     OW24450   2.712   1.906   5.153 -0.2811 -0.5159  0.1898
 7273SOL    HW124451   2.637   1.923   5.095 -1.2265  1.0820  1.7729
 7273SOL    HW224452   2.788   1.915   5.097 -1.2106 -0.6236 -1.1444
 7274SOL     OW24453   5.407   8.102   1.231 -0.1954 -0.2242  0.1844
 7274SOL    HW124454   5.346   8.171   1.203 -0.2360 -0.3593 -0.0612
 7274SOL    HW224455   5.391   8.029   1.172  0.1227 -0.3062  0.1936
 7275SOL     OW24456   1.429   2.892   8.233 -0.7051  0.2661  0.2864
 7275SOL    HW124457   1.403   2.908   8.142 -0.6751  4.2003  0.8209
 7275SOL    HW224458   1.346   2.880   8.280 -0.7140 -2.0515 -0.1706
 7276SOL     OW24459   3.922   0.410   7.654 -0.5393 -0.2272  0.3497
 7276SOL    HW124460   3.978   0.352   7.603 -1.0291 -1.1571  0.8464
 7276SOL    HW224461   3.876   0.462   7.588 -0.5726 -0.8557 -0.1330
 7277SOL     OW24462   4.764   5.315   1.940 -0.0657 -0.3611 -0.2586
 7277SOL    HW124463   4.831   5.266   1.987 -2.2595 -2.1782  1.1964
 7277SOL    HW224464   4.733   5.256   1.872 -0.9547 -0.0235 -0.1723
 7278SOL     OW24465  10.042   8.321   5.252 -0.6398  0.3625  0.1740
 7278SOL    HW124466   9.974   8.361   5.306 -1.2617 -1.0630  0.5001
 7278SOL    HW224467  10.033   8.227   5.269  0.4031  0.0379 -0.9728
 7279SOL     OW24468   3.089   6.084   3.780 -0.1893  0.0076  0.2590
 7279SOL    HW124469   3.105   6.006   3.726  1.2819  0.2290  0.3398
 7279SOL    HW224470   3.076   6.155   3.717  1.7032  0.3009  0.1361
 7280SOL     OW24471   9.765   5.148   2.185 -0.2981  0.3742  0.6552
 7280SOL    HW124472   9.841   5.159   2.128 -0.9138 -0.0078 -0.2688
 7280SOL    HW224473   9.801   5.148   2.273  0.4434  3.2319  0.4389
 7281SOL     OW24474  10.080   8.790   8.939  0.2270 -0.6172  0.2635
 7281SOL    HW124475  10.101   8.697   8.946 -0.4212 -0.6751  1.8043
 7281SOL    HW224476  10.149   8.834   8.990 -0.0537 -0.3430  0.4099
 7282SOL     OW24477   9.851   1.231   2.701 -0.3913 -0.3191 -0.0116
 7282SOL    HW124478   9.944   1.244   2.686 -0.4820 -1.5918 -2.0170
 7282SOL    HW224479   9.810   1.310   2.665 -0.1847 -0.5414 -0.7459
 7283SOL     OW24480   6.566   6.874   0.681 -0.0946 -0.3705  0.2323
 7283SOL    HW124481   6.547   6.948   0.738 -0.9382 -1.2178  1.0982
 7283SOL    HW224482   6.659   6.881   0.662 -0.1866  0.9629  0.2012
 7284SOL     OW24483   9.880   2.400   1.069  0.2944  0.2831  0.2095
 7284SOL    HW124484   9.898   2.481   1.117  0.2481  0.1401  0.4657
 7284SOL    HW224485   9.803   2.421   1.016  1.4651  1.0582 -1.2634
 7285SOL     OW24486   5.416   5.143   0.522 -0.5956 -0.1825  0.4244
 7285SOL    HW124487   5.477   5.089   0.573 -0.5785 -0.2742  0.3061
 7285SOL    HW224488   5.468   5.218   0.494 -1.0094  0.7140  1.9300
 7286SOL     OW24489   4.035   7.909   0.640  0.0588 -0.1922  0.4221
 7286SOL    HW124490   3.972   7.968   0.599  0.3951  0.9237  1.4624
 7286SOL    HW224491   4.104   7.898   0.575 -1.1509 -1.4077 -0.7267
 7287SOL     OW24492   4.642   2.562   9.121  0.0425  0.5951 -0.1679
 7287SOL    HW124493   4.630   2.657   9.119 -0.6433  0.5238  0.1609
 7287SOL    HW224494   4.553   2.527   9.117  0.2850 -0.0328 -0.1426
 7288SOL     OW24495   3.746   7.072   8.168 -0.0259 -0.0200 -0.4841
 7288SOL    HW124496   3.651   7.082   8.180  0.2616  2.3423  0.2720
 7288SOL    HW224497   3.755   6.990   8.119 -2.5401  0.2695 -1.5960
 7289SOL     OW24498   2.878   2.992   5.220  0.0046 -0.2631 -0.5079
 7289SOL    HW124499   2.968   3.020   5.239  0.8001 -1.1810 -2.5863
 7289SOL    HW224500   2.825   3.069   5.241  0.9564 -0.3167  2.6516
 7290SOL     OW24501   0.398   0.767   5.781  0.1761 -0.3445  0.0056
 7290SOL    HW124502   0.390   0.695   5.718  1.3176  0.3431 -0.9749
 7290SOL    HW224503   0.480   0.749   5.828 -0.4620 -0.6367  1.0410
 7291SOL     OW24504   4.505   3.947  10.027 -0.1864  0.1373 -0.1663
 7291SOL    HW124505   4.472   4.002   9.957 -1.2180 -2.3010 -1.7396
 7291SOL    HW224506   4.599   3.964  10.029 -0.4486  1.8032 -0.6546
 7292SOL     OW24507   2.729   1.369   2.228 -0.3289 -0.7187  0.2653
 7292SOL    HW124508   2.815   1.398   2.259 -1.0408  1.6552  0.1796
 7292SOL    HW224509   2.725   1.398   2.137 -1.6528  0.2874  0.6106
 7293SOL     OW24510   2.875   6.943   1.396 -0.0347 -0.1675  0.0879
 7293SOL    HW124511   2.838   6.891   1.467 -2.0061 -0.3841 -1.0174
 7293SOL    HW224512   2.940   6.886   1.356 -1.4529 -1.4823 -0.4818
 7294SOL     OW24513   2.664   0.789   7.572  0.3210 -0.7418  0.0100
 7294SOL    HW124514   2.713   0.739   7.506  0.7455  1.4562 -1.4661
 7294SOL    HW224515   2.692   0.880   7.558 -1.1535  0.0595  1.8777
 7295SOL     OW24516   9.224   7.801   0.663 -0.1425 -0.2488 -0.4399
 7295SOL    HW124517   9.274   7.822   0.584 -2.1088 -1.6634 -2.1748
 7295SOL    HW224518   9.184   7.884   0.689  1.1610  0.3976 -0.4116
 7296SOL     OW24519   7.859   4.913   3.644  0.5172  0.2794 -0.2706
 7296SOL    HW124520   7.812   4.912   3.560  0.4950 -1.4040 -0.2651
 7296SOL    HW224521   7.915   4.991   3.638  1.0989 -0.2083 -2.1953
 7297SOL     OW24522   4.844   5.185   0.609 -0.1003 -0.4871  0.2936
 7297SOL    HW124523   4.766   5.155   0.655 -0.6351 -0.5009 -0.5960
 7297SOL    HW224524   4.900   5.222   0.678 -0.3439 -1.5914  1.1060
 7298SOL     OW24525   1.383   0.565   1.433 -0.5061 -0.1853  0.2136
 7298SOL    HW124526   1.336   0.500   1.381  0.0990  0.9759 -1.8727
 7298SOL    HW224527   1.313   0.615   1.477 -1.0058 -1.3893  0.8504
 7299SOL     OW24528   6.371   6.464   2.730 -0.1148  0.3336  0.7920
 7299SOL    HW124529   6.437   6.400   2.704  0.0283  0.7757  0.0261
 7299SOL    HW224530   6.421   6.533   2.774  0.3273  1.8045 -1.8013
 7300SOL     OW24531   9.357   7.935   2.796  0.2728 -0.2529 -0.1678
 7300SOL    HW124532   9.441   7.899   2.765 -0.1876 -1.2164 -0.3073
 7300SOL    HW224533   9.314   7.862   2.840 -0.9282 -0.0457 -0.9531
 7301SOL     OW24534   1.362   4.824   2.706  0.1882 -0.6632  0.2101
 7301SOL    HW124535   1.347   4.751   2.646  2.1984 -3.4086  2.7509
 7301SOL    HW224536   1.339   4.790   2.792  3.1885  0.8959  1.7881
 7302SOL     OW24537   9.792   0.455   1.130 -0.2080 -0.3101 -0.1578
 7302SOL    HW124538   9.731   0.528   1.138  0.0547 -0.1001 -0.0572
 7302SOL    HW224539   9.873   0.495   1.097 -0.3658 -0.7041 -1.0629
 7303SOL     OW24540   3.277   0.633   5.612  0.1004 -0.2513 -0.3263
 7303SOL    HW124541   3.236   0.620   5.697 -2.5909 -0.4073 -1.5307
 7303SOL    HW224542   3.309   0.724   5.615  1.9773 -0.9002  1.5152
 7304SOL     OW24543   8.504   9.304   6.463  0.7822 -0.7000  0.0603
 7304SOL    HW124544   8.410   9.289   6.458  0.9147 -1.5038 -0.1654
 7304SOL    HW224545   8.514   9.374   6.527  0.0009 -0.2910 -0.2568
 7305SOL     OW24546   8.793   8.218   6.492 -0.3911 -0.3492  0.1856
 7305SOL    HW124547   8.789   8.205   6.587  0.2014 -2.9930 -0.0684
 7305SOL    HW224548   8.750   8.302   6.477 -1.7008 -0.4919  2.6629
 7306SOL     OW24549   0.782   5.512   2.056 -0.0474 -0.3731 -0.3462
 7306SOL    HW124550   0.713   5.571   2.024 -0.4817 -0.8326 -0.2746
 7306SOL    HW224551   0.738   5.459   2.123  0.6730  0.1259  0.5477
 7307SOL     OW24552   8.117   8.675   1.118 -0.1175 -0.4353  0.1045
 7307SOL    HW124553   8.153   8.758   1.152  1.6273 -0.2400 -2.0311
 7307SOL    HW224554   8.109   8.689   1.024 -2.9337 -1.6199  0.0958
 7308SOL     OW24555   7.015   1.888   0.883 -0.3070  0.2303  0.3635
 7308SOL    HW124556   6.999   1.973   0.843 -1.1828  0.0620  0.3446
 7308SOL    HW224557   7.013   1.904   0.977  0.2668  0.3581  0.3571
 7309SOL     OW24558   7.394   3.080   7.251 -0.5613 -0.0328  0.4071
 7309SOL    HW124559   7.380   3.063   7.344  0.3192  2.6908  1.1356
 7309SOL    HW224560   7.376   2.996   7.208  0.5355 -1.8023  3.1541
 7310SOL     OW24561   3.933   2.958   2.836  0.1414 -0.4758  0.1662
 7310SOL    HW124562   3.865   2.984   2.774 -0.9161 -1.8950  0.6656
 7310SOL    HW224563   3.997   2.912   2.783 -1.0191 -2.1479  0.1282
 7311SOL     OW24564   1.671   5.251   8.771 -0.8283 -0.5157 -0.2443
 7311SOL    HW124565   1.599   5.289   8.721 -0.8185 -0.5007 -0.2468
 7311SOL    HW224566   1.658   5.156   8.762 -0.4156 -0.5138 -0.8737
 7312SOL     OW24567   2.575   8.294   2.167  0.1369  0.3455 -0.4020
 7312SOL    HW124568   2.614   8.349   2.099 -0.1316  0.3109 -0.5848
 7312SOL    HW224569   2.592   8.342   2.249 -0.4547  0.9185 -0.5976
 7313SOL     OW24570   5.629   6.181   4.194  0.0566  0.2744  0.3923
 7313SOL    HW124571   5.665   6.119   4.129 -0.2887  0.0742  0.3893
 7313SOL    HW224572   5.627   6.265   4.148  0.2966  0.2375  0.3134
 7314SOL     OW24573   9.862   4.915   6.490  0.0927  0.6195 -0.2748
 7314SOL    HW124574   9.848   5.009   6.486 -0.3667  0.6410  1.2618
 7314SOL    HW224575   9.844   4.892   6.581 -0.2824 -1.0277 -0.7368
 7315SOL     OW24576   3.032   4.582   4.716  0.1980  0.0856 -0.2013
 7315SOL    HW124577   3.084   4.501   4.712  0.1068 -0.1475  1.9445
 7315SOL    HW224578   2.963   4.569   4.651  0.6802 -1.1979 -0.4972
 7316SOL     OW24579   7.021   7.498   5.559 -0.2307 -0.0413  0.0403
 7316SOL    HW124580   6.949   7.540   5.606 -1.7129  0.1281 -2.2030
 7316SOL    HW224581   7.050   7.428   5.617 -1.5077  0.5625  1.4726
 7317SOL     OW24582   2.793   2.932   6.715 -0.1668  0.2658 -0.3568
 7317SOL    HW124583   2.811   3.012   6.764 -0.3064 -0.7143  1.3717
 7317SOL    HW224584   2.774   2.962   6.626  0.0318  2.1132  0.1811
 7318SOL     OW24585   2.482   7.973   7.977 -0.0309  0.8607  0.0073
 7318SOL    HW124586   2.545   8.003   7.912  0.2583  1.8482  0.7272
 7318SOL    HW224587   2.474   8.046   8.039  1.2355 -0.7592  2.2279
 7319SOL     OW24588   3.923   7.474   0.610 -0.2907 -0.1492 -0.1737
 7319SOL    HW124589   3.935   7.421   0.532 -0.6504 -1.0701  0.3816
 7319SOL    HW224590   3.882   7.555   0.579  2.2401  0.7938 -1.3519
 7320SOL     OW24591   1.255   8.735   5.629 -0.2928  0.0923  0.5122
 7320SOL    HW124592   1.272   8.643   5.649 -2.7400 -0.4125  0.6023
 7320SOL    HW224593   1.213   8.734   5.543 -1.5867  0.9610  1.0919
 7321SOL     OW24594  10.082   9.176   1.772  0.1784  0.0118  0.7266
 7321SOL    HW124595  10.172   9.152   1.748  0.4380  1.1714  0.4737
 7321SOL    HW224596  10.090   9.264   1.809 -1.1233  1.1719 -1.5027
 7322SOL     OW24597   3.723   3.533   1.618  0.9026 -0.7774  0.3491
 7322SOL    HW124598   3.659   3.509   1.551 -1.4948 -3.8761  3.4117
 7322SOL    HW224599   3.803   3.552   1.569 -1.3975  0.0759 -3.4874
 7323SOL     OW24600   9.975   5.426   0.588  0.2141 -0.5636  1.2250
 7323SOL    HW124601   9.975   5.522   0.598  2.2308 -0.1366 -1.6758
 7323SOL    HW224602   9.892   5.406   0.546 -0.3797 -0.1618  2.1757
 7324SOL     OW24603   9.016   5.829   4.826 -0.0649  0.5633  0.0796
 7324SOL    HW124604   8.990   5.917   4.855 -0.1596  1.1204 -1.6053
 7324SOL    HW224605   8.934   5.787   4.802  0.2021  1.1695 -2.1226
 7325SOL     OW24606   5.344   6.855   5.075 -0.3182 -0.5469  0.0792
 7325SOL    HW124607   5.265   6.809   5.100 -2.3783  2.3327 -0.6697
 7325SOL    HW224608   5.354   6.924   5.140 -0.3151  1.0986 -1.5803
 7326SOL     OW24609   7.943   3.770   6.698  0.2064 -0.6832 -0.6938
 7326SOL    HW124610   7.901   3.752   6.782  0.4309  1.3246 -0.0959
 7326SOL    HW224611   7.871   3.784   6.637  0.0438 -1.2101 -0.6316
 7327SOL     OW24612   7.211   7.022   5.202 -0.3827 -0.0813 -0.1270
 7327SOL    HW124613   7.286   7.079   5.183 -0.8594  0.4375 -0.5104
 7327SOL    HW224614   7.240   6.934   5.178 -0.0223  0.1735 -0.6270
 7328SOL     OW24615   7.896   5.260   1.249  0.1347  0.2969  0.1186
 7328SOL    HW124616   7.971   5.236   1.304 -0.2620 -1.3965 -0.0385
 7328SOL    HW224617   7.842   5.181   1.245 -2.6797  1.9554  1.7886
 7329SOL     OW24618   3.773   5.901   5.289 -0.0844 -0.1286 -0.3007
 7329SOL    HW124619   3.821   5.884   5.370  1.1507  0.6671 -0.8307
 7329SOL    HW224620   3.709   5.967   5.312  1.6681  1.6935 -0.3856
 7330SOL     OW24621   8.340   9.171   5.184  0.8109  0.1060 -0.2354
 7330SOL    HW124622   8.370   9.209   5.102 -1.0815  1.0750 -0.5381
 7330SOL    HW224623   8.372   9.232   5.251  0.7011  0.3667 -0.4189
 7331SOL     OW24624   7.689   9.930   4.381  0.4857 -0.6630  0.1888
 7331SOL    HW124625   7.667  10.022   4.396  0.7153 -0.7317  0.9850
 7331SOL    HW224626   7.675   9.917   4.287  0.5149  0.1970  0.0581
 7332SOL     OW24627   1.672   0.727   7.066  0.1810 -0.0143  0.5308
 7332SOL    HW124628   1.705   0.696   6.982 -0.9788  3.0948 -1.2487
 7332SOL    HW224629   1.747   0.771   7.107  0.3472 -0.1688  0.3939
 7333SOL     OW24630   7.255   8.588   5.897 -0.4207  0.1440  0.1374
 7333SOL    HW124631   7.300   8.668   5.923  1.9458 -0.9803 -0.2275
 7333SOL    HW224632   7.287   8.522   5.958 -0.8005 -0.9168 -0.7811
 7334SOL     OW24633   6.233   6.822   6.205 -0.0726  0.3767 -0.7905
 7334SOL    HW124634   6.153   6.875   6.204  0.3823  1.0838 -0.9017
 7334SOL    HW224635   6.213   6.747   6.150 -0.6804  0.5164 -0.7750
 7335SOL     OW24636   3.022  10.162   3.760 -0.2773 -0.0484  0.1469
 7335SOL    HW124637   3.078  10.123   3.694  0.6690  0.6007  0.5507
 7335SOL    HW224638   3.081  10.211   3.817 -1.3052  1.1899  0.2119
 7336SOL     OW24639   8.605   6.867   3.068  0.7217 -1.1422  0.6257
 7336SOL    HW124640   8.639   6.930   3.004 -0.4346 -1.3885 -0.2721
 7336SOL    HW224641   8.639   6.897   3.152  0.6172  0.3930  0.1578
 7337SOL     OW24642   1.808   5.483   3.552 -0.2165  0.1637 -0.1155
 7337SOL    HW124643   1.872   5.417   3.526 -0.5299  0.0708 -0.6572
 7337SOL    HW224644   1.856   5.542   3.610  0.3059 -0.0158 -0.3671
 7338SOL     OW24645   9.048   7.508   1.951  0.3853 -0.1425 -0.5434
 7338SOL    HW124646   9.052   7.501   1.856 -0.9305  0.6216 -0.6732
 7338SOL    HW224647   8.978   7.570   1.968 -0.0657 -1.0129  0.9579
 7339SOL     OW24648   4.287   1.380   4.047 -0.2893  0.2957  0.0523
 7339SOL    HW124649   4.270   1.310   4.110  0.0321  0.0025 -0.1773
 7339SOL    HW224650   4.223   1.448   4.068 -0.1644  0.2198  0.7141
 7340SOL     OW24651   8.150   1.357   4.142  0.4981  0.0741 -0.3280
 7340SOL    HW124652   8.190   1.365   4.056 -0.7164 -1.2361 -1.0430
 7340SOL    HW224653   8.140   1.448   4.172  3.1988  0.5024 -0.4195
 7341SOL     OW24654   4.112   2.470   6.789  0.8251 -0.0124  0.1166
 7341SOL    HW124655   4.046   2.536   6.810  1.4558  0.7248 -0.2232
 7341SOL    HW224656   4.098   2.451   6.696  2.0807  1.2734 -0.3574
 7342SOL     OW24657   0.250   6.448   8.076 -0.0231  0.1585  0.9348
 7342SOL    HW124658   0.169   6.398   8.073  0.2271 -0.2235  0.5068
 7342SOL    HW224659   0.313   6.396   8.027  0.0825  1.1661 -0.0494
 7343SOL     OW24660   1.393   0.610   3.237 -0.0018 -0.2798  0.5038
 7343SOL    HW124661   1.306   0.597   3.275 -0.1830  0.8685  0.5078
 7343SOL    HW224662   1.453   0.576   3.303 -0.3900  0.2669  1.1504
 7344SOL     OW24663   1.089   3.173   0.244 -0.3805  0.0070  0.4030
 7344SOL    HW124664   1.178   3.204   0.226 -1.1993  0.6418 -3.5706
 7344SOL    HW224665   1.033   3.243   0.211 -2.3813 -1.1231  1.2326
 7345SOL     OW24666   1.175   2.880   1.972  0.0728 -0.1676  0.0055
 7345SOL    HW124667   1.223   2.801   1.996 -1.0609 -0.8574  0.1067
 7345SOL    HW224668   1.158   2.923   2.056  0.6435  0.1484 -0.0441
 7346SOL     OW24669   5.146   3.303   3.429 -0.5970 -0.2868 -0.0481
 7346SOL    HW124670   5.218   3.322   3.489 -0.5813 -1.3553  0.2885
 7346SOL    HW224671   5.069   3.295   3.485 -0.8346  0.0673 -0.3216
 7347SOL     OW24672   5.036   3.735   5.697  0.2134  0.5549 -0.5213
 7347SOL    HW124673   5.113   3.790   5.682  0.4397  0.5144  0.3962
 7347SOL    HW224674   5.017   3.747   5.790  0.2045 -0.8253 -0.3223
 7348SOL     OW24675   5.064   7.569   2.115 -0.3146 -0.0359  0.3261
 7348SOL    HW124676   5.141   7.580   2.171  1.1351  1.8639 -1.8499
 7348SOL    HW224677   4.996   7.621   2.158  0.1799 -0.1275  1.2648
 7349SOL     OW24678   1.911  10.227   1.215  0.1694  0.7474  0.0415
 7349SOL    HW124679   1.909  10.311   1.261 -0.9944  1.0196 -0.4780
 7349SOL    HW224680   1.865  10.166   1.273 -1.5969  1.1671 -0.8536
 7350SOL     OW24681   7.616   5.670   2.379  0.3366  0.1510  0.3115
 7350SOL    HW124682   7.548   5.615   2.341  0.9858 -0.6981  0.3435
 7350SOL    HW224683   7.684   5.673   2.311  0.8446 -0.1206  0.8047
 7351SOL     OW24684   9.766   3.649   2.021 -0.4105 -0.2797 -0.7568
 7351SOL    HW124685   9.809   3.701   1.953  1.5983 -0.2299  0.4938
 7351SOL    HW224686   9.708   3.711   2.065  0.1877  0.3258 -0.8017
 7352SOL     OW24687   7.407   0.091   7.858  0.0446  0.1029  0.6001
 7352SOL    HW124688   7.320   0.059   7.836  0.3128 -0.8840  0.9139
 7352SOL    HW224689   7.392   0.177   7.897 -0.6023  0.8796 -1.2824
 7353SOL     OW24690   0.165   1.338   0.449  0.4862  0.3192 -0.0161
 7353SOL    HW124691   0.174   1.335   0.354  0.2599 -2.1510 -0.0335
 7353SOL    HW224692   0.235   1.396   0.478  1.7834 -0.3826 -1.5711
 7354SOL     OW24693   1.532   1.204   2.171  0.3009 -0.2294  0.1734
 7354SOL    HW124694   1.504   1.119   2.138 -0.6019  0.1085  0.0424
 7354SOL    HW224695   1.510   1.201   2.265 -1.8306  0.6634 -0.2449
 7355SOL     OW24696   8.747   0.251   3.946 -0.8940 -0.1030  0.2503
 7355SOL    HW124697   8.738   0.205   3.862 -0.4747  1.2502 -0.5605
 7355SOL    HW224698   8.841   0.250   3.964 -0.7593  1.2845 -0.2872
 7356SOL     OW24699   3.391   7.938   4.406 -0.5723  0.1978 -0.3921
 7356SOL    HW124700   3.442   7.945   4.487 -1.2972 -2.6857  0.4189
 7356SOL    HW224701   3.346   8.022   4.399  0.6430  1.0728  1.3758
 7357SOL     OW24702   8.806   2.034   7.683 -0.1418 -0.4155  0.0896
 7357SOL    HW124703   8.852   1.979   7.746  1.3547  1.5914  0.8916
 7357SOL    HW224704   8.845   2.011   7.598  0.1456 -0.8883  0.3447
 7358SOL     OW24705   6.673   5.858   2.523 -0.3761 -0.3525 -0.6763
 7358SOL    HW124706   6.707   5.916   2.455 -0.5425  1.1282  0.4342
 7358SOL    HW224707   6.613   5.799   2.478 -1.5668  1.4997 -1.6436
 7359SOL     OW24708   7.062   7.397   3.780  0.1070  0.3325 -0.5253
 7359SOL    HW124709   7.034   7.450   3.706 -1.0593 -0.5186 -0.7175
 7359SOL    HW224710   7.012   7.432   3.855  0.2912  0.3314 -0.4006
 7360SOL     OW24711   8.738   7.711   0.618  0.4854  0.2793  0.0984
 7360SOL    HW124712   8.749   7.630   0.669 -2.6580 -1.1481 -1.2361
 7360SOL    HW224713   8.790   7.697   0.539  0.2025 -0.3229  0.0139
 7361SOL     OW24714   9.959   5.580   5.223 -0.1517 -0.4260  0.0092
 7361SOL    HW124715   9.886   5.642   5.228  0.1649 -0.0921  0.7772
 7361SOL    HW224716  10.002   5.599   5.140 -1.5625 -1.3603 -0.9789
 7362SOL     OW24717   7.367   6.331   2.657  0.0289 -0.1348 -0.2648
 7362SOL    HW124718   7.446   6.347   2.708  0.0476  1.4194 -0.7269
 7362SOL    HW224719   7.387   6.364   2.570 -1.9155  2.6429  0.2091
 7363SOL     OW24720   5.700   0.633   4.631  0.1635 -0.4854  0.3063
 7363SOL    HW124721   5.779   0.664   4.586 -0.6463 -0.8387 -1.4237
 7363SOL    HW224722   5.706   0.672   4.719  0.2468  2.9013 -1.0542
 7364SOL     OW24723   1.908   2.658   6.744 -0.5057 -0.4897 -0.6026
 7364SOL    HW124724   1.981   2.710   6.779 -0.2299 -0.5242 -1.1115
 7364SOL    HW224725   1.942   2.569   6.739 -0.1139 -0.2938 -2.0665
 7365SOL     OW24726   6.656   6.358   8.238  0.1251  0.0727 -0.1365
 7365SOL    HW124727   6.638   6.451   8.226  0.6599  0.1800 -0.1637
 7365SOL    HW224728   6.708   6.355   8.319 -1.8661 -0.4454  1.1963
 7366SOL     OW24729   3.431   7.591   2.475  0.1949  0.0185  0.5701
 7366SOL    HW124730   3.399   7.506   2.444  1.5067 -0.2639 -0.0538
 7366SOL    HW224731   3.353   7.634   2.510 -0.2535 -2.0884  2.4345
 7367SOL     OW24732   3.399   6.539   1.174  0.0362 -0.2596 -0.7712
 7367SOL    HW124733   3.345   6.582   1.241 -0.2534 -1.4678 -0.2100
 7367SOL    HW224734   3.425   6.610   1.115 -0.7713  0.6151 -0.1002
 7368SOL     OW24735   9.963   6.088   7.874 -0.7187  0.0629  0.3974
 7368SOL    HW124736   9.909   6.160   7.905  0.1117  1.0030 -0.2513
 7368SOL    HW224737  10.037   6.086   7.934 -0.2720  0.3842 -0.1235
 7369SOL     OW24738   2.044   1.145   0.480  0.6824 -0.4109  0.3462
 7369SOL    HW124739   1.962   1.186   0.506  1.0195  0.9591 -0.6722
 7369SOL    HW224740   2.023   1.100   0.398  1.2595  1.1724 -0.7067
 7370SOL     OW24741   7.362   7.512   0.406 -0.1483 -0.4194 -0.2711
 7370SOL    HW124742   7.328   7.491   0.493  0.5932 -1.1427 -0.1421
 7370SOL    HW224743   7.385   7.604   0.411  0.2072 -0.5383  0.4161
 7371SOL     OW24744   5.079   5.696   0.006  0.2935  0.6550 -1.0799
 7371SOL    HW124745   5.153   5.642  -0.023  0.6153  1.6161 -2.1036
 7371SOL    HW224746   5.094   5.709   0.100  1.5586  1.0276 -1.3085
 7372SOL     OW24747   6.316   8.067   9.275 -0.0624 -0.0546  0.1042
 7372SOL    HW124748   6.372   8.095   9.348 -1.6098  4.6008 -0.1607
 7372SOL    HW224749   6.371   8.076   9.197  0.7319 -2.2434  0.3526
 7373SOL     OW24750   5.842   5.213   5.656  0.3508  0.2495  0.1446
 7373SOL    HW124751   5.809   5.145   5.714 -1.7717 -0.2539 -1.5382
 7373SOL    HW224752   5.937   5.209   5.666  0.3599 -3.1961 -0.0934
 7374SOL     OW24753  10.333   9.205   0.790  0.1908  0.1326  0.8620
 7374SOL    HW124754  10.249   9.249   0.805 -0.3464 -0.2541 -0.8342
 7374SOL    HW224755  10.311   9.126   0.741  1.3709 -0.9484  1.9877
 7375SOL     OW24756   0.091   2.784   5.815  0.7056 -0.7532 -0.1635
 7375SOL    HW124757   0.017   2.813   5.869  0.8782 -0.6409  0.0139
 7375SOL    HW224758   0.164   2.841   5.841  1.4062 -2.1679  1.1186
 7376SOL     OW24759   3.967   5.070   6.771  0.0277  0.0540 -0.0154
 7376SOL    HW124760   4.003   5.152   6.804  2.9608 -1.0576 -0.1869
 7376SOL    HW224761   4.012   5.055   6.688  1.1819 -2.6817  0.9805
 7377SOL     OW24762   3.087   2.223   8.446  0.3310 -0.7495  0.7285
 7377SOL    HW124763   3.041   2.287   8.500  0.4162  1.6703 -1.8267
 7377SOL    HW224764   3.020   2.190   8.385  1.2032  0.5364 -1.0299
 7378SOL     OW24765   5.991  10.058   9.566 -0.0681  0.1683 -0.4805
 7378SOL    HW124766   6.078  10.071   9.605  0.0405 -0.3891 -0.5348
 7378SOL    HW224767   5.998  10.098   9.479  1.1851 -2.7427 -1.8258
 7379SOL     OW24768   0.901   6.209   5.175 -0.1214 -0.3937 -0.0562
 7379SOL    HW124769   0.958   6.180   5.246  0.3549  2.8468  1.0273
 7379SOL    HW224770   0.813   6.181   5.201  0.1255  0.2930  1.5674
 7380SOL     OW24771   5.239   9.069   4.487 -0.4083  0.2003 -0.2238
 7380SOL    HW124772   5.253   9.013   4.410  1.5142  2.4042 -1.6086
 7380SOL    HW224773   5.232   9.007   4.560 -1.2566 -1.9360 -1.9917
 7381SOL     OW24774   8.277   4.717   1.594 -0.2962 -0.0820 -0.3449
 7381SOL    HW124775   8.368   4.707   1.565  0.3143  0.2579  1.3724
 7381SOL    HW224776   8.230   4.647   1.549  0.3305  1.1132 -3.0671
 7382SOL     OW24777   1.812   7.261   6.527 -0.2702 -0.5689  0.4778
 7382SOL    HW124778   1.787   7.246   6.618  0.4410 -1.5321  0.5270
 7382SOL    HW224779   1.905   7.240   6.524 -0.6205 -2.1132 -0.8019
 7383SOL     OW24780   6.938   8.905   2.072 -0.2476 -0.1892 -0.2213
 7383SOL    HW124781   6.990   8.830   2.100  0.7879  0.5767 -0.0073
 7383SOL    HW224782   6.881   8.871   2.003  1.4291 -0.8149 -1.3749
 7384SOL     OW24783   8.229   2.425   8.768  0.2189 -0.1324  0.4495
 7384SOL    HW124784   8.308   2.382   8.734  1.6103  1.1870  1.8716
 7384SOL    HW224785   8.177   2.444   8.690  1.2149 -1.1740 -0.5108
 7385SOL     OW24786   9.280   0.098   8.241 -0.1722  0.2540 -0.3408
 7385SOL    HW124787   9.241   0.160   8.179  0.7139  0.8114 -0.3470
 7385SOL    HW224788   9.373   0.099   8.221 -0.0230 -0.3976  0.2769
 7386SOL     OW24789   1.368   6.146   4.572  0.1326  0.4865 -0.8704
 7386SOL    HW124790   1.424   6.223   4.585 -0.7876  0.7909  1.8025
 7386SOL    HW224791   1.326   6.132   4.657 -0.7745 -2.1715 -1.6623
 7387SOL     OW24792   0.388   3.515   6.983  0.1080  0.3727 -0.2567
 7387SOL    HW124793   0.442   3.536   7.059  1.8579 -1.8593 -0.7548
 7387SOL    HW224794   0.392   3.419   6.977 -0.9009  0.4062 -2.5079
 7388SOL     OW24795   2.245   3.408   0.367 -0.3558  0.2609  0.3173
 7388SOL    HW124796   2.318   3.425   0.427  1.5288 -1.5856 -1.3112
 7388SOL    HW224797   2.204   3.329   0.401 -2.6274  2.0409  2.0317
 7389SOL     OW24798   6.400   2.150   9.989  0.5221 -0.9836 -0.3526
 7389SOL    HW124799   6.363   2.110  10.067  0.9244 -1.1207 -0.2317
 7389SOL    HW224800   6.376   2.243   9.996 -0.8424 -1.2670 -0.8826
 7390SOL     OW24801   3.584   4.794  10.297  0.4298 -0.0866 -0.1311
 7390SOL    HW124802   3.640   4.728  10.338 -0.9425 -0.9379  0.4098
 7390SOL    HW224803   3.567   4.760  10.209 -0.6367 -0.6838  0.2979
 7391SOL     OW24804   4.043   9.837   8.442 -0.0753 -0.0258 -0.2953
 7391SOL    HW124805   3.960   9.804   8.407 -0.1909  0.0175 -0.0562
 7391SOL    HW224806   4.108   9.771   8.414 -0.2618 -0.3067 -0.0701
 7392SOL     OW24807   5.426   2.635   2.414  0.8198 -0.1954  0.3535
 7392SOL    HW124808   5.469   2.710   2.372  1.5063 -0.4476  0.5915
 7392SOL    HW224809   5.350   2.673   2.459  0.1822  0.0990 -0.9458
 7393SOL     OW24810   6.972   6.159   1.749  0.3535 -0.1062 -0.0910
 7393SOL    HW124811   6.930   6.231   1.797  0.6318  1.4013 -2.0028
 7393SOL    HW224812   7.048   6.199   1.708  0.7336 -1.6064 -0.9127
 7394SOL     OW24813   0.873   9.597   6.227 -0.1208  1.0310  0.2219
 7394SOL    HW124814   0.889   9.581   6.134 -0.6153  0.6866  0.1915
 7394SOL    HW224815   0.936   9.664   6.251  1.4518 -0.3721  0.1414
 7395SOL     OW24816   0.135   7.396   9.320  0.3400  0.3175 -0.2002
 7395SOL    HW124817   0.124   7.394   9.415  0.9797 -1.2608 -0.1355
 7395SOL    HW224818   0.174   7.481   9.302  1.1373  0.2352  1.0547
 7396SOL     OW24819   4.985   5.106   2.512  0.3058  0.0537 -0.0531
 7396SOL    HW124820   4.914   5.065   2.464  2.1041 -0.1847 -2.6709
 7396SOL    HW224821   4.991   5.194   2.476  1.4381  0.0207  0.0261
 7397SOL     OW24822   2.407  10.298   4.941  0.0017 -0.0098 -0.2109
 7397SOL    HW124823   2.319  10.278   4.907 -0.1996  0.0788  0.2541
 7397SOL    HW224824   2.401  10.388   4.971  0.3361  0.0876 -0.4374
 7398SOL     OW24825   3.442   7.636   7.708  0.0424 -0.3408  0.6987
 7398SOL    HW124826   3.413   7.595   7.626 -0.8932  0.8433  0.4040
 7398SOL    HW224827   3.519   7.585   7.734  0.4664 -0.6464 -1.0084
 7399SOL     OW24828   5.215   2.573   7.734 -0.0126 -0.1519 -0.8237
 7399SOL    HW124829   5.168   2.643   7.690 -0.3013  0.1644 -0.0192
 7399SOL    HW224830   5.155   2.541   7.801  1.4865  1.4039  1.3929
 7400SOL     OW24831   4.144   8.858   3.462  0.6678 -0.3243  0.0109
 7400SOL    HW124832   4.093   8.806   3.400  1.2239  0.0585 -0.7934
 7400SOL    HW224833   4.175   8.795   3.527 -0.4057 -0.6333  0.2394
 7401SOL     OW24834   0.529   5.491   9.980  0.2395  0.7036 -0.4699
 7401SOL    HW124835   0.590   5.427  10.016 -0.3467 -0.1266 -0.9197
 7401SOL    HW224836   0.466   5.508  10.051 -0.2888 -0.1204 -0.7273
 7402SOL     OW24837  10.092   6.585   4.889  0.0507  0.2792  0.4228
 7402SOL    HW124838  10.119   6.576   4.797  0.5277 -2.6051  0.7633
 7402SOL    HW224839  10.025   6.653   4.887 -1.5047 -1.1272 -2.4589
 7403SOL     OW24840   7.983   2.317   4.008  0.3634 -0.3717 -0.1208
 7403SOL    HW124841   8.076   2.321   3.988  0.2009 -0.8853 -1.0193
 7403SOL    HW224842   7.947   2.397   3.969  0.4637 -0.0034  0.5143
 7404SOL     OW24843   5.007   8.791   1.094 -0.4936 -0.1366 -0.8532
 7404SOL    HW124844   5.012   8.829   1.006 -0.2638  1.6669 -0.1031
 7404SOL    HW224845   4.939   8.724   1.087  0.9482 -1.5009 -2.8984
 7405SOL     OW24846   7.913   2.881   3.355  0.0199 -0.2394 -0.5109
 7405SOL    HW124847   7.911   2.932   3.436  2.3769 -1.2881  0.3117
 7405SOL    HW224848   7.822   2.871   3.330 -0.6956  1.2140  1.3142
 7406SOL     OW24849   1.064   4.751   0.515  0.4915 -0.2748 -0.2944
 7406SOL    HW124850   1.134   4.817   0.512 -0.3680  0.6219 -1.3752
 7406SOL    HW224851   1.027   4.759   0.603  0.8170  0.2436 -0.2004
 7407SOL     OW24852   6.032   3.808   1.695  0.2076  0.0564  0.4614
 7407SOL    HW124853   5.970   3.853   1.638  0.7834 -0.0275 -0.2354
 7407SOL    HW224854   5.990   3.724   1.714  1.2410 -1.1599 -2.2057
 7408SOL     OW24855   2.098   9.980   0.399 -0.3705  0.3909 -0.0408
 7408SOL    HW124856   2.192   9.967   0.385 -0.6367 -1.6598 -0.2535
 7408SOL    HW224857   2.092  10.065   0.443  1.5887  0.4814  0.1549
 7409SOL     OW24858   6.476   6.768   3.093  0.6954 -0.0215  0.7497
 7409SOL    HW124859   6.410   6.789   3.027  1.6391  0.0226 -0.2076
 7409SOL    HW224860   6.458   6.830   3.164  0.6667  1.0567 -0.1523
 7410SOL     OW24861   1.420   1.715   9.219  0.6447  0.1947  0.2161
 7410SOL    HW124862   1.350   1.727   9.154 -0.3752 -0.3592  1.1852
 7410SOL    HW224863   1.399   1.777   9.289  1.2063  0.1217  0.4516
 7411SOL     OW24864   2.277   3.271   4.385  0.0239  0.3394  0.6100
 7411SOL    HW124865   2.352   3.326   4.365  0.7255 -0.2192  1.5864
 7411SOL    HW224866   2.223   3.274   4.307  1.8569 -0.5213 -0.7696
 7412SOL     OW24867   3.158   2.344   4.278  0.0485 -0.4221  0.3257
 7412SOL    HW124868   3.151   2.288   4.355 -2.0590  0.8438  1.1124
 7412SOL    HW224869   3.103   2.419   4.297  0.1276  0.3312 -2.0895
 7413SOL     OW24870   9.847   4.002   4.609  0.1767  0.1049  0.0242
 7413SOL    HW124871   9.915   3.968   4.551 -1.8862 -1.9956 -1.4169
 7413SOL    HW224872   9.869   3.967   4.695  0.0340 -2.1435 -0.7647
 7414SOL     OW24873   6.666   2.622   1.450  0.2379  0.2740 -0.8275
 7414SOL    HW124874   6.611   2.607   1.527  0.2431  0.8521 -0.7080
 7414SOL    HW224875   6.671   2.717   1.442  1.8814  0.2613 -0.3642
 7415SOL     OW24876   5.983   5.807   8.970  0.1690 -0.1748 -0.3450
 7415SOL    HW124877   5.956   5.884   8.920 -0.1961  1.1465  1.7622
 7415SOL    HW224878   5.902   5.775   9.010  0.8087  0.5571  1.6603
 7416SOL     OW24879   0.629   6.299   4.513 -0.1525 -0.1182 -0.1918
 7416SOL    HW124880   0.674   6.358   4.451 -1.6418  1.6258  0.2778
 7416SOL    HW224881   0.672   6.215   4.501  1.7064  0.9045 -1.3483
 7417SOL     OW24882   9.636   4.897   9.872 -0.6882  0.6973 -0.2797
 7417SOL    HW124883   9.632   4.820   9.815 -0.7210 -0.9792  1.8797
 7417SOL    HW224884   9.545   4.922   9.885 -0.8044 -0.1176  0.5523
 7418SOL     OW24885   0.824   5.749   6.544 -0.3952  0.5145  0.5165
 7418SOL    HW124886   0.916   5.727   6.561 -0.6366  0.9706  2.8178
 7418SOL    HW224887   0.821   5.844   6.553 -1.2553  0.4086  1.6146
 7419SOL     OW24888   2.767   6.882   0.242  0.4191  0.1904  0.1790
 7419SOL    HW124889   2.862   6.896   0.246  0.8289 -1.5847 -1.6964
 7419SOL    HW224890   2.745   6.895   0.150 -1.5303  2.3450  0.8569
 7420SOL     OW24891   8.927   8.676  10.292 -0.3963 -0.2177  0.4696
 7420SOL    HW124892   8.989   8.649  10.360  0.5993 -1.9335 -1.0354
 7420SOL    HW224893   8.854   8.613  10.300  0.2917 -1.2230 -0.7778
 7421SOL     OW24894   4.090   2.059   5.034 -0.1000  0.2294 -0.1218
 7421SOL    HW124895   4.149   2.081   4.961  1.2521  1.0373  1.1627
 7421SOL    HW224896   4.110   1.967   5.053  0.1964  0.2795 -0.1817
 7422SOL     OW24897   5.453   5.340   0.966 -0.3595 -0.4078  0.0828
 7422SOL    HW124898   5.458   5.407   0.897  1.6586 -1.1809 -0.5976
 7422SOL    HW224899   5.359   5.322   0.975 -0.8455  1.3900 -0.7852
 7423SOL     OW24900   6.553   2.351   6.971  0.1782  0.2736  0.4710
 7423SOL    HW124901   6.471   2.321   6.932  0.4204 -0.6154  0.6176
 7423SOL    HW224902   6.621   2.317   6.912  0.5453 -0.9908  1.5561
 7424SOL     OW24903   2.523   7.627   9.785 -0.4425 -0.0494  0.0993
 7424SOL    HW124904   2.551   7.544   9.823 -1.3292  0.3226  1.6736
 7424SOL    HW224905   2.474   7.603   9.707  0.9506 -0.8765 -0.5675
 7425SOL     OW24906   0.106   6.308   5.608 -0.1061  0.0314 -0.0846
 7425SOL    HW124907   0.174   6.247   5.579  0.6662  0.5989  0.4831
 7425SOL    HW224908   0.049   6.255   5.664  0.7828 -0.0978  0.7308
 7426SOL     OW24909  10.146   1.711   5.711 -0.5222  0.0529 -0.1588
 7426SOL    HW124910  10.213   1.737   5.648  0.2119  1.3438  1.0926
 7426SOL    HW224911  10.072   1.770   5.694 -0.2843  0.4706  0.2498
 7427SOL     OW24912  10.309   1.187   4.825  0.1156  0.1105 -0.2985
 7427SOL    HW124913  10.330   1.276   4.853 -0.2887  0.7129 -1.7833
 7427SOL    HW224914  10.346   1.182   4.737  1.6358 -1.7814  0.3906
 7428SOL     OW24915   5.342   5.160   9.000 -0.2140  0.5194 -0.4599
 7428SOL    HW124916   5.287   5.237   9.013  0.6571  1.1042 -0.1533
 7428SOL    HW224917   5.393   5.180   8.921  1.0833  0.9186  0.4453
 7429SOL     OW24918   6.442   4.413   5.890 -0.3155  0.7843  0.4706
 7429SOL    HW124919   6.500   4.439   5.819  0.2153  2.1512  1.3713
 7429SOL    HW224920   6.496   4.357   5.946 -0.2845  0.9297  0.5857
 7430SOL     OW24921   9.149   8.216   4.316 -0.7281 -0.2434 -0.4560
 7430SOL    HW124922   9.135   8.124   4.296 -1.0426 -0.1033 -0.9044
 7430SOL    HW224923   9.081   8.262   4.267 -0.8165  0.1984  0.0731
 7431SOL     OW24924   6.822   5.914   7.736  0.0839 -0.6873 -0.2677
 7431SOL    HW124925   6.789   5.976   7.800 -0.1523 -0.1209 -0.9235
 7431SOL    HW224926   6.786   5.944   7.652  1.7601 -0.3762 -0.9323
 7432SOL     OW24927   8.554   8.747   2.148 -0.1583  0.2637  0.0446
 7432SOL    HW124928   8.620   8.810   2.118  0.6966 -0.4337  0.4038
 7432SOL    HW224929   8.477   8.800   2.169  0.6456  1.2191  0.6288
 7433SOL     OW24930   6.065   2.765   9.981 -0.2223 -0.0661  0.5315
 7433SOL    HW124931   6.048   2.774   9.887 -1.3626  1.0956  0.8178
 7433SOL    HW224932   6.085   2.672   9.993  1.2127 -0.0028 -1.0314
 7434SOL     OW24933   5.920   7.493   1.259 -0.2594 -0.7475  0.3098
 7434SOL    HW124934   5.925   7.573   1.311  0.9785 -1.0596  0.7143
 7434SOL    HW224935   6.008   7.455   1.266 -0.9286 -2.3313  0.4356
 7435SOL     OW24936   2.727   6.037   6.036 -0.1065 -0.8779 -0.3685
 7435SOL    HW124937   2.716   6.116   5.983 -2.4960  0.4074  1.8048
 7435SOL    HW224938   2.641   6.023   6.076  0.7732 -3.5091  0.8117
 7436SOL     OW24939   9.481   4.928   0.324 -0.1559  0.2178 -0.1242
 7436SOL    HW124940   9.429   4.995   0.369  0.1651  0.2349  0.2316
 7436SOL    HW224941   9.458   4.846   0.368 -2.0056 -0.2458 -1.8078
 7437SOL     OW24942   1.555   8.096   0.387  0.4363 -0.3376  0.1940
 7437SOL    HW124943   1.591   8.171   0.339 -0.7696  0.7392  0.9160
 7437SOL    HW224944   1.626   8.070   0.446  1.2048 -0.3859 -0.7227
 7438SOL     OW24945   1.181   1.345   6.892 -0.0131 -0.1221 -0.3654
 7438SOL    HW124946   1.176   1.260   6.936  0.7875  0.7205  1.4181
 7438SOL    HW224947   1.092   1.379   6.897 -0.1480 -0.4691 -0.3261
 7439SOL     OW24948   8.109   8.394   3.592  0.5254 -0.5530  0.2873
 7439SOL    HW124949   8.175   8.353   3.537  0.2983 -0.6831  0.1097
 7439SOL    HW224950   8.050   8.438   3.531  2.2494  2.3288  0.5756
 7440SOL     OW24951   2.780   3.919   2.723 -0.3662  0.1367 -0.1119
 7440SOL    HW124952   2.718   3.984   2.757  0.8834  0.6381  1.3074
 7440SOL    HW224953   2.739   3.835   2.745 -1.1676  0.4351 -0.4025
 7441SOL     OW24954   9.212   5.571   8.004  0.0723 -0.0459 -0.1386
 7441SOL    HW124955   9.297   5.614   8.000  0.5834 -1.1056 -1.5050
 7441SOL    HW224956   9.230   5.486   8.044 -0.5108  0.0539  0.3614
 7442SOL     OW24957   6.742   9.271   6.496  0.4773 -0.3324 -0.0730
 7442SOL    HW124958   6.772   9.338   6.435 -0.2731 -1.1110 -1.3579
 7442SOL    HW224959   6.697   9.319   6.566 -1.3810  0.4707 -1.7291
 7443SOL     OW24960   5.256   1.989   6.765 -0.0797  0.2355  0.0531
 7443SOL    HW124961   5.305   1.930   6.708 -2.3875 -0.8611 -0.9359
 7443SOL    HW224962   5.167   1.953   6.766 -0.2900  0.4116  4.1016
 7444SOL     OW24963   2.555   9.472   7.475  0.0577  0.3511 -0.4491
 7444SOL    HW124964   2.466   9.499   7.453 -0.2917 -0.7125 -0.4124
 7444SOL    HW224965   2.553   9.459   7.570  0.0579 -0.3421 -0.5407
 7445SOL     OW24966   0.112   3.236   6.899  0.0872  0.5236 -0.1964
 7445SOL    HW124967   0.091   3.255   6.808 -2.0218 -0.4602  0.0125
 7445SOL    HW224968   0.201   3.201   6.897  0.2952  1.0703 -1.7745
 7446SOL     OW24969  10.116   0.262   1.843  0.2375 -0.4656  0.5758
 7446SOL    HW124970  10.047   0.249   1.777  0.5174  0.1890  0.1466
 7446SOL    HW224971  10.159   0.177   1.850  1.8159  0.0204 -1.9281
 7447SOL     OW24972   5.941   5.444   5.193  0.3800  0.2165 -0.2450
 7447SOL    HW124973   5.945   5.401   5.278 -1.5685 -2.8637 -1.5414
 7447SOL    HW224974   5.989   5.386   5.134 -0.5246  0.9033 -1.7299
 7448SOL     OW24975   8.603   0.781   2.638 -0.1324  0.3564  0.4183
 7448SOL    HW124976   8.672   0.780   2.705 -1.4228 -1.9433  1.8599
 7448SOL    HW224977   8.616   0.864   2.592  2.6519  0.6885  1.5768
 7449SOL     OW24978  10.323   3.027   2.827  0.7302  0.4068  0.3409
 7449SOL    HW124979  10.252   2.985   2.777  1.3202  0.3431 -0.4756
 7449SOL    HW224980  10.280   3.068   2.902 -0.0282 -0.5416  0.4338
 7450SOL     OW24981   0.147   2.252   9.675  0.1800 -0.3531 -0.4629
 7450SOL    HW124982   0.052   2.254   9.661  0.2219 -1.6776 -1.0287
 7450SOL    HW224983   0.158   2.265   9.769 -0.7720 -3.5360  0.1937
 7451SOL     OW24984   4.727   3.983  10.276  0.2969  0.4011  0.1097
 7451SOL    HW124985   4.793   3.967  10.343 -0.1045 -1.2402  0.1393
 7451SOL    HW224986   4.650   4.013  10.324  0.0805 -0.5605  0.3645
 7452SOL     OW24987   6.775   5.088  10.005 -0.0735 -0.5516 -0.4249
 7452SOL    HW124988   6.800   5.060  10.092 -0.8935 -0.0197 -0.0051
 7452SOL    HW224989   6.843   5.052   9.947  1.0130 -0.0682  0.5272
 7453SOL     OW24990   3.169   0.289   5.574  0.4200  0.0346  0.1927
 7453SOL    HW124991   3.129   0.370   5.543  0.2339 -0.6729 -1.5127
 7453SOL    HW224992   3.105   0.253   5.635 -0.3957  0.1940 -0.5470
 7454SOL     OW24993   1.317   7.273   0.699 -0.2298 -0.1544 -0.0416
 7454SOL    HW124994   1.358   7.186   0.699  0.8068  0.3237 -0.4074
 7454SOL    HW224995   1.328   7.305   0.610  0.6603  0.9233  0.4360
 7455SOL     OW24996   4.890   2.967   5.169 -0.3706 -0.4388 -0.7112
 7455SOL    HW124997   4.799   2.981   5.142 -0.0147  0.7531 -1.3557
 7455SOL    HW224998   4.884   2.942   5.261 -1.2332  2.2564  0.0440
 7456SOL     OW24999   5.186   3.074   0.043 -0.6665 -0.3841  0.0590
 7456SOL    HW125000   5.278   3.049   0.050 -0.8949 -0.9529  1.4150
 7456SOL    HW225001   5.149   3.011  -0.018 -0.9803 -2.8307  2.5692
 7457SOL     OW25002   7.106   6.636   0.262  0.0299  0.1822  0.0328
 7457SOL    HW125003   7.081   6.544   0.267  2.0767 -0.4258  0.1900
 7457SOL    HW225004   7.196   6.634   0.229  1.0896  1.9417  2.4928
 7458SOL     OW25005   5.608   5.562   0.285 -0.0483  0.1849  0.3848
 7458SOL    HW125006   5.569   5.514   0.213 -0.5938  0.9127  0.1822
 7458SOL    HW225007   5.563   5.647   0.285  0.2307  0.3492  1.3187
 7459SOL     OW25008   3.525   1.356   3.218 -0.0101  0.1758 -0.2854
 7459SOL    HW125009   3.540   1.269   3.179 -1.5361 -1.3733  2.2837
 7459SOL    HW225010   3.445   1.387   3.175 -0.1409 -0.2697 -0.3787
 7460SOL     OW25011   4.240   5.747   9.761  0.3981  0.3562 -0.3263
 7460SOL    HW125012   4.271   5.711   9.678  0.4444 -0.2074 -0.0691
 7460SOL    HW225013   4.293   5.703   9.828 -0.4941 -0.1400  0.0773
 7461SOL     OW25014   3.811   8.683   3.318 -0.4380 -0.6147 -0.2365
 7461SOL    HW125015   3.863   8.611   3.354  1.9741  0.7912 -0.7068
 7461SOL    HW225016   3.793   8.658   3.228  1.6220 -0.1000 -0.8465
 7462SOL     OW25017   0.445   1.125   2.342  0.5739  0.1666  0.0506
 7462SOL    HW125018   0.515   1.084   2.291 -1.5979 -2.6686 -0.9241
 7462SOL    HW225019   0.392   1.170   2.277 -0.6709 -1.1226  0.1172
 7463SOL     OW25020   9.447   0.226   1.150  0.2890 -0.4668  0.2243
 7463SOL    HW125021   9.534   0.255   1.177  0.8171 -1.7373 -0.0432
 7463SOL    HW225022   9.414   0.297   1.095  0.3158  0.9209  1.9523
 7464SOL     OW25023   1.660   6.969   4.882 -0.3343 -0.0634  0.2818
 7464SOL    HW125024   1.612   6.977   4.964 -0.3154  0.4939  0.2446
 7464SOL    HW225025   1.685   7.059   4.860  0.4458 -0.3004  0.1401
 7465SOL     OW25026   6.787   8.805   0.677  0.5835  0.2810 -0.4503
 7465SOL    HW125027   6.823   8.861   0.609  0.3971 -0.2915 -1.0299
 7465SOL    HW225028   6.850   8.733   0.685  0.4340  0.1693 -0.2623
 7466SOL     OW25029   0.360   1.196   2.911 -0.3894 -0.5564  0.2763
 7466SOL    HW125030   0.266   1.196   2.932 -0.3589  0.7029  0.4524
 7466SOL    HW225031   0.401   1.170   2.994 -0.5636 -0.7890  0.2926
 7467SOL     OW25032   2.518   6.606   8.859 -0.2236  0.1316 -0.0716
 7467SOL    HW125033   2.512   6.515   8.831  0.3373  0.1933 -0.3924
 7467SOL    HW225034   2.429   6.640   8.849 -0.4678 -0.4227  0.1991
 7468SOL     OW25035   0.699   9.511   7.693  0.0732  0.4595  0.1495
 7468SOL    HW125036   0.652   9.584   7.651  0.6967  1.4958  1.2028
 7468SOL    HW225037   0.790   9.541   7.697  0.8498 -1.4150 -1.6346
 7469SOL     OW25038   5.514   5.806   0.628  0.2753 -0.2188 -0.4588
 7469SOL    HW125039   5.472   5.723   0.604 -0.0893 -0.4530  0.8808
 7469SOL    HW225040   5.608   5.788   0.621  0.1888 -0.5277 -0.8504
 7470SOL     OW25041   7.420   7.934   8.026 -0.1070 -0.3262  0.2853
 7470SOL    HW125042   7.440   8.026   8.011  2.0154 -0.6780  0.6701
 7470SOL    HW225043   7.327   7.926   8.003 -0.0242  1.6195 -0.9825
 7471SOL     OW25044   3.738   7.389   1.815 -0.5252 -0.5370  0.3939
 7471SOL    HW125045   3.802   7.450   1.780 -0.5922 -0.1091  0.9922
 7471SOL    HW225046   3.779   7.303   1.806 -2.0583 -1.0341 -4.3153
 7472SOL     OW25047   3.618   3.226   1.421  0.5463 -0.4861 -0.0701
 7472SOL    HW125048   3.632   3.139   1.383  1.6250 -0.1208 -0.5234
 7472SOL    HW225049   3.663   3.286   1.361 -1.1533  0.5263 -0.3993
 7473SOL     OW25050   3.851   5.616   8.089  0.6837 -0.6469 -0.1768
 7473SOL    HW125051   3.821   5.636   8.000  0.3917  1.9530  0.4395
 7473SOL    HW225052   3.772   5.614   8.142  0.8055 -2.6639 -0.0018
 7474SOL     OW25053   3.742   9.678   4.200  0.6326  0.6512  0.1180
 7474SOL    HW125054   3.810   9.612   4.216 -0.4678 -0.2174  1.5168
 7474SOL    HW225055   3.768   9.753   4.254  0.4917  0.3074  0.6785
 7475SOL     OW25056  10.029   7.221   1.469 -0.2377 -0.0762  1.1865
 7475SOL    HW125057  10.038   7.131   1.438  0.1095  0.1980  0.4504
 7475SOL    HW225058   9.936   7.241   1.460 -0.6260 -0.9058  2.9642
 7476SOL     OW25059   2.247   4.016   7.398  0.0870  0.4219 -0.1730
 7476SOL    HW125060   2.185   3.994   7.468  0.7875  0.3426  0.4441
 7476SOL    HW225061   2.270   3.931   7.359 -1.1939  0.5628 -1.3070
 7477SOL     OW25062   2.615   3.694   1.147 -0.2374 -0.8310 -0.3068
 7477SOL    HW125063   2.594   3.776   1.192  0.2966 -1.0568  0.3617
 7477SOL    HW225064   2.563   3.698   1.066 -3.3811 -1.5982  1.4890
 7478SOL     OW25065   4.956   9.760  10.078 -0.6382  0.4524 -0.0855
 7478SOL    HW125066   4.949   9.752  10.173 -0.9647  2.0684  0.0662
 7478SOL    HW225067   4.875   9.720  10.045 -0.7621  0.3344  0.3497
 7479SOL     OW25068   7.942   5.020   8.644 -0.3298 -0.6282 -0.1182
 7479SOL    HW125069   7.936   5.115   8.646 -0.6316 -0.6678  0.9473
 7479SOL    HW225070   7.854   4.990   8.624 -0.1750 -0.6866 -0.7482
 7480SOL     OW25071   9.686   2.847   8.069 -0.1406  0.0777  0.0700
 7480SOL    HW125072   9.592   2.865   8.071 -0.6001 -1.5923 -2.4572
 7480SOL    HW225073   9.715   2.879   7.984  1.5734  0.3643  0.7183
 7481SOL     OW25074   5.400   7.438   3.421 -0.5392  0.4130  0.1208
 7481SOL    HW125075   5.349   7.362   3.392  0.7416 -0.2695 -0.4373
 7481SOL    HW225076   5.403   7.495   3.345  1.1809 -0.4793 -0.5248
 7482SOL     OW25077   5.506   6.724   2.303  0.3379 -0.1531 -0.0630
 7482SOL    HW125078   5.528   6.745   2.212 -0.2191  2.2077  0.2690
 7482SOL    HW225079   5.457   6.642   2.298  0.6998 -0.3022 -1.8222
 7483SOL     OW25080   7.035   1.777   3.685  0.0864 -0.6002 -0.2218
 7483SOL    HW125081   7.108   1.820   3.730 -0.4692 -0.2373  0.3568
 7483SOL    HW225082   7.045   1.801   3.593 -1.1013  2.1560  0.2771
 7484SOL     OW25083   7.615   5.259   0.186  0.3666  0.1903 -0.1375
 7484SOL    HW125084   7.662   5.228   0.109 -0.5560 -2.0678  0.1192
 7484SOL    HW225085   7.635   5.194   0.254 -1.0635  0.5524  0.6752
 7485SOL     OW25086   5.592   3.890   2.711  0.2548  0.1643  0.2690
 7485SOL    HW125087   5.657   3.931   2.768 -0.4075  0.9989  0.4344
 7485SOL    HW225088   5.508   3.915   2.748 -0.2104  1.1506 -1.3642
 7486SOL     OW25089   8.885   6.455   1.987  0.1238 -0.0216 -0.2579
 7486SOL    HW125090   8.959   6.419   1.938 -0.0590 -0.9223  0.0874
 7486SOL    HW225091   8.920   6.531   2.032  0.3721  0.6493 -1.5282
 7487SOL     OW25092   1.903   7.146   1.631 -0.0977  0.3096  0.6154
 7487SOL    HW125093   1.885   7.123   1.540  1.0463  0.2246  0.3917
 7487SOL    HW225094   1.867   7.234   1.641 -1.1790 -0.0938  0.4022
 7488SOL     OW25095   6.344   6.928   6.948  0.3617  0.0884 -0.1873
 7488SOL    HW125096   6.404   6.988   6.992 -0.0391 -0.0191  0.5214
 7488SOL    HW225097   6.291   6.984   6.892  0.9422  0.2148 -0.6233
 7489SOL     OW25098   3.258  10.281   3.277  0.1214 -1.0101 -0.2958
 7489SOL    HW125099   3.163  10.295   3.284  0.1477  0.1794 -1.7350
 7489SOL    HW225100   3.297  10.364   3.302  0.7065 -1.0464 -1.0409
 7490SOL     OW25101   0.826   7.054   5.286  0.6491 -0.4588 -0.1172
 7490SOL    HW125102   0.812   6.960   5.279  0.7020 -0.6315  1.7439
 7490SOL    HW225103   0.876   7.077   5.207  1.7335 -2.1928  0.0254
 7491SOL     OW25104   9.907   5.319   5.291 -0.2688  0.1024 -0.8019
 7491SOL    HW125105   9.936   5.400   5.249  1.0946  0.7027  1.1667
 7491SOL    HW225106   9.857   5.347   5.367  0.9510 -0.8491  0.3982
 7492SOL     OW25107   0.196   6.685   9.136 -0.2800  0.5676 -0.4386
 7492SOL    HW125108   0.178   6.592   9.145  0.0341  0.5962  0.6419
 7492SOL    HW225109   0.220   6.697   9.044  2.3298 -0.8997 -0.0489
 7493SOL     OW25110   4.555   7.318   3.436 -0.6180  0.3213  0.1170
 7493SOL    HW125111   4.464   7.344   3.445 -1.0464 -0.3998 -1.6300
 7493SOL    HW225112   4.551   7.228   3.403  0.6935  0.6468 -1.0242
 7494SOL     OW25113   0.842   6.482   0.319 -0.9488  0.1649 -0.0609
 7494SOL    HW125114   0.904   6.510   0.252 -0.5312 -1.2240 -0.2952
 7494SOL    HW225115   0.760   6.524   0.295 -0.3264  1.3077 -0.2637
 7495SOL     OW25116   9.777   1.200   0.229  0.8857 -0.2217  0.1720
 7495SOL    HW125117   9.750   1.253   0.304 -0.0168 -0.7591  0.2337
 7495SOL    HW225118   9.766   1.257   0.153  0.8489 -0.0095  0.3365
 7496SOL     OW25119   5.281   4.563   9.822 -0.3318  0.4524  0.1931
 7496SOL    HW125120   5.215   4.498   9.795  0.1226  0.3673 -0.7467
 7496SOL    HW225121   5.327   4.585   9.741  1.3909 -0.1422  0.9836
 7497SOL     OW25122   3.977   3.576   6.833 -0.3105  0.5242 -0.4641
 7497SOL    HW125123   3.933   3.612   6.910  0.7788 -0.0365  0.4577
 7497SOL    HW225124   4.064   3.616   6.834 -1.0059  2.3156 -2.7734
 7498SOL     OW25125   9.391   8.151   1.764 -0.2157 -0.3506 -0.0118
 7498SOL    HW125126   9.449   8.178   1.692  0.5796 -1.1987  0.2951
 7498SOL    HW225127   9.352   8.069   1.734 -0.5760 -0.2459  0.1588
 7499SOL     OW25128   8.665   3.539   3.978 -0.4048  0.1193 -0.2392
 7499SOL    HW125129   8.582   3.527   4.024 -0.4150  1.1558  0.0281
 7499SOL    HW225130   8.641   3.587   3.898 -0.1430 -0.1514 -0.4852
 7500SOL     OW25131   8.387   1.104   1.469  0.3015  0.4956 -0.2171
 7500SOL    HW125132   8.469   1.131   1.427  0.5928 -1.0936 -0.7350
 7500SOL    HW225133   8.394   1.009   1.475 -1.5156  0.3372 -0.2822
 7501SOL     OW25134  10.136   2.065   5.002  0.8350 -0.0495 -0.4325
 7501SOL    HW125135  10.057   2.119   4.999  0.6969 -0.0347  1.6789
 7501SOL    HW225136  10.188   2.094   4.927 -0.7127  0.6508 -1.2703
 7502SOL     OW25137   2.192   5.747   1.357  0.1420 -0.1884 -0.3580
 7502SOL    HW125138   2.192   5.838   1.386 -1.0050 -0.1647 -0.3731
 7502SOL    HW225139   2.121   5.706   1.407  0.9668 -1.2055  0.0280
 7503SOL     OW25140   1.591   3.618   1.897 -0.0827 -0.2258 -0.3790
 7503SOL    HW125141   1.563   3.613   1.806  0.6905 -0.6951 -0.6015
 7503SOL    HW225142   1.599   3.527   1.925  3.0199 -0.2399 -0.9247
 7504SOL     OW25143   0.854   4.032   5.905 -0.5432 -0.2918 -0.0632
 7504SOL    HW125144   0.934   4.078   5.932 -0.7457 -0.3405  0.6272
 7504SOL    HW225145   0.783   4.090   5.932 -0.8344 -1.2805  1.3946
 7505SOL     OW25146   2.872   3.594   5.320 -0.2869 -0.0495 -0.2265
 7505SOL    HW125147   2.834   3.529   5.261  1.6653 -0.5464 -1.0361
 7505SOL    HW225148   2.966   3.586   5.306  0.0675  2.4287  0.1989
 7506SOL     OW25149   4.813   1.922   9.002 -0.0402 -0.0348  0.9887
 7506SOL    HW125150   4.879   1.857   9.029  1.5142  1.1687  0.2595
 7506SOL    HW225151   4.787   1.964   9.084  0.9700  0.2531  1.1744
 7507SOL     OW25152   1.056   4.829   2.229 -0.8817  0.6017  0.0696
 7507SOL    HW125153   0.974   4.861   2.265 -0.1891  0.2005  2.1822
 7507SOL    HW225154   1.057   4.736   2.251  0.5504  0.8015  1.0481
 7508SOL     OW25155   5.446   3.160   5.825 -1.3304  0.4080 -0.5606
 7508SOL    HW125156   5.514   3.195   5.768  0.9458  0.2036  1.8779
 7508SOL    HW225157   5.439   3.223   5.897 -1.9758 -0.8017  0.4780
 7509SOL     OW25158  10.204   2.825   6.184  0.0181  0.1764  0.3206
 7509SOL    HW125159  10.132   2.824   6.121  2.4590  0.7914 -2.7221
 7509SOL    HW225160  10.216   2.733   6.206 -0.2820 -0.1851 -0.9157
 7510SOL     OW25161   3.586   8.387   7.281 -0.3881 -0.0754  0.3024
 7510SOL    HW125162   3.663   8.366   7.229  0.4609  1.3269  0.9297
 7510SOL    HW225163   3.571   8.310   7.335 -1.2354 -1.5293 -1.8714
 7511SOL     OW25164   2.363  10.347   6.857  0.8408  0.4288 -0.3943
 7511SOL    HW125165   2.454  10.324   6.843  1.0378  0.2864  0.9372
 7511SOL    HW225166   2.313  10.280   6.811  1.4180 -0.4941  0.3099
 7512SOL     OW25167   8.286   5.030   9.701  0.0415  0.2366  0.0907
 7512SOL    HW125168   8.350   5.026   9.630 -1.5313  0.6008 -1.4144
 7512SOL    HW225169   8.230   4.953   9.687  0.1232 -0.0850  1.3836
 7513SOL     OW25170   5.298   4.687   1.484  0.2732 -0.0013  0.0116
 7513SOL    HW125171   5.242   4.742   1.538 -0.2059 -0.5466  0.0813
 7513SOL    HW225172   5.318   4.611   1.539 -0.4483 -0.6989 -0.6576
 7514SOL     OW25173   3.899   8.388   3.509  0.6202 -0.0716  0.5298
 7514SOL    HW125174   3.878   8.313   3.454  0.0754 -0.7448  1.6087
 7514SOL    HW225175   3.946   8.448   3.452 -1.6808  0.1993 -1.2350
 7515SOL     OW25176   8.707   8.663   9.020 -0.0123 -0.0183  0.0408
 7515SOL    HW125177   8.645   8.733   8.999 -0.0271  0.6000  1.9442
 7515SOL    HW225178   8.793   8.700   9.003 -0.0294  0.4329  0.8796
 7516SOL     OW25179   2.770   5.985   2.980  0.1443 -0.0665 -0.4179
 7516SOL    HW125180   2.769   5.958   2.889 -0.2688  1.9333 -1.0709
 7516SOL    HW225181   2.690   6.036   2.991 -0.6075 -1.5394  1.5207
 7517SOL     OW25182   9.545   5.186   9.603  0.4353 -0.1852  0.5471
 7517SOL    HW125183   9.537   5.091   9.603 -2.1755 -0.0316 -0.0752
 7517SOL    HW225184   9.485   5.215   9.672 -0.4089  1.0657 -0.6630
 7518SOL     OW25185   3.420   0.469   9.959 -0.1603  0.7430 -0.0118
 7518SOL    HW125186   3.457   0.464   9.871 -1.0200 -0.3531 -0.3393
 7518SOL    HW225187   3.483   0.421  10.014 -1.8670 -2.9324 -0.8997
 7519SOL     OW25188   8.575   7.757   0.976 -0.0139  1.4602 -0.9135
 7519SOL    HW125189   8.502   7.808   0.942 -0.4480  1.1830 -0.4175
 7519SOL    HW225190   8.639   7.821   1.006  0.2005  1.7060 -1.8710
 7520SOL     OW25191   0.803   5.015   2.653  0.3663  0.3040 -0.3179
 7520SOL    HW125192   0.739   4.979   2.714  0.9291 -0.2836 -0.0597
 7520SOL    HW225193   0.764   5.097   2.623 -1.4234 -0.9882 -1.7301
 7521SOL     OW25194   6.537   9.531   9.286 -0.1154 -0.1098 -0.6383
 7521SOL    HW125195   6.469   9.550   9.351  1.4145 -0.5562  1.1743
 7521SOL    HW225196   6.508   9.449   9.245 -1.3624  0.4443 -0.9180
 7522SOL     OW25197   2.170   7.977   7.969  0.0174  0.0523  0.0004
 7522SOL    HW125198   2.262   7.970   7.996  0.2769 -2.0431 -1.1681
 7522SOL    HW225199   2.122   7.927   8.035 -0.2661  0.8628  0.4231
 7523SOL     OW25200   7.021   0.127   5.530  0.3729  0.0234 -0.2539
 7523SOL    HW125201   7.069   0.189   5.476  1.9041 -0.7997  0.1106
 7523SOL    HW225202   6.931   0.159   5.529  0.6226  0.7776 -2.1692
 7524SOL     OW25203   9.474   3.462   6.194 -0.0876  0.3547 -0.3612
 7524SOL    HW125204   9.560   3.478   6.154  0.9248 -0.7210  1.2360
 7524SOL    HW225205   9.472   3.368   6.209 -1.9372  0.2402 -1.1381
 7525SOL     OW25206   6.474   0.868   7.053 -0.1637 -0.0543  0.0463
 7525SOL    HW125207   6.414   0.847   6.982  0.2281 -1.2371  0.0540
 7525SOL    HW225208   6.553   0.819   7.033  0.9219  1.6456 -0.0979
 7526SOL     OW25209   2.052   6.878   0.826 -0.3845 -0.2018  0.2038
 7526SOL    HW125210   2.089   6.792   0.806 -1.4887 -0.5818 -0.2935
 7526SOL    HW225211   2.085   6.935   0.756 -0.1341 -0.3584  0.1921
 7527SOL     OW25212   1.977   8.414   5.267 -0.0083  0.0586  0.3205
 7527SOL    HW125213   2.017   8.328   5.281  0.0022 -0.0204 -0.1696
 7527SOL    HW225214   1.903   8.397   5.209 -0.0265  0.3757  0.2475
 7528SOL     OW25215   9.721   3.361   8.467 -0.0260  0.8755  0.7349
 7528SOL    HW125216   9.749   3.340   8.378 -0.1687 -0.6066  1.0142
 7528SOL    HW225217   9.666   3.439   8.458 -2.5306 -0.9659 -0.8989
 7529SOL     OW25218   6.609   9.186   8.254  0.5345 -0.2829  0.0318
 7529SOL    HW125219   6.639   9.097   8.272 -0.0829 -0.5307 -0.1163
 7529SOL    HW225220   6.681   9.227   8.207  0.0822 -1.3439 -1.6958
 7530SOL     OW25221   7.916   4.229   0.352 -0.7957 -0.2222  0.1674
 7530SOL    HW125222   7.852   4.243   0.282 -1.2782 -0.3477  0.5690
 7530SOL    HW225223   7.978   4.301   0.342 -1.6142  0.5508  0.4231
 7531SOL     OW25224   4.590  10.325   6.652 -0.2286 -0.2517  0.2262
 7531SOL    HW125225   4.600  10.409   6.696  0.3122 -1.2421  2.0940
 7531SOL    HW225226   4.529  10.275   6.707 -0.4179 -1.1444 -0.7503
 7532SOL     OW25227   1.682  10.259   4.440 -0.2176  0.0516  0.2891
 7532SOL    HW125228   1.671  10.350   4.466 -0.3886  0.1655 -0.1634
 7532SOL    HW225229   1.766  10.232   4.477  0.0831  0.5554 -0.0237
 7533SOL     OW25230   5.979   2.600   2.960  0.4351 -0.0127 -0.4944
 7533SOL    HW125231   5.984   2.551   2.877  0.1365 -0.1252 -0.4484
 7533SOL    HW225232   6.066   2.638   2.971  0.6566 -0.4913 -0.5588
 7534SOL     OW25233   7.802   5.840   4.683  0.3467 -0.3164 -0.0352
 7534SOL    HW125234   7.740   5.901   4.643  0.9825  0.7380  0.5447
 7534SOL    HW225235   7.757   5.755   4.681 -1.1478  0.4327  0.4290
 7535SOL     OW25236   9.619   0.196   9.880  0.2673 -0.2121 -0.4458
 7535SOL    HW125237   9.597   0.153   9.797  1.8672  0.0077 -1.0295
 7535SOL    HW225238   9.715   0.198   9.881  0.2681  1.5004  0.5140
 7536SOL     OW25239   5.396   3.037   4.166  0.4506 -0.2193 -0.0854
 7536SOL    HW125240   5.360   3.107   4.220  0.5745  1.7725 -2.3939
 7536SOL    HW225241   5.491   3.046   4.176  0.4652 -0.0588 -0.3529
 7537SOL     OW25242   8.490   6.503   2.750  0.0287 -0.3214  0.3126
 7537SOL    HW125243   8.474   6.409   2.752 -2.7294  0.0872  0.9033
 7537SOL    HW225244   8.460   6.535   2.835 -1.6321  1.4081 -0.8490
 7538SOL     OW25245   5.524   2.900   5.812  0.5775 -0.4177  0.1238
 7538SOL    HW125246   5.480   2.860   5.887 -0.1482  1.2816  0.6550
 7538SOL    HW225247   5.489   2.989   5.808  1.0747 -0.2616 -1.8672
 7539SOL     OW25248   0.973   2.863   7.678 -0.3734  0.4131 -0.8501
 7539SOL    HW125249   0.977   2.940   7.734  0.3554 -1.1075  1.2932
 7539SOL    HW225250   0.897   2.880   7.621 -1.2373  1.9824  0.6451
 7540SOL     OW25251   0.251   8.388   6.784  0.1041  0.3565  0.0438
 7540SOL    HW125252   0.324   8.330   6.808 -0.2220  0.4051  1.1778
 7540SOL    HW225253   0.191   8.331   6.735  0.6415  0.1948 -0.4510
 7541SOL     OW25254   7.319   9.590   2.226 -0.6695 -0.2246 -0.0847
 7541SOL    HW125255   7.408   9.555   2.233 -0.6364 -0.4206 -1.1861
 7541SOL    HW225256   7.266   9.515   2.198 -0.8290  0.2782 -1.2204
 7542SOL     OW25257   4.703   3.483   1.655 -0.0002 -0.2690 -0.1386
 7542SOL    HW125258   4.639   3.422   1.618 -0.5488 -0.2208  0.6969
 7542SOL    HW225259   4.714   3.550   1.588 -0.2168 -0.7101 -0.6216
 7543SOL     OW25260   9.888   5.541   8.167  0.3899  0.1333  0.1495
 7543SOL    HW125261   9.962   5.598   8.148 -0.5418  1.1956 -0.3720
 7543SOL    HW225262   9.921   5.453   8.150  1.3027  0.6379 -0.8247
 7544SOL     OW25263   4.838   7.280  10.002 -0.4298  0.5739  0.4435
 7544SOL    HW125264   4.847   7.185   9.996  0.9480  0.7230 -0.2100
 7544SOL    HW225265   4.888   7.304  10.081  1.6574  1.0060 -0.9379
 7545SOL     OW25266   9.209   0.147   3.877 -0.5216 -0.2662  0.6062
 7545SOL    HW125267   9.167   0.131   3.792 -0.4963 -0.1693  0.5756
 7545SOL    HW225268   9.295   0.181   3.855 -0.0238 -1.4586  0.6603
 7546SOL     OW25269   5.722   1.698   2.689  0.1321 -0.1628 -0.5040
 7546SOL    HW125270   5.731   1.679   2.596 -0.1964 -2.1529 -0.1810
 7546SOL    HW225271   5.639   1.656   2.715 -0.2134  1.0738  0.5218
 7547SOL     OW25272   0.999   2.120   7.691 -0.3120  0.1216 -0.3662
 7547SOL    HW125273   1.008   2.194   7.631 -2.0576  0.6564 -0.0081
 7547SOL    HW225274   1.015   2.043   7.637  0.3911  0.6961 -0.9980
 7548SOL     OW25275   6.238   7.074   0.033 -0.8970 -0.0996  0.3897
 7548SOL    HW125276   6.283   7.156   0.052  1.0513 -1.0019 -0.0888
 7548SOL    HW225277   6.251   7.061  -0.061  0.8744 -2.0561  0.8244
 7549SOL     OW25278   8.738   2.890   8.924 -0.1330 -0.2855  0.5187
 7549SOL    HW125279   8.816   2.843   8.893  1.5863  1.6218  1.7587
 7549SOL    HW225280   8.702   2.930   8.845  0.7703 -0.2956  0.0830
 7550SOL     OW25281   6.261   1.765   9.149  0.4003  0.5003 -0.3345
 7550SOL    HW125282   6.194   1.817   9.104  0.1271  0.0613 -0.4366
 7550SOL    HW225283   6.266   1.803   9.236  0.1279  0.6297 -0.3756
 7551SOL     OW25284   1.776   4.409   3.184  0.2496 -0.0999  0.5741
 7551SOL    HW125285   1.689   4.371   3.198  0.7141 -1.0052  1.0050
 7551SOL    HW225286   1.792   4.461   3.262  0.1859 -0.1002  0.5878
 7552SOL     OW25287   1.255   7.735   8.070  0.0647  0.3394 -0.0210
 7552SOL    HW125288   1.205   7.815   8.086  1.5691  1.6451 -1.5548
 7552SOL    HW225289   1.341   7.765   8.044  0.5055 -1.7898 -1.2214
 7553SOL     OW25290   5.181   6.646   6.087  0.0806  0.1422 -0.5833
 7553SOL    HW125291   5.240   6.656   6.013 -0.1573 -0.8734 -0.9288
 7553SOL    HW225292   5.235   6.667   6.163  1.0201 -1.1721 -0.8524
 7554SOL     OW25293   1.143   3.302   5.741 -0.4245  0.0913 -0.2632
 7554SOL    HW125294   1.108   3.318   5.829 -1.1352  0.7044 -0.6405
 7554SOL    HW225295   1.173   3.212   5.743 -1.5894 -0.3054  0.2427
 7555SOL     OW25296   6.318   6.317   0.023 -0.1920  0.2962 -0.4892
 7555SOL    HW125297   6.258   6.351  -0.044  1.4136  3.5246 -0.4618
 7555SOL    HW225298   6.404   6.317  -0.019  0.4701  0.0091  0.8210
 7556SOL     OW25299   9.123   6.176   2.762  1.0941 -0.0920 -0.1968
 7556SOL    HW125300   9.188   6.112   2.790  0.8378 -0.7638 -1.1035
 7556SOL    HW225301   9.075   6.199   2.842  0.6826 -1.6126  0.0252
 7557SOL     OW25302   7.225   0.832   5.810  0.0436 -0.2985  0.0695
 7557SOL    HW125303   7.267   0.761   5.857 -1.4237 -1.8213 -0.8211
 7557SOL    HW225304   7.155   0.790   5.760 -1.7347  1.9275  0.5221
 7558SOL     OW25305   0.085   2.563   5.536 -0.1837  0.3229  0.5288
 7558SOL    HW125306   0.162   2.618   5.528 -0.0374  0.1873  0.9924
 7558SOL    HW225307   0.023   2.614   5.589  0.6210 -0.6371  2.5124
 7559SOL     OW25308   5.380   8.158   7.665  0.3862 -0.6758 -0.0891
 7559SOL    HW125309   5.373   8.254   7.662 -0.3522 -0.7263 -0.2270
 7559SOL    HW225310   5.345   8.134   7.751 -2.5581 -1.0272 -1.2515
 7560SOL     OW25311   4.464   0.804   7.340 -0.0882  0.3145  0.4191
 7560SOL    HW125312   4.387   0.858   7.322 -0.2572 -0.3933 -1.0485
 7560SOL    HW225313   4.472   0.806   7.436 -1.7049  0.6777  0.5711
 7561SOL     OW25314   4.939   3.744   3.660 -0.3984  0.6334 -0.3212
 7561SOL    HW125315   4.952   3.713   3.571  0.4188  0.4451 -0.1408
 7561SOL    HW225316   4.895   3.672   3.705 -0.4206  0.5634 -0.4562
 7562SOL     OW25317   3.744   2.297   3.266 -0.4261 -0.3574 -0.0799
 7562SOL    HW125318   3.744   2.307   3.361  0.5925 -2.3736  0.1899
 7562SOL    HW225319   3.716   2.382   3.233  0.8950  0.9793  1.9670
 7563SOL     OW25320   1.019   9.107   6.874 -0.3259  0.3488  0.2150
 7563SOL    HW125321   1.083   9.066   6.931 -1.2401  0.2662  1.2155
 7563SOL    HW225322   1.054   9.194   6.856  1.8973 -0.9231 -2.3502
 7564SOL     OW25323   7.246   1.803   2.189 -0.0018 -0.0121 -0.3599
 7564SOL    HW125324   7.300   1.769   2.117  2.5309 -0.4668  1.6177
 7564SOL    HW225325   7.306   1.811   2.263 -2.2350  1.5217  1.4371
 7565SOL     OW25326   0.161   8.693   0.721  0.2771  0.6014 -0.0943
 7565SOL    HW125327   0.168   8.603   0.751  1.2173  0.5544 -0.3975
 7565SOL    HW225328   0.168   8.746   0.801  3.0751  0.4912 -0.1442
 7566SOL     OW25329   9.225   3.419   4.554 -0.6524  0.2650 -0.6535
 7566SOL    HW125330   9.191   3.505   4.579 -0.3305  0.1412  0.2822
 7566SOL    HW225331   9.163   3.357   4.593  0.1421  0.0568  0.3324
 7567SOL     OW25332   9.165   8.713   1.091 -0.5423  0.0172  0.4950
 7567SOL    HW125333   9.092   8.770   1.116  0.0228  0.6152  0.8094
 7567SOL    HW225334   9.130   8.659   1.020 -1.7032 -0.6333  1.5249
 7568SOL     OW25335   0.109   0.966   9.446 -0.3212 -0.4204  0.0698
 7568SOL    HW125336   0.014   0.978   9.449 -0.2463  1.1798 -1.8505
 7568SOL    HW225337   0.122   0.872   9.448 -1.9824 -0.6733 -0.1758
 7569SOL     OW25338   2.180   5.629   7.787 -0.3280 -0.1814 -0.0896
 7569SOL    HW125339   2.203   5.547   7.829  1.1638 -0.2564 -0.9783
 7569SOL    HW225340   2.224   5.696   7.840  0.9818 -0.2215 -1.0999
 7570SOL     OW25341   0.800   6.100   4.472 -0.3294  0.2914 -0.1506
 7570SOL    HW125342   0.782   6.013   4.435 -1.0271  0.1901  0.4121
 7570SOL    HW225343   0.892   6.096   4.497  0.3815  0.6067 -2.5005
 7571SOL     OW25344   6.263   7.223   3.326 -0.2618 -0.3584  0.2810
 7571SOL    HW125345   6.316   7.274   3.386 -2.1456  2.2556 -0.1119
 7571SOL    HW225346   6.202   7.175   3.383 -0.7754  0.6050  0.5594
 7572SOL     OW25347   0.621   8.210   4.221  0.0796  0.0865 -0.2099
 7572SOL    HW125348   0.626   8.149   4.148  1.6080 -0.6188  0.4510
 7572SOL    HW225349   0.653   8.293   4.186 -1.4006  0.3863 -0.9353
 7573SOL     OW25350   9.521   3.917   7.584  0.1828 -0.0373  0.1806
 7573SOL    HW125351   9.564   3.835   7.608 -0.0762 -0.0566  0.5893
 7573SOL    HW225352   9.544   3.978   7.654  1.0532  0.4852 -0.5388
 7574SOL     OW25353   4.971   5.183   8.302 -0.4447 -0.1966  0.2433
 7574SOL    HW125354   4.882   5.216   8.291 -0.4784  0.7483  2.7341
 7574SOL    HW225355   5.026   5.260   8.290  0.0230 -0.6379 -0.5693
 7575SOL     OW25356   3.601   0.350   2.525  0.0854  0.3594  0.1593
 7575SOL    HW125357   3.519   0.393   2.549 -0.1827  0.3348 -0.6616
 7575SOL    HW225358   3.663   0.422   2.512 -0.0930  0.4444 -0.2379
 7576SOL     OW25359   4.469   5.697   5.892  0.3727 -0.2052 -0.6628
 7576SOL    HW125360   4.427   5.755   5.955  2.4590  0.7833 -0.1038
 7576SOL    HW225361   4.506   5.626   5.944  1.4494  0.2161 -0.8157
 7577SOL     OW25362   5.408   6.356   2.450 -0.1080 -0.0463  0.0039
 7577SOL    HW125363   5.384   6.376   2.359  0.7233 -0.4819 -0.3239
 7577SOL    HW225364   5.492   6.399   2.462 -0.0402 -0.3055  0.4550
 7578SOL     OW25365   4.415   4.235   8.430 -0.3359  0.1273 -0.0319
 7578SOL    HW125366   4.396   4.317   8.475 -0.0339  0.6322 -0.7927
 7578SOL    HW225367   4.476   4.260   8.360  1.3686 -1.0441  0.9401
 7579SOL     OW25368   9.492   5.406   0.878  0.0584 -0.4847 -0.1411
 7579SOL    HW125369   9.508   5.500   0.879  0.5662 -0.5670 -0.3060
 7579SOL    HW225370   9.556   5.371   0.815 -0.6409 -0.8439 -0.6678
 7580SOL     OW25371   8.694   6.577   0.436 -0.3802  0.4390 -0.6822
 7580SOL    HW125372   8.645   6.503   0.473  0.6891 -0.1114 -0.3401
 7580SOL    HW225373   8.754   6.604   0.505  0.3794  0.5780 -1.3764
 7581SOL     OW25374   6.777   5.306   0.223 -0.2002 -0.0652 -0.1979
 7581SOL    HW125375   6.810   5.368   0.289 -1.0072 -0.0794  0.2300
 7581SOL    HW225376   6.682   5.321   0.222 -0.1585  0.2001 -1.6284
 7582SOL     OW25377   4.279   8.419   8.097  0.2049 -0.3444 -0.1284
 7582SOL    HW125378   4.269   8.462   8.012  2.5321 -1.3059 -0.9658
 7582SOL    HW225379   4.228   8.338   8.089  1.2316 -0.9262 -1.0262
 7583SOL     OW25380   3.415   6.841   2.551 -0.1419  0.0859 -0.0651
 7583SOL    HW125381   3.340   6.783   2.564 -0.7425  1.0691  1.0691
 7583SOL    HW225382   3.392   6.921   2.599  1.1700  0.8181 -0.6012
 7584SOL     OW25383   9.560   4.213   8.680  0.0101 -0.1324 -0.2278
 7584SOL    HW125384   9.549   4.270   8.757 -0.9743 -2.2862  1.3265
 7584SOL    HW225385   9.477   4.166   8.674  0.3711 -0.5711 -2.1664
 7585SOL     OW25386   8.081   4.173   5.415 -0.5499  0.5425  0.1833
 7585SOL    HW125387   8.145   4.104   5.432 -0.3241  0.4985 -0.8118
 7585SOL    HW225388   8.100   4.203   5.326 -1.6968  0.7598 -0.0075
 7586SOL     OW25389   9.130   8.999   5.459  0.6625 -0.3140 -0.2727
 7586SOL    HW125390   9.144   8.916   5.412  0.4007 -0.5862  0.1157
 7586SOL    HW225391   9.171   8.985   5.544  1.0196  0.1280 -0.3737
 7587SOL     OW25392   3.332   9.731   9.737 -0.4849 -0.6598 -0.3840
 7587SOL    HW125393   3.332   9.651   9.685 -1.5507 -0.9582  0.0363
 7587SOL    HW225394   3.409   9.780   9.708 -0.1913 -1.5384 -1.1066
 7588SOL     OW25395   3.564   9.198   8.498  0.0211  0.2566 -0.0711
 7588SOL    HW125396   3.512   9.148   8.561 -0.5980 -0.8708 -1.4135
 7588SOL    HW225397   3.640   9.228   8.548 -0.7383 -0.1060  1.3445
 7589SOL     OW25398   0.404   5.541   5.712  0.1512 -1.0480  0.4065
 7589SOL    HW125399   0.407   5.634   5.686  0.9195 -1.5152 -1.3539
 7589SOL    HW225400   0.489   5.524   5.752  0.5416 -1.2802 -0.4820
 7590SOL     OW25401   9.677   7.938   6.048  0.5514  0.3164  0.1138
 7590SOL    HW125402   9.627   7.974   6.121  0.9714  2.0850 -0.4386
 7590SOL    HW225403   9.668   8.002   5.978  1.1765 -0.7556 -0.9993
 7591SOL     OW25404   1.704   2.512   9.002 -0.0704 -0.6334  0.1128
 7591SOL    HW125405   1.645   2.489   8.929  1.3893 -0.0832 -1.2966
 7591SOL    HW225406   1.668   2.464   9.077 -1.5717 -1.3081 -0.9722
 7592SOL     OW25407   8.901   0.040   0.057  0.0309  0.6564  0.4027
 7592SOL    HW125408   8.938   0.065  -0.027  0.9621  0.1136  0.6374
 7592SOL    HW225409   8.807   0.030   0.040 -0.2683  3.3378  0.0981
 7593SOL     OW25410   9.399   2.177   2.608 -0.5789 -0.1630  0.0256
 7593SOL    HW125411   9.493   2.169   2.624 -0.7662 -1.0334  0.7804
 7593SOL    HW225412   9.392   2.223   2.524  0.5202 -0.6171 -0.3218
 7594SOL     OW25413   1.700   8.012   5.512 -0.4667  0.4641 -0.0777
 7594SOL    HW125414   1.728   7.997   5.603  0.2012  1.7101 -0.0668
 7594SOL    HW225415   1.717   7.928   5.468  0.1857  0.1777  0.6994
 7595SOL     OW25416   3.020   2.436   5.625  0.3600 -0.2840 -0.2333
 7595SOL    HW125417   2.947   2.435   5.687  0.8975  2.6642  0.6092
 7595SOL    HW225418   2.981   2.468   5.544  0.6154  0.9061  0.1036
 7596SOL     OW25419   5.220   8.896   3.361 -0.4624  0.0349  0.2385
 7596SOL    HW125420   5.280   8.860   3.296  0.4444 -1.1830  1.6771
 7596SOL    HW225421   5.150   8.832   3.369  0.1150 -0.4738  1.3791
 7597SOL     OW25422   0.021   3.240   0.544  0.0625  0.2954 -0.0492
 7597SOL    HW125423   0.080   3.292   0.598  1.4465 -0.5584 -0.6839
 7597SOL    HW225424  -0.051   3.217   0.602  1.0925  0.1150  1.1875
 7598SOL     OW25425   2.490   2.986   7.524  0.1298 -0.1914 -0.4807
 7598SOL    HW125426   2.504   3.073   7.486  1.3607 -0.3267 -0.3741
 7598SOL    HW225427   2.497   2.926   7.449 -0.1629 -0.2419 -0.4674
 7599SOL     OW25428   3.750   0.064   1.978 -0.2915 -0.1453  0.5834
 7599SOL    HW125429   3.728  -0.011   2.033 -0.0713 -0.2496  0.5327
 7599SOL    HW225430   3.817   0.111   2.029 -1.2246  0.6352  1.1244
 7600SOL     OW25431   3.314   9.545   0.341 -0.3888  0.3040 -0.6994
 7600SOL    HW125432   3.285   9.495   0.265 -1.0065  0.9059 -0.8685
 7600SOL    HW225433   3.403   9.573   0.319 -0.0980 -0.5633 -0.6706
 7601SOL     OW25434   0.139   6.702   2.639  0.1865 -0.5275 -0.2114
 7601SOL    HW125435   0.114   6.791   2.663  0.5228 -0.6250  0.5311
 7601SOL    HW225436   0.202   6.714   2.567 -0.1969 -0.1988 -0.5022
 7602SOL     OW25437   8.523   8.275   5.446  0.7285  0.6276 -0.1368
 7602SOL    HW125438   8.605   8.312   5.479  1.2435  0.9042 -1.6606
 7602SOL    HW225439   8.470   8.352   5.424  0.8543  0.4653 -1.0379
 7603SOL     OW25440   2.022  10.194   7.819 -0.2456 -0.3431 -0.3172
 7603SOL    HW125441   1.948  10.152   7.862  2.4046 -2.6725  2.3685
 7603SOL    HW225442   2.032  10.147   7.736 -0.7737 -1.0557  0.0178
 7604SOL     OW25443  10.118   8.501   6.523 -0.4522  0.4735  0.3698
 7604SOL    HW125444  10.068   8.444   6.464 -0.3962  0.4519  0.3428
 7604SOL    HW225445  10.053   8.557   6.563 -0.3999  1.0313 -0.3120
 7605SOL     OW25446   7.386   4.011   4.721  0.4741  0.0138 -0.8393
 7605SOL    HW125447   7.320   4.075   4.693  1.2921  0.7735 -1.0641
 7605SOL    HW225448   7.430   3.985   4.640  0.7778 -0.1085 -0.6358
 7606SOL     OW25449   3.579   1.531   0.277  0.3955 -0.4127  0.5816
 7606SOL    HW125450   3.656   1.574   0.316  0.6114  1.0369 -1.3159
 7606SOL    HW225451   3.610   1.444   0.252  1.8741  0.6071 -1.3830
 7607SOL     OW25452   7.720   8.166   7.860 -0.3038  0.5102 -0.0801
 7607SOL    HW125453   7.729   8.071   7.851  2.0255  0.7441 -0.9418
 7607SOL    HW225454   7.642   8.178   7.915 -0.1202 -1.9034  0.8244
 7608SOL     OW25455   3.960   7.066   5.081 -0.1219  0.1000 -0.0783
 7608SOL    HW125456   3.972   6.986   5.030  0.7912  0.2669 -0.1444
 7608SOL    HW225457   4.043   7.114   5.071 -1.7344  2.6952 -2.8505
 7609SOL     OW25458   3.877   8.004   8.248  0.1544 -0.0327  0.4634
 7609SOL    HW125459   3.812   7.965   8.190  0.9149 -1.9514  0.8210
 7609SOL    HW225460   3.828   8.034   8.324 -0.4178 -0.6002  0.3193
 7610SOL     OW25461   2.235   2.341   7.300 -0.4042  0.0691 -0.6626
 7610SOL    HW125462   2.256   2.369   7.389 -0.4114 -1.7330 -0.0572
 7610SOL    HW225463   2.317   2.351   7.252 -0.8498  2.9046 -1.0357
 7611SOL     OW25464   7.813   6.874   8.931 -0.0923 -0.3306 -0.3057
 7611SOL    HW125465   7.806   6.779   8.924  1.6077 -0.6626  1.6164
 7611SOL    HW225466   7.905   6.893   8.911 -0.0979  0.7595  0.5919
 7612SOL     OW25467   2.997   2.744   4.255  0.3084  0.1627  0.6607
 7612SOL    HW125468   2.949   2.689   4.316 -0.2214  0.6210  0.6626
 7612SOL    HW225469   3.087   2.740   4.285  0.4105 -1.2621  0.2566
 7613SOL     OW25470   9.169   5.052   7.412  0.1241 -0.1444 -0.4722
 7613SOL    HW125471   9.260   5.037   7.386  0.2796 -1.3898  0.7093
 7613SOL    HW225472   9.145   5.132   7.365  1.8835  0.3309 -0.6666
 7614SOL     OW25473   8.143   2.220   8.161  0.0403  0.5140  0.2245
 7614SOL    HW125474   8.225   2.267   8.173 -0.0849  0.6345  0.6271
 7614SOL    HW225475   8.167   2.128   8.162  0.1646  0.5482  0.3849
 7615SOL     OW25476   3.799   0.758   9.030 -0.2789 -0.1047  0.0608
 7615SOL    HW125477   3.891   0.784   9.028 -0.2517 -0.1503  0.5226
 7615SOL    HW225478   3.762   0.792   8.949  0.0069  0.4378  0.1555
 7616SOL     OW25479  10.030   0.591   7.548  0.5025  0.2103 -0.4263
 7616SOL    HW125480  10.125   0.595   7.559  0.3719 -0.3821  1.0101
 7616SOL    HW225481   9.995   0.599   7.636 -0.8108  0.8269 -0.9829
 7617SOL     OW25482   8.500   3.189   5.581  0.6213 -0.2860  0.0943
 7617SOL    HW125483   8.576   3.173   5.637  1.7949  0.4190 -1.2141
 7617SOL    HW225484   8.477   3.280   5.597  0.5693 -0.2642 -0.0956
 7618SOL     OW25485   7.041   1.984   3.055  0.0015  0.0165  0.3303
 7618SOL    HW125486   7.044   2.074   3.088  1.4385 -0.2481  1.0393
 7618SOL    HW225487   7.007   1.933   3.129 -1.6919  0.0659 -0.3754
 7619SOL     OW25488   6.335   6.572  10.142 -0.0060  0.2998 -0.7148
 7619SOL    HW125489   6.274   6.638  10.110 -1.1248 -1.6574 -2.9688
 7619SOL    HW225490   6.282   6.492  10.150  1.6193 -0.7401  0.3029
 7620SOL     OW25491   8.117   9.789   0.844  0.2737 -0.6598 -0.1718
 7620SOL    HW125492   8.030   9.755   0.863  0.3630 -1.4176 -1.0221
 7620SOL    HW225493   8.135   9.759   0.754  1.5703 -0.8651  0.1392
 7621SOL     OW25494   0.490   3.344   0.192 -0.7066  0.1588 -0.4510
 7621SOL    HW125495   0.585   3.331   0.197 -0.7364  0.2731  1.4300
 7621SOL    HW225496   0.455   3.257   0.174 -0.2564  0.0636 -0.8805
 7622SOL     OW25497   6.552   2.054   7.850 -0.2551 -0.0073 -0.2691
 7622SOL    HW125498   6.575   1.988   7.785 -0.6854  0.4670 -0.9182
 7622SOL    HW225499   6.472   2.094   7.815 -0.5350  0.2061  0.5900
 7623SOL     OW25500   4.776   5.463   6.940 -0.5636  0.0741  0.4192
 7623SOL    HW125501   4.730   5.395   6.891 -0.4072 -0.9595  1.6422
 7623SOL    HW225502   4.869   5.442   6.928 -0.2635  2.5496 -2.6086
 7624SOL     OW25503   7.016   8.996   3.816  0.0505 -0.3181 -0.6570
 7624SOL    HW125504   6.977   8.913   3.789 -0.3945 -0.3481  0.0671
 7624SOL    HW225505   7.110   8.982   3.806  0.0967 -1.5205  1.1057
 7625SOL     OW25506   5.675   2.766   0.451  0.3298 -0.4540  0.1550
 7625SOL    HW125507   5.755   2.778   0.502  0.7615  0.4028 -0.6901
 7625SOL    HW225508   5.652   2.854   0.422 -0.9509 -0.6856  0.4044
 7626SOL     OW25509   8.994   0.489   5.175 -0.4430 -0.5668  0.3969
 7626SOL    HW125510   8.967   0.400   5.196  0.3625 -0.9784 -0.2232
 7626SOL    HW225511   8.914   0.532   5.145 -0.4542 -1.7675 -1.4639
 7627SOL     OW25512   6.666   9.452   6.704  0.3725  0.1555 -0.5787
 7627SOL    HW125513   6.647   9.484   6.792  0.6998  1.2827 -0.8906
 7627SOL    HW225514   6.587   9.471   6.654  0.3016 -0.2017 -0.6070
 7628SOL     OW25515   7.814   8.861   6.925 -0.5552 -0.2708  0.2363
 7628SOL    HW125516   7.897   8.820   6.949  0.2706  0.1514 -1.6996
 7628SOL    HW225517   7.775   8.802   6.860 -0.7312  0.5549 -0.4382
 7629SOL     OW25518   9.471   8.655   5.020  0.4941 -0.3268 -0.0423
 7629SOL    HW125519   9.436   8.611   4.943 -1.1530  0.4133  0.2251
 7629SOL    HW225520   9.463   8.591   5.091  2.8329 -1.3304 -0.5806
 7630SOL     OW25521   4.157   2.393   8.560 -0.1447  0.0228  0.1903
 7630SOL    HW125522   4.189   2.458   8.623 -1.6931  0.4039  0.6226
 7630SOL    HW225523   4.165   2.309   8.605  2.2417 -0.2027 -0.5146
 7631SOL     OW25524   8.166   6.710   2.651  0.1151 -0.0896 -0.1474
 7631SOL    HW125525   8.225   6.701   2.726  1.0759  1.6518 -0.6527
 7631SOL    HW225526   8.166   6.623   2.611  0.8009 -0.6390  0.9971
 7632SOL     OW25527   4.068   6.112   8.274 -0.1698 -0.1674 -0.2133
 7632SOL    HW125528   3.976   6.111   8.298 -0.3429  0.9000 -0.7682
 7632SOL    HW225529   4.068   6.098   8.179  0.2503 -0.3188 -0.1941
 7633SOL     OW25530   5.516   9.574   6.303  0.4158 -0.1920  0.0875
 7633SOL    HW125531   5.509   9.523   6.222 -1.4892  1.1958 -0.7048
 7633SOL    HW225532   5.558   9.656   6.277  0.4281 -0.0194  0.6386
 7634SOL     OW25533   0.984   6.449   3.301  0.1398 -0.2393 -0.2193
 7634SOL    HW125534   1.025   6.412   3.379 -0.8079  1.2302  1.0513
 7634SOL    HW225535   0.894   6.416   3.303 -0.3253  0.9908  0.1911
 7635SOL     OW25536   9.332   8.807   0.719 -0.1232 -0.0836  0.1826
 7635SOL    HW125537   9.408   8.861   0.739 -0.2850 -0.0821  0.8149
 7635SOL    HW225538   9.257   8.863   0.740 -0.2936 -0.4511  0.5624
 7636SOL     OW25539   2.431   4.645   2.719  0.0450  0.1386  0.2292
 7636SOL    HW125540   2.414   4.697   2.641 -0.8805 -1.4203 -0.6729
 7636SOL    HW225541   2.526   4.634   2.721  0.0387 -0.2855 -1.0417
 7637SOL     OW25542   8.439   9.119   3.444 -0.2033  0.2692 -0.6026
 7637SOL    HW125543   8.446   9.071   3.362  0.9692 -0.0449 -0.3393
 7637SOL    HW225544   8.432   9.211   3.418 -3.1489 -0.0252 -1.1315
 7638SOL     OW25545   0.240   7.752  10.237  0.3269  0.1068  0.2839
 7638SOL    HW125546   0.153   7.731  10.271  1.0137 -0.8055  1.6058
 7638SOL    HW225547   0.295   7.758  10.316  1.5643  0.1644 -0.5561
 7639SOL     OW25548   9.399   9.542   4.157 -0.4336 -0.1585  0.1732
 7639SOL    HW125549   9.385   9.452   4.186  0.4665 -0.5955 -0.6646
 7639SOL    HW225550   9.359   9.597   4.225 -2.9851 -1.2070 -0.3827
 7640SOL     OW25551   8.447   8.594   0.833  0.5996 -0.1380  0.0907
 7640SOL    HW125552   8.353   8.600   0.851  0.6747 -0.0263  0.4739
 7640SOL    HW225553   8.472   8.508   0.865  0.7669  0.1273  0.6889
 7641SOL     OW25554   7.893  10.240   7.536 -0.1711 -0.1655 -0.4281
 7641SOL    HW125555   7.805  10.204   7.529 -1.8867  3.6419 -0.7040
 7641SOL    HW225556   7.913  10.272   7.448  1.1811 -0.2403 -0.1747
 7642SOL     OW25557   6.849   8.840   2.939 -0.2243  0.0533  0.0804
 7642SOL    HW125558   6.918   8.798   2.888  0.4154  0.8297  0.3029
 7642SOL    HW225559   6.813   8.907   2.881  0.2265  0.6600  0.4901
 7643SOL     OW25560  10.069   3.564   7.900  0.4359 -0.1486  0.0050
 7643SOL    HW125561  10.099   3.560   7.991  2.0441 -0.2766 -0.4982
 7643SOL    HW225562  10.062   3.473   7.872  0.0353 -0.1082 -0.0323
 7644SOL     OW25563   3.364   9.559   3.145  0.3081 -0.5042  0.0290
 7644SOL    HW125564   3.402   9.616   3.079  0.9814  0.3118  1.0982
 7644SOL    HW225565   3.309   9.499   3.095  3.2844 -2.0575 -1.6447
 7645SOL     OW25566   3.789   9.259   9.193 -0.3389 -0.5689 -0.1569
 7645SOL    HW125567   3.861   9.314   9.162  0.8374 -0.9826  1.6937
 7645SOL    HW225568   3.827   9.173   9.204 -1.9262 -1.5991 -2.0882
 7646SOL     OW25569   6.366   8.246   2.360 -0.0572 -0.1650 -0.1688
 7646SOL    HW125570   6.288   8.299   2.373  0.0231 -0.2535  0.7699
 7646SOL    HW225571   6.430   8.307   2.322  0.8636  1.1955  3.1710
 7647SOL     OW25572   3.974   8.239   7.813 -0.3107 -0.3120 -0.1983
 7647SOL    HW125573   3.933   8.306   7.759  1.3652  1.0490  0.1557
 7647SOL    HW225574   3.960   8.269   7.903  0.5543 -0.3733 -0.0402
 7648SOL     OW25575   3.230   4.625   8.045 -0.1676 -0.0577 -0.4774
 7648SOL    HW125576   3.161   4.559   8.044 -1.0256  0.8090 -1.5229
 7648SOL    HW225577   3.287   4.601   7.972  0.5208 -0.6326  0.2336
 7649SOL     OW25578   5.642   4.182   2.711 -0.1783 -0.4279  0.2817
 7649SOL    HW125579   5.589   4.255   2.680 -0.7030 -1.0134 -0.2223
 7649SOL    HW225580   5.685   4.148   2.632 -0.1459 -0.8260  0.4689
 7650SOL     OW25581   6.551   4.584   4.828  0.0806  0.4894 -0.1111
 7650SOL    HW125582   6.563   4.546   4.741  0.2106  1.3055 -0.4600
 7650SOL    HW225583   6.457   4.604   4.833  0.2211  1.3058 -0.4482
 7651SOL     OW25584   1.410   3.835   7.932 -0.1657 -0.0933 -0.5993
 7651SOL    HW125585   1.437   3.926   7.921 -1.1435  0.2631 -0.1899
 7651SOL    HW225586   1.450   3.808   8.015  0.0804 -0.0168 -0.6934
 7652SOL     OW25587   3.403   7.077   6.046  0.2053 -0.6182 -0.0494
 7652SOL    HW125588   3.495   7.096   6.029  0.5887 -0.4989  1.9187
 7652SOL    HW225589   3.380   7.133   6.121 -1.8298  0.2846 -1.2695
 7653SOL     OW25590   2.595   7.908   7.188  0.2168  0.0664  0.1017
 7653SOL    HW125591   2.557   7.863   7.113 -1.4709  2.0714 -0.3514
 7653SOL    HW225592   2.687   7.918   7.167 -0.0165 -0.3761 -1.1909
 7654SOL     OW25593   3.501   8.907   7.710  0.1439  0.1906 -0.4254
 7654SOL    HW125594   3.530   8.973   7.773 -1.5275  0.5376  0.0120
 7654SOL    HW225595   3.434   8.857   7.757  0.3392 -0.8732 -1.2529
 7655SOL     OW25596   8.439   1.578   2.786  0.3161  0.9229 -0.0748
 7655SOL    HW125597   8.401   1.622   2.861 -0.0840  1.5961 -0.6643
 7655SOL    HW225598   8.469   1.648   2.728  3.0924  0.4589  0.6476
 7656SOL     OW25599   7.626   5.287   2.437 -0.3744 -0.1987  0.1559
 7656SOL    HW125600   7.596   5.371   2.400 -1.6359  0.1830  1.9439
 7656SOL    HW225601   7.545   5.240   2.457  0.2933 -0.8710  1.3365
 7657SOL     OW25602   9.332  10.270   1.093 -0.0007  0.4121  0.2880
 7657SOL    HW125603   9.341  10.366   1.088  1.5962  0.2440 -0.6467
 7657SOL    HW225604   9.237  10.256   1.095 -0.2854  2.0022 -0.0998
 7658SOL     OW25605   5.916   6.846   1.765  0.6341  0.0628  0.3580
 7658SOL    HW125606   6.005   6.825   1.738  0.2035 -1.5304  0.0812
 7658SOL    HW225607   5.863   6.773   1.733 -0.9121  1.3636 -0.1901
 7659SOL     OW25608   8.223   5.388   0.791 -0.3640  0.7613  0.1276
 7659SOL    HW125609   8.239   5.386   0.885 -0.5930 -2.0719  0.1882
 7659SOL    HW225610   8.128   5.398   0.784 -0.5064 -0.3707  0.2667
 7660SOL     OW25611   4.011   5.761   3.966  0.1497 -0.4197 -0.2267
 7660SOL    HW125612   4.025   5.799   4.053  0.9063  0.2803 -0.6430
 7660SOL    HW225613   3.931   5.802   3.934  1.4099  1.5468 -1.0265
 7661SOL     OW25614   0.473   7.318   6.663 -0.2028  0.6048  0.2608
 7661SOL    HW125615   0.499   7.335   6.573 -0.0410  1.9378  0.5351
 7661SOL    HW225616   0.556   7.312   6.711 -0.3012  0.4561  0.4144
 7662SOL     OW25617   2.256   7.876   0.039 -0.1501 -0.1992  0.1615
 7662SOL    HW125618   2.350   7.895   0.032 -0.2248  0.5655  0.9935
 7662SOL    HW225619   2.214   7.962   0.038 -0.6663 -0.3853  2.0395
 7663SOL     OW25620   5.459  10.005   1.551  0.2424  0.5268 -0.0062
 7663SOL    HW125621   5.446  10.008   1.457  0.6057 -0.0726 -0.0817
 7663SOL    HW225622   5.390  10.060   1.587  0.9244  1.8864 -0.6903
 7664SOL     OW25623   6.930   8.286   7.778 -0.3127  0.3375 -0.3331
 7664SOL    HW125624   6.989   8.298   7.852 -1.0488 -1.6775  0.6480
 7664SOL    HW225625   6.848   8.327   7.806 -0.3363  0.3338 -0.3980
 7665SOL     OW25626  10.342   2.090   9.316  0.1596 -0.3951  0.0221
 7665SOL    HW125627  10.348   2.001   9.352  1.0877  0.5919  2.5511
 7665SOL    HW225628  10.324   2.077   9.223 -0.5366 -3.2094  0.4418
 7666SOL     OW25629   8.159  10.063   1.652  0.5679  0.2355 -0.1146
 7666SOL    HW125630   8.098  10.038   1.721 -0.1172 -0.8098 -1.0500
 7666SOL    HW225631   8.179  10.155   1.669  0.7716 -0.1153  1.7148
 7667SOL     OW25632   0.828   4.043   9.651  0.3796  0.1814 -0.0294
 7667SOL    HW125633   0.771   4.119   9.639  1.0286  0.7027  0.1238
 7667SOL    HW225634   0.779   3.985   9.709  0.0518  0.6675  0.1876
 7668SOL     OW25635   7.565   9.649   7.706  0.6532 -0.3784 -0.0411
 7668SOL    HW125636   7.580   9.687   7.793 -0.6561  0.1278 -0.0251
 7668SOL    HW225637   7.499   9.705   7.666  0.4463 -1.2516 -0.9531
 7669SOL     OW25638   1.939   6.817   6.112 -0.0078  0.5892  0.1455
 7669SOL    HW125639   2.028   6.841   6.086  0.5166 -1.3677  0.0035
 7669SOL    HW225640   1.949   6.778   6.199 -0.9118  1.4252  0.6458
 7670SOL     OW25641   7.393   6.271   6.177  0.3034  0.4349  0.0664
 7670SOL    HW125642   7.336   6.194   6.177  0.4900  0.2777  1.1444
 7670SOL    HW225643   7.337   6.343   6.149  0.3399 -0.2194 -1.8508
 7671SOL     OW25644   8.753   8.026   7.161  0.1544 -0.1565 -0.0686
 7671SOL    HW125645   8.682   7.974   7.197  0.1642 -0.3491 -0.3277
 7671SOL    HW225646   8.807   7.963   7.113  1.1319 -0.2279  1.0675
 7672SOL     OW25647   4.287   6.924  10.216  0.4145 -0.0201 -0.3326
 7672SOL    HW125648   4.318   6.940  10.127  0.9843  0.8454  0.0175
 7672SOL    HW225649   4.367   6.913  10.268  0.1483 -3.4002 -0.3839
 7673SOL     OW25650   7.475   6.721   6.102 -0.0655  0.9539 -0.6395
 7673SOL    HW125651   7.386   6.723   6.068 -0.2867 -0.5696 -0.2354
 7673SOL    HW225652   7.479   6.640   6.153  1.3369  1.3593 -0.0605
 7674SOL     OW25653   3.510  10.185   9.614 -0.1788 -0.4923  0.4266
 7674SOL    HW125654   3.551  10.122   9.554 -1.0775  1.3592 -2.3408
 7674SOL    HW225655   3.565  10.263   9.609 -0.4662 -0.1679  1.8370
 7675SOL     OW25656   3.900   0.327   8.873 -0.4367  0.0349  0.5579
 7675SOL    HW125657   3.841   0.398   8.848  1.1763  1.4528  0.5922
 7675SOL    HW225658   3.981   0.371   8.900  1.2050 -1.8629 -0.9535
 7676SOL     OW25659   6.844   9.062   9.676 -0.1209 -0.1446 -0.2051
 7676SOL    HW125660   6.879   9.113   9.748 -0.8864 -0.2044  0.2204
 7676SOL    HW225661   6.879   9.104   9.597  1.5805 -0.7173  0.2044
 7677SOL     OW25662   3.192   4.639   9.517  0.3098  0.1023  0.6120
 7677SOL    HW125663   3.230   4.612   9.434  0.8516  0.1607  0.8389
 7677SOL    HW225664   3.261   4.690   9.560  0.4042 -0.7525  1.5204
 7678SOL     OW25665   2.524   7.335   7.216  0.2932  0.1916 -0.1056
 7678SOL    HW125666   2.567   7.250   7.225 -0.2566 -0.2384 -1.3736
 7678SOL    HW225667   2.513   7.347   7.122  3.0741  3.0680 -0.2062
 7679SOL     OW25668  10.173   6.014   9.626  0.1149 -0.3761  0.1331
 7679SOL    HW125669  10.154   6.073   9.554 -2.9372  1.6468  2.3697
 7679SOL    HW225670  10.220   6.067   9.690  0.3147 -1.3323  0.8136
 7680SOL     OW25671   0.727   3.223   5.299  0.2512 -0.3322 -0.0922
 7680SOL    HW125672   0.775   3.218   5.382  0.6273  2.6738 -0.0176
 7680SOL    HW225673   0.789   3.189   5.234 -0.2150 -3.1759  0.8158
 7681SOL     OW25674   1.882  10.264   4.647  0.0707  0.6193  0.3519
 7681SOL    HW125675   1.952  10.213   4.689 -0.5567 -0.5689  0.0002
 7681SOL    HW225676   1.888  10.350   4.687  2.0555  0.7113 -0.0052
 7682SOL     OW25677   0.820   7.387   0.791 -0.1830  0.4400 -0.0706
 7682SOL    HW125678   0.812   7.482   0.797 -1.0775  0.3080  1.0937
 7682SOL    HW225679   0.913   7.370   0.804  0.1439  1.2068 -1.2679
 7683SOL     OW25680   6.828   3.954   9.301 -0.0802 -0.7545  0.3155
 7683SOL    HW125681   6.914   3.916   9.321  0.0386  0.0875  1.4651
 7683SOL    HW225682   6.803   4.001   9.380 -1.6400 -1.0189  0.0146
 7684SOL     OW25683   4.921   7.446   0.114  0.2468 -0.0665 -0.1676
 7684SOL    HW125684   4.997   7.502   0.093  0.0414  0.0411 -0.6398
 7684SOL    HW225685   4.918   7.446   0.210 -0.3866  1.6299 -0.1385
 7685SOL     OW25686   5.076   0.363   7.166  0.1810  0.4571  0.1690
 7685SOL    HW125687   5.078   0.273   7.196  0.2523  1.3254  3.1282
 7685SOL    HW225688   4.987   0.393   7.185  0.8114  1.6201  1.5305
 7686SOL     OW25689   5.733   0.127   1.332 -0.1973 -0.8255 -0.2298
 7686SOL    HW125690   5.689   0.134   1.416 -3.3096 -0.1935 -1.7571
 7686SOL    HW225691   5.767   0.215   1.315 -0.9686 -0.5332 -0.3058
 7687SOL     OW25692   1.845  10.161   0.273 -0.6514 -0.0773  0.2065
 7687SOL    HW125693   1.800  10.216   0.337  1.4818  3.2246 -0.8778
 7687SOL    HW225694   1.924  10.130   0.319  0.6067  1.8609 -0.5065
 7688SOL     OW25695   5.335   9.064   4.942  0.8266 -0.0100 -0.3335
 7688SOL    HW125696   5.258   9.006   4.939  0.3628  0.5850 -0.1458
 7688SOL    HW225697   5.388   9.028   5.014  1.2623 -1.0653 -1.1501
 7689SOL     OW25698   4.426   6.366   2.711  0.0609  0.5491  0.6306
 7689SOL    HW125699   4.332   6.351   2.715  0.2587 -1.4531 -0.6219
 7689SOL    HW225700   4.438   6.453   2.747 -2.2221  0.6996  1.1848
 7690SOL     OW25701   5.566   6.210   1.433  0.7401  0.2441  0.0289
 7690SOL    HW125702   5.549   6.298   1.399 -1.4387  0.2327  0.9191
 7690SOL    HW225703   5.612   6.225   1.516 -2.0265  0.7701  1.5771
 7691SOL     OW25704   3.836   0.656   0.342  0.2420 -0.1830 -0.1770
 7691SOL    HW125705   3.866   0.668   0.252 -0.9574  1.5809 -0.3718
 7691SOL    HW225706   3.742   0.670   0.339  0.2405  0.3965  1.4268
 7692SOL     OW25707   5.477   4.816   9.825 -0.1510  0.3198 -0.3404
 7692SOL    HW125708   5.452   4.771   9.744 -2.7959  2.6266 -0.9842
 7692SOL    HW225709   5.537   4.885   9.797  1.4616 -0.8119  0.1982
 7693SOL     OW25710   1.906   2.299   3.452  0.3203 -0.2631  0.2401
 7693SOL    HW125711   1.867   2.309   3.539  1.9318 -0.0603  0.9872
 7693SOL    HW225712   1.845   2.243   3.405 -1.1453  0.5132  1.1227
 7694SOL     OW25713   6.570   4.566   9.602 -0.3995  0.6972 -0.1003
 7694SOL    HW125714   6.476   4.579   9.596 -0.2778  2.0036  0.3888
 7694SOL    HW225715   6.598   4.547   9.513 -0.8670  2.4926 -0.6756
 7695SOL     OW25716   3.170   9.798   1.275 -0.3048 -0.0156  0.3383
 7695SOL    HW125717   3.164   9.893   1.261 -0.2049 -0.2464 -1.6826
 7695SOL    HW225718   3.256   9.785   1.315 -0.0004  0.7038 -0.0554
 7696SOL     OW25719   2.156   7.400   6.898 -0.1001  0.0322  0.1855
 7696SOL    HW125720   2.102   7.322   6.883  0.8063 -1.3033  3.0572
 7696SOL    HW225721   2.241   7.378   6.860 -0.6531  0.9627 -1.7394
 7697SOL     OW25722   5.888   7.282   8.219 -0.3695  0.3809  0.1006
 7697SOL    HW125723   5.907   7.190   8.238 -0.2869  0.4927  0.5776
 7697SOL    HW225724   5.824   7.307   8.286  0.4367  0.9743  0.6791
 7698SOL     OW25725   8.325   2.241   1.346 -0.3114 -0.2328  0.3481
 7698SOL    HW125726   8.235   2.245   1.378 -0.9095 -0.3713 -1.2316
 7698SOL    HW225727   8.350   2.149   1.356 -0.6242 -0.3472  0.0877
 7699SOL     OW25728   9.114   7.159   6.811  0.0940 -0.9322  0.1346
 7699SOL    HW125729   9.198   7.123   6.841  0.0327  0.2866  1.8866
 7699SOL    HW225730   9.048   7.101   6.849  0.0620 -0.1539  1.3019
 7700SOL     OW25731   3.982   8.042   3.823 -0.1710  0.3198  0.8252
 7700SOL    HW125732   4.032   8.124   3.827 -1.4447  1.0746  2.1455
 7700SOL    HW225733   3.899   8.067   3.784 -0.8802 -0.1422  1.9787
 7701SOL     OW25734   1.643   8.673   9.957  0.4378  0.1636  0.6691
 7701SOL    HW125735   1.606   8.626   9.882 -0.3260  1.3097  0.3135
 7701SOL    HW225736   1.665   8.603  10.020 -1.0337 -0.6641  0.3168
 7702SOL     OW25737   5.427   5.492   9.245  0.1869 -0.0813 -0.0006
 7702SOL    HW125738   5.343   5.533   9.224  0.3754  0.0068 -0.6106
 7702SOL    HW225739   5.491   5.562   9.233  0.4467 -0.3952 -0.4636
 7703SOL     OW25740   8.807   8.535   8.323 -0.0740 -0.1011  0.3206
 7703SOL    HW125741   8.799   8.597   8.250  0.0150  1.3500  1.4982
 7703SOL    HW225742   8.719   8.499   8.334 -0.3909  0.6537  0.3195
 7704SOL     OW25743   3.196   1.252   7.138  0.4956  0.0482  0.3380
 7704SOL    HW125744   3.262   1.269   7.205  0.0533  2.5947  0.2304
 7704SOL    HW225745   3.195   1.331   7.085  1.0594 -1.9646 -2.9665
 7705SOL     OW25746   8.106   7.733   7.244  0.8656  0.2347  0.0052
 7705SOL    HW125747   8.106   7.664   7.177 -1.1379  0.4064 -0.2565
 7705SOL    HW225748   8.102   7.814   7.194 -0.6756  0.3638  0.2757
 7706SOL     OW25749   9.616   3.995   4.432 -0.2081  0.4119  0.3718
 7706SOL    HW125750   9.701   3.980   4.472 -0.2667 -1.4078 -0.0769
 7706SOL    HW225751   9.554   3.949   4.488 -0.5270 -0.5759 -0.7529
 7707SOL     OW25752   4.444   5.361  10.266 -0.3733  0.2606  0.5485
 7707SOL    HW125753   4.370   5.317  10.222 -0.7680  2.3839 -1.0679
 7707SOL    HW225754   4.430   5.454  10.249  1.8747  0.8365  1.5308
 7708SOL     OW25755   6.338   0.851   6.527  0.0644 -0.2158 -0.7709
 7708SOL    HW125756   6.361   0.939   6.557 -0.6170 -0.7082  1.3643
 7708SOL    HW225757   6.411   0.826   6.470  2.9334 -0.1784  2.5911
 7709SOL     OW25758   6.272   1.596   8.733 -0.0385 -0.1353 -0.4109
 7709SOL    HW125759   6.272   1.546   8.814 -1.0545 -0.6420 -0.7001
 7709SOL    HW225760   6.360   1.585   8.697 -0.1066 -1.3481 -0.2341
 7710SOL     OW25761   7.489   5.926  10.171  0.3107  0.1333 -0.5747
 7710SOL    HW125762   7.425   5.878  10.117  0.0079 -0.5237  0.3396
 7710SOL    HW225763   7.436   5.990  10.219  0.3880 -0.1390 -0.1179
 7711SOL     OW25764   1.989   7.394   2.534 -0.2878  0.5908 -0.2335
 7711SOL    HW125765   1.967   7.325   2.472 -4.8348  1.1545  0.4149
 7711SOL    HW225766   1.963   7.359   2.620  3.5669  0.7567  1.2189
 7712SOL     OW25767   7.110   3.663   3.074  0.1467  0.1447  0.1907
 7712SOL    HW125768   7.055   3.679   3.150 -0.1743 -2.0914  0.4859
 7712SOL    HW225769   7.050   3.635   3.005  0.6530  0.0265 -0.2146
 7713SOL     OW25770   8.450   6.880   8.560  0.3663 -0.0253  0.2590
 7713SOL    HW125771   8.392   6.910   8.630  0.4424  0.9484 -0.0786
 7713SOL    HW225772   8.529   6.850   8.606  1.2098  2.4006  0.5496
 7714SOL     OW25773   0.226   1.363   0.164 -0.4291  0.1430 -0.7193
 7714SOL    HW125774   0.223   1.282   0.113  2.1856 -0.3463 -0.2126
 7714SOL    HW225775   0.314   1.397   0.150 -0.6499  1.5876  1.0706
 7715SOL     OW25776   2.367   0.795   5.180 -0.0495 -0.2244  0.1497
 7715SOL    HW125777   2.374   0.884   5.146  2.7416 -0.2077  0.5358
 7715SOL    HW225778   2.434   0.746   5.132 -0.1361 -1.6105  1.3712
 7716SOL     OW25779   7.826   2.044   6.354 -0.0016  0.3238  0.0958
 7716SOL    HW125780   7.738   2.030   6.318  0.2577  0.7170 -0.7292
 7716SOL    HW225781   7.817   2.122   6.409  0.1889  1.4900 -1.4420
 7717SOL     OW25782  10.249   5.044   0.763  0.0641  0.3282  0.3559
 7717SOL    HW125783  10.261   5.041   0.668  1.2659 -0.6258  0.5127
 7717SOL    HW225784  10.330   5.082   0.796 -0.1503  0.2049  1.0343
 7718SOL     OW25785   9.685   1.186   5.265 -0.0818  0.0670 -0.4354
 7718SOL    HW125786   9.757   1.249   5.264 -0.2604  0.3363  1.2387
 7718SOL    HW225787   9.635   1.208   5.344  0.3918 -2.7448  0.7710
 7719SOL     OW25788   7.793   9.421   2.837 -0.0360  0.4791 -0.6320
 7719SOL    HW125789   7.812   9.515   2.832  1.5388  0.2491  0.3298
 7719SOL    HW225790   7.868   9.379   2.794 -0.5869 -0.3341 -0.8073
 7720SOL     OW25791   5.163   5.875   9.112 -0.5495 -0.6205 -0.0131
 7720SOL    HW125792   5.152   5.932   9.189 -1.3718 -0.9218  0.1008
 7720SOL    HW225793   5.241   5.823   9.132  0.2312  0.4644 -0.1255
 7721SOL     OW25794   3.723   2.360   9.725  0.0127  0.4942  0.3509
 7721SOL    HW125795   3.692   2.327   9.641  0.4811  1.2897 -0.1489
 7721SOL    HW225796   3.650   2.412   9.759  0.1487  0.9100  0.0103
 7722SOL     OW25797   3.597   9.427   7.664 -0.2807 -0.0491  0.9052
 7722SOL    HW125798   3.566   9.358   7.724 -0.5777 -1.0703 -0.3611
 7722SOL    HW225799   3.516   9.465   7.629 -0.1117  0.8126  1.4433
 7723SOL     OW25800   6.318   0.673   1.750  0.0739 -0.0177 -0.4006
 7723SOL    HW125801   6.371   0.603   1.714  1.0861  0.6350 -0.2186
 7723SOL    HW225802   6.373   0.713   1.817 -0.3463  1.1587 -0.7329
 7724SOL     OW25803   2.434   5.094   1.790 -0.4988 -0.1361  0.9194
 7724SOL    HW125804   2.493   5.066   1.860 -0.7807  0.2673  1.3193
 7724SOL    HW225805   2.491   5.139   1.728 -0.1093 -1.1999  0.4788
 7725SOL     OW25806   2.474   5.671   7.567 -0.5411  0.3591  0.3428
 7725SOL    HW125807   2.379   5.667   7.568 -0.5135 -0.5112  1.2992
 7725SOL    HW225808   2.501   5.599   7.510 -0.4443 -0.0618  0.9114
 7726SOL     OW25809   2.377   7.568   1.124 -0.2633  0.1709  0.3041
 7726SOL    HW125810   2.304   7.615   1.083  0.8721  1.1304 -0.6778
 7726SOL    HW225811   2.423   7.528   1.051  0.7068  0.3181  0.8242
 7727SOL     OW25812   2.465   7.084   3.034  0.0861  0.0639  0.4753
 7727SOL    HW125813   2.443   6.991   3.036  0.5333 -0.1035 -0.9444
 7727SOL    HW225814   2.474   7.104   2.940  0.0773  1.5151  0.7652
 7728SOL     OW25815   7.861   3.692   3.402  0.1030 -0.0073 -0.4329
 7728SOL    HW125816   7.863   3.700   3.307 -1.2136  2.1206 -0.3756
 7728SOL    HW225817   7.767   3.688   3.423  0.1602  2.7772  0.8591
 7729SOL     OW25818   2.544   9.325   5.849  0.6571  0.4150  0.2501
 7729SOL    HW125819   2.470   9.316   5.909 -1.8514  0.8065 -2.5424
 7729SOL    HW225820   2.570   9.235   5.829 -1.4436  0.0963 -1.3462
 7730SOL     OW25821   3.167   2.143   6.524  0.1005  0.2428 -0.1157
 7730SOL    HW125822   3.249   2.099   6.546  1.1381  1.5109 -1.2845
 7730SOL    HW225823   3.177   2.169   6.433 -1.7691  0.1162 -0.3902
 7731SOL     OW25824   9.873   8.924   8.042 -0.0477  0.4708 -0.4107
 7731SOL    HW125825   9.828   8.855   7.992 -1.0663  0.5008  0.4409
 7731SOL    HW225826   9.956   8.935   7.996 -0.7904  0.2398 -1.8867
 7732SOL     OW25827   7.579   7.160   8.026  0.0329 -0.2970 -0.0139
 7732SOL    HW125828   7.627   7.237   7.996 -1.6551  1.7965  2.1855
 7732SOL    HW225829   7.616   7.087   7.977  2.3481  1.7751 -1.5718
 7733SOL     OW25830   7.991   0.503   4.469  0.7557  0.2067  0.3713
 7733SOL    HW125831   8.078   0.503   4.508  0.9431  0.8578 -0.0302
 7733SOL    HW225832   8.003   0.464   4.383  0.5117 -0.3625  0.5876
 7734SOL     OW25833   5.341   6.546   1.594 -0.1247 -0.3409  0.0565
 7734SOL    HW125834   5.357   6.536   1.688 -0.3795  1.8646  0.3737
 7734SOL    HW225835   5.275   6.480   1.575 -0.2252 -0.6934  1.4591
 7735SOL     OW25836   2.093   0.193   4.037  0.3521  0.3491 -0.1036
 7735SOL    HW125837   2.131   0.213   4.123 -0.4932  4.4978 -0.4871
 7735SOL    HW225838   1.999   0.211   4.048 -0.0488 -0.6338 -1.5564
 7736SOL     OW25839   9.790   2.173   1.853  0.2875 -0.2880 -0.1444
 7736SOL    HW125840   9.830   2.195   1.768 -1.0406 -0.3553 -0.8151
 7736SOL    HW225841   9.829   2.235   1.914  0.7628  0.2216 -0.9396
 7737SOL     OW25842   5.212   7.707   7.266 -0.0540  0.3170  0.0474
 7737SOL    HW125843   5.293   7.715   7.316  0.6005 -0.9839 -0.7410
 7737SOL    HW225844   5.215   7.778   7.203  1.1701 -0.5192 -0.8818
 7738SOL     OW25845   9.429   2.086   7.007 -0.2010 -0.5323 -0.3972
 7738SOL    HW125846   9.489   2.160   6.994  0.6176 -1.0883  0.1320
 7738SOL    HW225847   9.344   2.127   7.025  0.6848  0.3612  2.1966
 7739SOL     OW25848   1.521   1.530   3.551 -0.1374  0.6801  0.5172
 7739SOL    HW125849   1.579   1.560   3.481 -1.0900 -1.0800 -1.1250
 7739SOL    HW225850   1.539   1.436   3.559 -2.0246  0.2808  0.6164
 7740SOL     OW25851   3.596   5.898   1.723  0.3389 -0.0307 -0.6889
 7740SOL    HW125852   3.604   5.804   1.741  1.5433  0.0325 -0.7899
 7740SOL    HW225853   3.643   5.940   1.796  0.3759  0.4618 -0.9915
 7741SOL     OW25854   4.428   8.067   4.516  0.0134  0.2480  0.8250
 7741SOL    HW125855   4.508   8.041   4.561  0.9323  0.4725 -0.6078
 7741SOL    HW225856   4.430   8.017   4.434 -1.3922  0.1521  0.8315
 7742SOL     OW25857   0.655   4.874   9.666 -0.4941  0.1650  0.0447
 7742SOL    HW125858   0.599   4.883   9.743  0.6690  1.9760  0.7425
 7742SOL    HW225859   0.737   4.838   9.701  0.2768  1.6209 -0.1953
 7743SOL     OW25860   8.003   5.022   4.501  0.0292  0.3295  0.5058
 7743SOL    HW125861   7.975   5.065   4.582  0.6765  1.3049  0.2254
 7743SOL    HW225862   8.029   4.934   4.529  0.1790  0.6326  1.3544
 7744SOL     OW25863   0.482   5.954   5.835 -0.4106  0.1704 -0.6769
 7744SOL    HW125864   0.525   5.895   5.772  0.1602 -0.2838  0.1259
 7744SOL    HW225865   0.458   5.897   5.908  2.2328  1.2406  1.1917
 7745SOL     OW25866   4.645   9.502   6.389 -0.2476  0.4460  0.6440
 7745SOL    HW125867   4.625   9.410   6.368 -0.0059  0.4378  0.4391
 7745SOL    HW225868   4.657   9.503   6.484 -1.1042  0.4331  0.7545
 7746SOL     OW25869   3.299   0.498  10.231 -0.0894  0.3243  0.0239
 7746SOL    HW125870   3.276   0.412  10.267  0.9411  0.4287  0.9874
 7746SOL    HW225871   3.312   0.482  10.138 -2.1329 -0.1000 -0.2429
 7747SOL     OW25872   7.161   3.333   0.911 -0.7721  0.7168  0.4095
 7747SOL    HW125873   7.223   3.352   0.981 -0.1925 -0.4431  0.2363
 7747SOL    HW225874   7.166   3.409   0.853  2.1540 -0.2295 -0.7769
 7748SOL     OW25875   7.075   2.808   7.418  0.1939 -0.1062  0.1725
 7748SOL    HW125876   7.128   2.755   7.358  1.9532  1.1210  0.5574
 7748SOL    HW225877   7.045   2.881   7.364 -0.4130 -0.3588  0.1644
 7749SOL     OW25878   9.481   9.474   9.672  0.0108 -0.4047  0.6689
 7749SOL    HW125879   9.481   9.381   9.647 -0.1539 -0.1949 -0.1350
 7749SOL    HW225880   9.573   9.500   9.666 -0.0955 -0.2152 -0.2919
 7750SOL     OW25881   4.086   1.660   0.186  0.0419 -0.1232  0.0744
 7750SOL    HW125882   4.171   1.670   0.143  0.0675 -0.0580  0.1388
 7750SOL    HW225883   4.075   1.742   0.235 -0.6720  0.4554 -1.0157
 7751SOL     OW25884   0.720   2.900   7.564  0.0933 -0.0010 -0.5251
 7751SOL    HW125885   0.625   2.894   7.550 -0.1567  2.5099 -0.3893
 7751SOL    HW225886   0.750   2.962   7.498  1.1665  1.2961  1.0885
 7752SOL     OW25887   4.150   9.099   8.041 -0.6365  0.4824  0.4904
 7752SOL    HW125888   4.166   9.018   7.993 -1.6993  0.6576 -0.1798
 7752SOL    HW225889   4.180   9.169   7.982 -1.2147  0.6569  0.3992
 7753SOL     OW25890   3.873   0.927   7.234 -0.0275 -0.2947  0.1918
 7753SOL    HW125891   3.843   0.936   7.325  2.2845 -1.3632  1.1493
 7753SOL    HW225892   3.914   1.011   7.214  0.0755 -0.3015  0.3771
 7754SOL     OW25893   1.935   5.443   2.012 -0.0432  0.0122  0.1241
 7754SOL    HW125894   2.023   5.481   2.011 -1.2234  2.9705 -1.8951
 7754SOL    HW225895   1.896   5.474   2.094  0.0533  0.6186 -0.0545
 7755SOL     OW25896   6.422   8.792   4.011  0.4910 -0.3923 -0.1450
 7755SOL    HW125897   6.394   8.759   3.926  3.6507 -0.6538 -1.2401
 7755SOL    HW225898   6.419   8.887   4.003 -0.1201 -0.4148 -0.2011
 7756SOL     OW25899   6.517   6.070   9.524  0.5345  0.5466 -0.1725
 7756SOL    HW125900   6.440   6.045   9.575 -1.4223  2.7085 -1.8234
 7756SOL    HW225901   6.517   6.166   9.525  2.4637  0.6212 -1.3270
 7757SOL     OW25902   5.100   0.690   3.811  0.0870 -0.3021 -0.5164
 7757SOL    HW125903   5.088   0.597   3.832 -1.3284 -0.1273 -0.4509
 7757SOL    HW225904   5.180   0.714   3.858 -0.0829 -1.2439  0.3094
 7758SOL     OW25905   5.276   9.084   9.938  0.1927  0.1388  0.4634
 7758SOL    HW125906   5.193   9.100   9.894  0.5952  0.3259 -0.2386
 7758SOL    HW225907   5.304   9.170   9.970  0.0130  0.0404  0.8912
 7759SOL     OW25908   3.673   8.992   9.074  0.2275 -0.1736  0.0964
 7759SOL    HW125909   3.661   9.019   9.165  1.4093  0.6929  0.0202
 7759SOL    HW225910   3.749   9.043   9.044  0.1407 -0.7932 -1.2295
 7760SOL     OW25911   6.304   5.933   8.724  0.2804  0.5109  0.2561
 7760SOL    HW125912   6.323   5.907   8.634 -0.4403  0.1799  0.1934
 7760SOL    HW225913   6.260   5.857   8.762 -0.1497  0.9446  0.6382
 7761SOL     OW25914   1.422   7.421   3.063  0.2791 -0.2992 -0.0918
 7761SOL    HW125915   1.330   7.449   3.066  0.4040  0.0837  0.3045
 7761SOL    HW225916   1.460   7.456   3.144  0.4412 -1.6192  0.4265
 7762SOL     OW25917   7.762   4.451   1.332 -0.4704 -0.0105  0.1775
 7762SOL    HW125918   7.839   4.433   1.387 -0.4653 -1.4992 -0.2954
 7762SOL    HW225919   7.798   4.463   1.244 -0.6608  0.5519  0.1753
 7763SOL     OW25920   1.327   6.566   0.244  0.1262 -0.2172  0.3384
 7763SOL    HW125921   1.366   6.552   0.331 -1.3747  0.9925  1.2550
 7763SOL    HW225922   1.237   6.536   0.253 -0.7605  2.1346 -0.0345
 7764SOL     OW25923   2.212  10.182   4.428  0.4005 -0.3704 -0.5060
 7764SOL    HW125924   2.197  10.265   4.473 -0.0153 -0.6578 -0.1062
 7764SOL    HW225925   2.262  10.130   4.490 -0.2245 -0.7914 -0.3509
 7765SOL     OW25926   8.341   3.599   9.754  0.1075  0.2332 -0.4894
 7765SOL    HW125927   8.348   3.684   9.796  0.3597 -0.8598  1.8578
 7765SOL    HW225928   8.301   3.617   9.669 -1.9679  2.4502  0.8180
 7766SOL     OW25929   7.956   1.157   5.666  0.1872  0.1531  0.2704
 7766SOL    HW125930   7.947   1.195   5.753  2.3859 -0.1987  0.7150
 7766SOL    HW225931   7.909   1.216   5.608  2.1844  2.7955  1.1419
 7767SOL     OW25932   1.251   2.834   7.677  0.9425 -0.3067 -0.2615
 7767SOL    HW125933   1.280   2.817   7.587  1.3016  2.9529 -0.8887
 7767SOL    HW225934   1.157   2.849   7.669  1.1556  1.1174 -0.3450
 7768SOL     OW25935   1.729   3.046   1.681 -0.0523 -0.2176  0.7597
 7768SOL    HW125936   1.751   3.123   1.734  0.2611  0.0851  0.2046
 7768SOL    HW225937   1.703   3.083   1.596  0.4498 -0.7449  0.3766
 7769SOL     OW25938   8.253   5.978   3.892 -0.5526 -0.3519 -0.0785
 7769SOL    HW125939   8.274   6.039   3.821 -2.9792 -0.8942 -1.3942
 7769SOL    HW225940   8.176   6.017   3.934  0.0731 -0.7075  1.4591
 7770SOL     OW25941   6.594   5.935   7.254 -0.7422 -0.5172  0.1877
 7770SOL    HW125942   6.505   5.905   7.236 -0.3999 -1.0414 -0.6781
 7770SOL    HW225943   6.640   5.858   7.287 -0.3390 -0.5104 -0.3425
 7771SOL     OW25944   5.588   2.353   6.790 -0.1630 -0.0953  0.1534
 7771SOL    HW125945   5.612   2.274   6.838 -1.1606 -1.7783 -1.9349
 7771SOL    HW225946   5.671   2.396   6.770  0.8008 -2.5634 -1.7099
 7772SOL     OW25947   4.094   2.367   7.864  0.0651  0.6141 -0.0910
 7772SOL    HW125948   4.182   2.331   7.870 -0.3160 -0.3887 -0.3150
 7772SOL    HW225949   4.044   2.302   7.814 -0.7303  1.3022 -0.2231
 7773SOL     OW25950   5.877  10.172   5.100 -0.1117 -0.8980 -0.3915
 7773SOL    HW125951   5.914  10.260   5.092 -2.3146 -0.0488 -2.2718
 7773SOL    HW225952   5.855  10.164   5.193  0.7538  0.2372 -0.0532
 7774SOL     OW25953   0.382   5.510   2.036 -0.0936 -0.1420  0.4028
 7774SOL    HW125954   0.410   5.418   2.035 -1.6416 -0.6704  1.9036
 7774SOL    HW225955   0.383   5.535   2.128  0.5202  1.4577  0.0061
 7775SOL     OW25956   0.924  10.071   7.063 -0.0621 -0.3375  0.0390
 7775SOL    HW125957   0.950  10.101   7.150 -0.1164 -0.0695 -0.0362
 7775SOL    HW225958   0.992  10.104   7.005  0.5807 -1.4667  0.1208
 7776SOL     OW25959   2.818   7.263   9.845 -0.5003  0.1249  0.4875
 7776SOL    HW125960   2.911   7.286   9.850 -1.1783  3.5295 -0.0732
 7776SOL    HW225961   2.816   7.183   9.793  2.1102 -0.1268  0.6346
 7777SOL     OW25962   5.381   0.396   4.487  0.2367  0.0041 -0.2491
 7777SOL    HW125963   5.399   0.317   4.436 -0.4450  0.0938 -0.6362
 7777SOL    HW225964   5.447   0.459   4.458 -0.1555  0.0642 -1.0616
 7778SOL     OW25965   2.826   5.550   3.992  0.3505 -0.3133  0.4210
 7778SOL    HW125966   2.806   5.580   4.081  1.6394 -1.6687  1.2275
 7778SOL    HW225967   2.758   5.486   3.972 -1.0392  1.3410 -0.3674
 7779SOL     OW25968   5.821   1.846   4.825 -0.1673  0.1060  0.6848
 7779SOL    HW125969   5.852   1.806   4.906  1.8711 -0.5934 -0.3707
 7779SOL    HW225970   5.871   1.928   4.818 -1.1974  0.7618  0.6873
 7780SOL     OW25971   0.071   4.703   9.830 -0.9676  0.2500  0.0100
 7780SOL    HW125972  -0.017   4.709   9.792 -0.3226 -2.2241 -2.1138
 7780SOL    HW225973   0.090   4.609   9.833  2.0312  0.7381 -0.6443
 7781SOL     OW25974   6.616   7.920   0.941  0.0070 -0.2522  0.5463
 7781SOL    HW125975   6.557   7.958   0.875  1.3174 -0.2304 -0.6732
 7781SOL    HW225976   6.629   7.991   1.005  0.1160  0.3689 -0.1440
 7782SOL     OW25977   0.997   2.046   1.433  0.7528  0.5444 -0.5143
 7782SOL    HW125978   0.984   1.987   1.507 -1.4869 -0.3404 -1.5106
 7782SOL    HW225979   1.092   2.054   1.425  1.0884 -1.1173  1.0498
 7783SOL     OW25980   5.165   2.813   0.777  0.3357  0.0609 -0.2038
 7783SOL    HW125981   5.248   2.766   0.764  0.2282 -0.1433 -0.1480
 7783SOL    HW225982   5.181   2.870   0.852 -0.3867 -1.8750  1.5068
 7784SOL     OW25983  10.322   3.291   4.576 -0.0823 -0.1001  0.2075
 7784SOL    HW125984  10.234   3.261   4.555 -0.7275  0.3730  1.9671
 7784SOL    HW225985  10.308   3.372   4.627  1.3685  0.1091  0.3264
 7785SOL     OW25986   6.688   2.756   4.676  0.3067  0.3408 -0.0290
 7785SOL    HW125987   6.611   2.706   4.700 -1.0839  1.9436 -0.9364
 7785SOL    HW225988   6.761   2.707   4.713 -0.9402 -2.3151 -0.8387
 7786SOL     OW25989   7.200   6.903   6.943 -0.4369 -0.0074  0.7637
 7786SOL    HW125990   7.141   6.898   7.019 -2.3066  1.0252 -0.5265
 7786SOL    HW225991   7.144   6.885   6.868  1.0985  0.2062 -0.4907
 7787SOL     OW25992   7.900   4.136   4.269  0.0248  0.5543 -0.0892
 7787SOL    HW125993   7.855   4.074   4.211  2.8680 -0.1387 -1.7188
 7787SOL    HW225994   7.892   4.096   4.356 -0.9607 -0.4273 -0.5942
 7788SOL     OW25995   9.364   4.807   9.887 -0.3664 -0.0260 -0.2223
 7788SOL    HW125996   9.336   4.718   9.908 -1.2184  0.7439  2.2198
 7788SOL    HW225997   9.298   4.840   9.826 -2.0080  0.0203  1.4910
 7789SOL     OW25998   8.923   3.480   6.335 -0.0371 -0.4421 -0.3274
 7789SOL    HW125999   8.848   3.534   6.310  1.0802  0.8479 -1.0365
 7789SOL    HW226000   8.935   3.498   6.428 -1.7062 -2.1190  0.2914
 7790SOL     OW26001   8.807   8.525   7.241  0.8943  0.0407  0.2721
 7790SOL    HW126002   8.836   8.546   7.152  0.3001 -0.9889 -0.1899
 7790SOL    HW226003   8.738   8.459   7.228  0.9679 -0.2935  1.5036
 7791SOL     OW26004   0.813   4.957   1.380  0.0344  0.3012 -0.4906
 7791SOL    HW126005   0.775   4.877   1.417  1.7588  0.0873  0.9487
 7791SOL    HW226006   0.739   5.018   1.374 -1.4821 -1.5791 -2.3420
 7792SOL     OW26007   6.081   9.701   5.174 -0.2699 -0.0965 -0.5220
 7792SOL    HW126008   6.105   9.745   5.092  0.0713  0.5960 -0.0575
 7792SOL    HW226009   6.036   9.768   5.225  0.5633 -0.1806  0.3452
 7793SOL     OW26010   4.701  10.135   0.890 -0.4971 -0.2318 -0.2957
 7793SOL    HW126011   4.615  10.138   0.847 -0.2308 -1.7600 -1.0050
 7793SOL    HW226012   4.680  10.122   0.983 -1.0732 -1.7701 -0.6008
 7794SOL     OW26013  10.093   9.556   7.889 -0.1976  0.1661 -0.3716
 7794SOL    HW126014  10.031   9.628   7.879 -0.4664  0.0319  0.2985
 7794SOL    HW226015  10.158   9.588   7.952 -0.8343 -0.5115  0.6410
 7795SOL     OW26016   6.574   7.962   6.021  0.5432 -0.0221 -0.1383
 7795SOL    HW126017   6.588   7.922   5.935 -0.1978 -0.2398 -0.1672
 7795SOL    HW226018   6.648   7.933   6.074  0.5354 -0.6136 -0.4479
 7796SOL     OW26019   2.498   3.543   2.493  0.3365  0.1831  0.4606
 7796SOL    HW126020   2.460   3.464   2.531  0.3294 -0.5223 -0.9324
 7796SOL    HW226021   2.461   3.547   2.405  2.0279  0.4981 -0.2867
 7797SOL     OW26022   8.515   2.617   1.682  0.3091  0.0893  0.3892
 7797SOL    HW126023   8.454   2.607   1.755  1.3156 -2.0979  1.0190
 7797SOL    HW226024   8.494   2.544   1.623  1.3243  0.1993 -0.1256
 7798SOL     OW26025   7.658   5.646   7.437 -0.1847 -0.4152 -0.5187
 7798SOL    HW126026   7.665   5.713   7.505  1.2350  1.3035 -2.2254
 7798SOL    HW226027   7.664   5.563   7.484 -3.3227  0.5135  1.8274
 7799SOL     OW26028   7.200   9.578   8.492 -0.3217  0.3376 -0.2893
 7799SOL    HW126029   7.215   9.497   8.541 -0.0583  0.4461 -0.1891
 7799SOL    HW226030   7.184   9.645   8.559  3.7217  1.3228 -0.0494
 7800SOL     OW26031   7.881   1.947   4.160 -0.2691 -0.7510 -0.0796
 7800SOL    HW126032   7.823   1.918   4.231  1.0831 -0.9914  0.9713
 7800SOL    HW226033   7.848   2.034   4.138 -2.0214 -1.5200 -0.6506
 7801SOL     OW26034   7.558   0.685   7.487 -0.1799  0.4805  0.1490
 7801SOL    HW126035   7.589   0.629   7.559 -3.0134 -0.2631  0.9206
 7801SOL    HW226036   7.477   0.723   7.520 -0.9537  1.0719 -2.2350
 7802SOL     OW26037   0.316   6.533   5.007 -0.0792 -0.0095 -0.4581
 7802SOL    HW126038   0.332   6.571   5.093  0.7236  0.9827 -1.0169
 7802SOL    HW226039   0.222   6.542   4.993  0.1224  2.1822 -0.7207
 7803SOL     OW26040  10.054   4.378   1.690 -0.5546 -0.0958 -0.2625
 7803SOL    HW126041   9.976   4.432   1.681 -0.4107  0.3175  0.8510
 7803SOL    HW226042  10.063   4.335   1.605 -2.5745 -0.9605 -0.0753
 7804SOL     OW26043   6.383   8.437   7.687 -0.0798 -0.1503  0.3157
 7804SOL    HW126044   6.331   8.407   7.613 -1.8417  1.7914  0.6804
 7804SOL    HW226045   6.333   8.411   7.764  2.9311 -4.4588  1.1613
 7805SOL     OW26046  10.304   0.535   9.913 -0.4036  0.0173  0.2938
 7805SOL    HW126047  10.390   0.549   9.873 -0.0290  0.3806  1.2006
 7805SOL    HW226048  10.303   0.593   9.989 -1.7466  0.5547 -0.1112
 7806SOL     OW26049   4.025   8.564   4.211  0.7102 -0.1648 -0.2056
 7806SOL    HW126050   4.107   8.584   4.167  0.9017  0.0376  0.2413
 7806SOL    HW226051   4.007   8.473   4.187  1.8757 -0.7368  0.9405
 7807SOL     OW26052   3.342   9.355   8.897 -0.3839  0.1399  0.4327
 7807SOL    HW126053   3.333   9.308   8.814 -0.0363  0.4610  0.2102
 7807SOL    HW226054   3.348   9.285   8.962  0.6949 -0.1544  0.0499
 7808SOL     OW26055   9.111   9.966   2.329  0.1282  0.0855  0.4034
 7808SOL    HW126056   9.173   9.949   2.259 -0.7890  2.7425 -1.1915
 7808SOL    HW226057   9.050  10.030   2.293 -1.6599  0.0023  2.9570
 7809SOL     OW26058   2.363   4.020   0.935 -0.9097  0.1216  0.7894
 7809SOL    HW126059   2.279   4.012   0.890 -0.8271  0.8827  0.4887
 7809SOL    HW226060   2.341   4.019   1.028 -1.1567 -0.6467  0.7309
 7810SOL     OW26061   8.837   9.258   8.206 -0.6555 -0.8980 -0.2448
 7810SOL    HW126062   8.764   9.318   8.222  0.2864 -0.2165  1.8575
 7810SOL    HW226063   8.830   9.193   8.276  0.6190 -0.9492 -0.1503
 7811SOL     OW26064   0.810   9.210   7.020 -0.0798 -0.0945 -0.4354
 7811SOL    HW126065   0.889   9.170   6.983  0.1347  0.7118 -0.8733
 7811SOL    HW226066   0.747   9.209   6.948 -1.3610 -2.9336  0.5439
 7812SOL     OW26067   6.165   6.493   3.019  0.3771 -0.2053 -0.1030
 7812SOL    HW126068   6.186   6.575   2.973  0.0628 -0.2018 -0.2364
 7812SOL    HW226069   6.243   6.476   3.072 -0.5396  1.5771  1.9612
 7813SOL     OW26070   5.954   9.151   0.883 -0.3139  0.5210 -0.1947
 7813SOL    HW126071   5.979   9.172   0.973  0.3663  1.3379 -0.5568
 7813SOL    HW226072   6.038   9.143   0.836 -0.6308 -0.6916 -0.5902
 7814SOL     OW26073   6.702   2.695   8.015  0.2732 -0.0256  0.1424
 7814SOL    HW126074   6.661   2.749   7.948 -0.1477 -0.5749 -0.0477
 7814SOL    HW226075   6.737   2.757   8.079 -0.8897  0.4421  0.3341
 7815SOL     OW26076   4.100   8.755   2.960 -0.2373  0.1412  0.5375
 7815SOL    HW126077   4.051   8.815   2.904 -1.0914 -0.1248  0.9846
 7815SOL    HW226078   4.191   8.763   2.930 -0.4936  0.9047 -0.0684
 7816SOL     OW26079   0.962   3.204   1.988  0.4634 -0.4259 -0.0980
 7816SOL    HW126080   0.931   3.247   1.908 -1.5134 -0.4462  0.5868
 7816SOL    HW226081   0.908   3.124   1.994 -0.1263  0.0644  1.7355
 7817SOL     OW26082   3.679  10.341   6.181 -0.0367  0.1801  0.0232
 7817SOL    HW126083   3.745  10.387   6.130  0.9549 -0.6768  0.5153
 7817SOL    HW226084   3.724  10.316   6.262 -0.6676 -1.2758 -0.0457
 7818SOL     OW26085  10.124   3.009   5.496  0.1211  0.7698 -0.1173
 7818SOL    HW126086  10.107   3.041   5.408  0.8391  0.9076 -0.2089
 7818SOL    HW226087  10.158   2.920   5.483  2.4210  1.6068 -0.1259
 7819SOL     OW26088   8.088   5.101   3.675  0.0384  0.1144  0.2243
 7819SOL    HW126089   8.117   5.185   3.710  1.6357 -1.4470  2.8731
 7819SOL    HW226090   8.160   5.072   3.619  0.2245 -0.2329  0.6391
 7820SOL     OW26091   6.088   3.948   2.903  0.5082  0.8511  0.0135
 7820SOL    HW126092   6.084   4.043   2.891 -0.7894  0.6689 -1.2217
 7820SOL    HW226093   6.078   3.935   2.998  0.0549  1.9217  0.1198
 7821SOL     OW26094   0.211   8.989   6.670  0.4386  0.0066  0.5281
 7821SOL    HW126095   0.171   8.907   6.643  1.2716 -0.2069 -0.0799
 7821SOL    HW226096   0.292   8.995   6.619  0.8451  0.7553  1.2331
 7822SOL     OW26097   4.877   2.596   8.230 -0.2861  0.2350  0.2304
 7822SOL    HW126098   4.934   2.551   8.293  1.4905  1.1498 -0.6489
 7822SOL    HW226099   4.859   2.530   8.163  1.4017  0.4465 -0.4851
 7823SOL     OW26100   0.915   2.349   6.931 -0.1635 -0.3978 -0.4181
 7823SOL    HW126101   1.001   2.388   6.945  0.0342 -0.7726 -0.5548
 7823SOL    HW226102   0.896   2.304   7.013 -1.0191  1.1315  0.2542
 7824SOL     OW26103   4.668   9.002   4.480  0.4609 -0.0517  0.3073
 7824SOL    HW126104   4.756   9.029   4.504  0.7485 -1.3355  0.7951
 7824SOL    HW226105   4.675   8.907   4.466 -0.4884  0.0641 -1.2680
 7825SOL     OW26106   5.770   9.020   3.682 -0.1802  0.2533 -0.8724
 7825SOL    HW126107   5.676   9.008   3.668 -0.4949  0.7661  0.6196
 7825SOL    HW226108   5.779   9.038   3.776  1.1405  2.5535 -1.3558
 7826SOL     OW26109   0.120   8.465   5.860  0.2153 -0.8558 -0.5593
 7826SOL    HW126110   0.038   8.511   5.845  0.5325 -0.0607  0.0651
 7826SOL    HW226111   0.106   8.378   5.822  0.0176  0.1008 -2.7724
 7827SOL     OW26112   5.816   5.322   3.594 -0.1177  0.0664 -0.5062
 7827SOL    HW126113   5.823   5.301   3.501 -0.7851  0.4886 -0.6664
 7827SOL    HW226114   5.794   5.239   3.636  1.7369 -0.4581 -0.4925
 7828SOL     OW26115   7.056   2.696   0.631  0.3814 -0.1853  0.5892
 7828SOL    HW126116   7.051   2.738   0.717  0.6201 -0.9486  0.9922
 7828SOL    HW226117   7.018   2.760   0.570 -1.2941 -0.2455  1.4909
 7829SOL     OW26118   2.288   6.410   8.406  0.3733  0.7666  0.4772
 7829SOL    HW126119   2.323   6.404   8.495  0.0564  1.6528  0.6681
 7829SOL    HW226120   2.205   6.362   8.411  1.7404 -1.8983 -0.1318
 7830SOL     OW26121   1.107   2.093   6.828 -0.3569 -0.1296  0.0084
 7830SOL    HW126122   1.067   2.093   6.741  3.3098 -2.4850 -1.9513
 7830SOL    HW226123   1.161   2.173   6.829 -0.4807 -0.0480  0.1554
 7831SOL     OW26124   5.798   4.000   8.269 -0.2615  0.0600  0.6239
 7831SOL    HW126125   5.788   4.069   8.335 -1.3378  0.9956 -0.4647
 7831SOL    HW226126   5.881   4.020   8.225  0.0998 -0.1475  1.2028
 7832SOL     OW26127   6.794   0.540   2.515 -0.1806 -0.1461  0.5579
 7832SOL    HW126128   6.703   0.519   2.493  0.1406 -1.0735  0.0628
 7832SOL    HW226129   6.819   0.608   2.452 -0.2972 -0.4198  0.2183
 7833SOL     OW26130   0.101   9.004   3.150 -0.0483 -0.0317  0.1354
 7833SOL    HW126131   0.108   8.965   3.063 -1.8610  0.2484 -0.1756
 7833SOL    HW226132   0.137   8.938   3.209  0.1730 -0.6886 -0.7115
 7834SOL     OW26133   6.999   5.154   8.009 -0.2527  0.0929  0.6113
 7834SOL    HW126134   6.906   5.178   8.009 -0.7335 -1.6476  0.6314
 7834SOL    HW226135   7.044   5.234   7.980 -1.6614  1.2293  1.4168
 7835SOL     OW26136   3.183   7.740   1.077  0.3142  0.1192 -0.4726
 7835SOL    HW126137   3.157   7.649   1.091  1.2052  0.2043  2.4431
 7835SOL    HW226138   3.251   7.735   1.009 -2.3531 -0.8292 -3.2715
 7836SOL     OW26139   7.615   8.416   3.532 -0.2503  0.2190  0.6486
 7836SOL    HW126140   7.653   8.334   3.564 -1.5712 -0.6927 -0.0372
 7836SOL    HW226141   7.687   8.479   3.537  0.0248 -0.1783  4.0151
 7837SOL     OW26142   3.942   2.828   6.596 -0.6091  0.6190  0.1602
 7837SOL    HW126143   3.947   2.882   6.517 -0.5458 -1.0141 -0.9851
 7837SOL    HW226144   3.855   2.788   6.592  0.2281 -1.2256 -0.2773
 7838SOL     OW26145   7.985   5.597   2.413 -0.3681  0.5900 -0.0629
 7838SOL    HW126146   7.946   5.517   2.378  1.5993 -1.2622  1.6853
 7838SOL    HW226147   7.945   5.607   2.500  0.6679  0.4695  0.4397
 7839SOL     OW26148   9.027   0.300   9.924  0.3673  0.4223 -0.2587
 7839SOL    HW126149   9.059   0.310  10.014  0.3922  1.0371 -0.3338
 7839SOL    HW226150   9.037   0.207   9.905 -0.8873  0.0323  0.8512
 7840SOL     OW26151   8.119   5.269   2.632 -0.3972 -0.3993  0.0957
 7840SOL    HW126152   8.088   5.354   2.664 -1.0294 -0.6762  0.2386
 7840SOL    HW226153   8.137   5.283   2.539 -2.0312 -0.4988 -0.2666
 7841SOL     OW26154   7.691   0.857   6.815 -0.4640 -0.0770  0.1599
 7841SOL    HW126155   7.622   0.804   6.856  0.3391  0.4096  2.2906
 7841SOL    HW226156   7.756   0.793   6.786 -1.3163 -0.4717 -0.9418
 7842SOL     OW26157   2.393   6.731   8.240 -0.3226 -0.9914 -0.7210
 7842SOL    HW126158   2.302   6.752   8.260  0.2046  1.0088 -0.1818
 7842SOL    HW226159   2.407   6.645   8.278 -1.4711 -0.5204  0.8642
 7843SOL     OW26160   1.435   9.622   7.360 -0.2406 -0.0892 -0.1364
 7843SOL    HW126161   1.424   9.538   7.404 -0.5791  0.4507  0.8373
 7843SOL    HW226162   1.353   9.634   7.311  0.3574 -0.9463 -1.4057
 7844SOL     OW26163   9.792   7.267   1.732 -0.2136 -0.0635  0.1434
 7844SOL    HW126164   9.800   7.188   1.678 -0.6307  0.0257 -0.0548
 7844SOL    HW226165   9.704   7.299   1.714  0.7063  1.7292 -1.5409
 7845SOL     OW26166   3.902   8.882   2.790 -0.0303 -0.7310 -0.5967
 7845SOL    HW126167   3.874   8.917   2.705  3.3164  3.5477 -0.3253
 7845SOL    HW226168   3.854   8.935   2.854  0.3843 -1.1385  0.0606
 7846SOL     OW26169   0.721   6.167   3.284 -0.1245  0.5440 -0.0928
 7846SOL    HW126170   0.630   6.144   3.264  0.1981  0.1842 -1.1870
 7846SOL    HW226171   0.759   6.087   3.319 -0.1657  0.6319  0.1537
 7847SOL     OW26172   3.822   1.796   6.100  0.5183  0.4955 -0.3318
 7847SOL    HW126173   3.877   1.722   6.075 -0.4159 -0.1073 -0.6926
 7847SOL    HW226174   3.880   1.872   6.096  1.3402 -0.1301 -0.5862
 7848SOL     OW26175   3.554   3.164   1.685 -0.3878  0.8466 -0.5323
 7848SOL    HW126176   3.495   3.238   1.696 -0.6802  0.5586 -0.1449
 7848SOL    HW226177   3.586   3.172   1.595 -1.2327  0.8406 -0.8403
 7849SOL     OW26178   7.466   5.478   1.966  0.0398 -0.4442 -0.0179
 7849SOL    HW126179   7.375   5.490   1.939  0.3577 -1.0052 -1.4459
 7849SOL    HW226180   7.511   5.555   1.930  0.0849  0.0162  0.9963
 7850SOL     OW26181   5.736   6.781   2.777 -0.0367  0.0544 -0.3335
 7850SOL    HW126182   5.678   6.769   2.702 -0.7739 -1.1762  0.3986
 7850SOL    HW226183   5.696   6.851   2.828  0.2640  0.6320 -0.8681
 7851SOL     OW26184   3.016   9.526   3.747  0.2704  0.0293  0.0496
 7851SOL    HW126185   3.068   9.606   3.746  0.7366 -0.2112  1.6438
 7851SOL    HW226186   3.071   9.461   3.702 -0.1541  0.5889 -1.3400
 7852SOL     OW26187   5.277   2.364  10.304  0.1354 -0.1710 -0.3000
 7852SOL    HW126188   5.318   2.278  10.303  0.1200 -0.1754 -0.8771
 7852SOL    HW226189   5.211   2.360  10.234 -1.4642 -0.4512  1.1423
 7853SOL     OW26190   3.465   7.736   1.410 -0.5590  0.3293  0.1149
 7853SOL    HW126191   3.536   7.800   1.414 -0.4724  0.6661 -3.4863
 7853SOL    HW226192   3.387   7.786   1.435 -0.1607  1.2531 -0.4018
 7854SOL     OW26193   6.209   3.060   6.016  0.4234  0.3310  0.2970
 7854SOL    HW126194   6.256   3.079   5.935 -1.1505  0.7343 -0.5738
 7854SOL    HW226195   6.231   2.969   6.036 -0.9510 -0.5594 -1.9119
 7855SOL     OW26196   3.278   4.163   9.646  0.3777  0.5036 -0.0294
 7855SOL    HW126197   3.253   4.075   9.618 -0.4601  1.1180 -1.3339
 7855SOL    HW226198   3.210   4.189   9.707 -0.1847  0.7706 -0.7494
 7856SOL     OW26199   3.703   2.788   0.582  0.0005  0.1596  0.3284
 7856SOL    HW126200   3.621   2.827   0.613 -1.4495 -1.8475 -0.7853
 7856SOL    HW226201   3.687   2.771   0.489  1.4391 -0.9023  0.2539
 7857SOL     OW26202  10.138   7.163   4.188  0.0884 -0.0281 -0.2071
 7857SOL    HW126203  10.222   7.208   4.201  0.7334 -1.1831 -0.2610
 7857SOL    HW226204  10.107   7.145   4.276  0.8564 -1.2994 -0.1687
 7858SOL     OW26205   4.503   9.089   2.215 -0.2280 -0.1094 -0.0107
 7858SOL    HW126206   4.563   9.143   2.164  1.5865 -0.8494  1.2527
 7858SOL    HW226207   4.528   9.105   2.306 -1.3787 -1.1068  0.4995
 7859SOL     OW26208   1.416   7.048   9.669 -0.1407 -0.6119  0.3150
 7859SOL    HW126209   1.511   7.057   9.671 -0.2519  0.7337  1.1336
 7859SOL    HW226210   1.386   7.120   9.614 -0.7764  0.2587  1.7357
 7860SOL     OW26211  10.231   0.536   8.365 -0.2194 -0.1935  0.5277
 7860SOL    HW126212  10.214   0.542   8.271 -0.0613  1.1652  0.5731
 7860SOL    HW226213  10.239   0.442   8.382 -2.0052 -0.5774 -0.4909
 7861SOL     OW26214   0.329   0.439   5.923  0.3056 -0.6345 -0.1443
 7861SOL    HW126215   0.243   0.480   5.924  1.5060  2.1841  2.5374
 7861SOL    HW226216   0.363   0.455   5.835 -0.7650  0.8200 -0.3220
 7862SOL     OW26217   7.312   8.319   9.116 -0.2139  0.2630  0.6557
 7862SOL    HW126218   7.390   8.284   9.074 -1.4835 -0.5739 -1.1493
 7862SOL    HW226219   7.275   8.244   9.163 -0.2560  0.4970  1.0002
 7863SOL     OW26220   8.636   4.027   1.717 -0.0082 -0.3453  0.2107
 7863SOL    HW126221   8.548   4.061   1.701  1.0451  3.2417  1.0161
 7863SOL    HW226222   8.645   3.953   1.658 -2.9471  0.2660 -1.1756
 7864SOL     OW26223   0.509   6.340   5.991 -0.3417 -0.6007  0.1855
 7864SOL    HW126224   0.435   6.336   5.930 -0.4088  0.2753  0.1907
 7864SOL    HW226225   0.522   6.250   6.019 -0.9460 -0.8697 -0.3741
 7865SOL     OW26226   1.059   6.139   4.462  0.5024 -0.0477  0.4270
 7865SOL    HW126227   1.068   6.197   4.537  1.3011  0.7758 -0.2775
 7865SOL    HW226228   1.072   6.196   4.386  0.0467 -0.9186 -0.3325
 7866SOL     OW26229   6.263   9.150   7.868  0.2477 -0.5479  0.3076
 7866SOL    HW126230   6.260   9.161   7.963 -0.4783  0.1612  0.2098
 7866SOL    HW226231   6.333   9.208   7.840 -1.5049  1.5878  0.1222
 7867SOL     OW26232   7.758   1.057   0.322  0.2656  0.3508 -0.2662
 7867SOL    HW126233   7.847   1.031   0.295  0.3156 -1.0152  1.0690
 7867SOL    HW226234   7.705   1.043   0.244  0.7895 -1.3566 -0.3587
 7868SOL     OW26235   7.728   5.650   3.601  0.3235  0.0227  0.3426
 7868SOL    HW126236   7.796   5.600   3.555  0.3115 -0.9883  1.3952
 7868SOL    HW226237   7.688   5.703   3.532  3.4213  2.1409 -0.0293
 7869SOL     OW26238   0.892   1.754   4.356  0.0266 -0.5714 -0.5711
 7869SOL    HW126239   0.984   1.728   4.347  0.1073 -0.2353 -0.7503
 7869SOL    HW226240   0.856   1.695   4.421  0.7118  0.1507  0.4842
 7870SOL     OW26241   7.313   9.578   9.586  0.2667  0.4059  0.1610
 7870SOL    HW126242   7.318   9.643   9.516 -0.8952 -0.2881 -0.6002
 7870SOL    HW226243   7.312   9.630   9.666  2.2550  1.1928 -0.2770
 7871SOL     OW26244   5.361   0.031   3.669 -0.0435  0.3344 -0.3071
 7871SOL    HW126245   5.279   0.030   3.719  0.1218 -1.1632 -0.0104
 7871SOL    HW226246   5.425   0.069   3.728  0.3307 -2.1155  1.0232
 7872SOL     OW26247   4.640   9.765   6.264 -0.1880  0.1578 -0.3181
 7872SOL    HW126248   4.552   9.791   6.239 -0.4804 -0.8281 -0.3581
 7872SOL    HW226249   4.629   9.679   6.305  0.8027 -0.2071 -0.7791
 7873SOL     OW26250   1.276   4.577   8.897 -0.5039 -0.6820 -0.4347
 7873SOL    HW126251   1.371   4.571   8.908 -0.5858 -0.2387  0.7571
 7873SOL    HW226252   1.256   4.668   8.918 -1.2475 -0.9227 -0.0665
 7874SOL     OW26253   6.015   1.538   0.666 -0.0063  0.5950  0.2222
 7874SOL    HW126254   5.938   1.578   0.626 -0.8392  0.5498  1.7043
 7874SOL    HW226255   6.082   1.606   0.661 -0.4672  1.0357 -0.0839
 7875SOL     OW26256   3.703   2.443   6.593 -0.4899 -0.0640 -0.1283
 7875SOL    HW126257   3.714   2.530   6.630 -2.1587 -0.4184  1.2865
 7875SOL    HW226258   3.732   2.452   6.502 -0.4925  1.9171  0.0322
 7876SOL     OW26259   9.817   7.795   9.183 -0.1690 -0.3067 -0.0405
 7876SOL    HW126260   9.832   7.829   9.095  2.0930  0.8455  0.7008
 7876SOL    HW226261   9.904   7.769   9.214 -0.8051 -0.1135  2.0592
 7877SOL     OW26262   3.331   8.266   0.867  0.3375 -0.0267  0.1306
 7877SOL    HW126263   3.329   8.256   0.962 -2.2842  0.0300  0.1699
 7877SOL    HW226264   3.374   8.350   0.852  1.4348 -0.3773  1.2119
 7878SOL     OW26265   6.615   1.501   9.609  0.0679  0.3148  0.4319
 7878SOL    HW126266   6.657   1.580   9.576  0.0036 -0.5794 -2.0233
 7878SOL    HW226267   6.612   1.513   9.704  1.9203  2.3083  0.3129
 7879SOL     OW26268   8.324   7.366   0.924  0.1221  0.1037  0.3921
 7879SOL    HW126269   8.414   7.390   0.947  0.8883  0.5321 -2.5646
 7879SOL    HW226270   8.328   7.272   0.907 -0.3567 -0.1495  1.5712
 7880SOL     OW26271   5.213   0.506   5.090 -0.1104  0.6332 -0.1798
 7880SOL    HW126272   5.154   0.506   5.015  0.6416  0.6975 -0.7849
 7880SOL    HW226273   5.183   0.432   5.144 -0.7475  0.6804 -0.4608
 7881SOL     OW26274   0.879   1.403   8.983  0.4223 -0.1970 -0.4771
 7881SOL    HW126275   0.932   1.364   8.914  2.9646  1.0085  0.6653
 7881SOL    HW226276   0.942   1.442   9.043 -1.7351  0.1007  1.7661
 7882SOL     OW26277   9.456   8.911   1.034 -0.1033  0.0076 -0.0969
 7882SOL    HW126278   9.388   8.868   1.087 -0.7372  1.6914  0.5012
 7882SOL    HW226279   9.491   8.979   1.091  0.0528  1.0564 -1.4068
 7883SOL     OW26280   8.012   7.979   0.696  0.2356  0.4793  0.3011
 7883SOL    HW126281   7.922   7.973   0.730 -0.0574 -1.5353 -0.6544
 7883SOL    HW226282   8.064   7.925   0.756  1.2146  2.9139  1.8081
 7884SOL     OW26283   0.011   2.257   2.409 -0.5282 -0.9511  0.0738
 7884SOL    HW126284   0.060   2.197   2.354 -2.8338 -1.4919 -1.5780
 7884SOL    HW226285  -0.075   2.264   2.366 -0.7516  2.6867  0.7414
 7885SOL     OW26286   2.032   4.718   4.813 -0.3768  0.4399  0.8214
 7885SOL    HW126287   2.055   4.795   4.762  1.1501  0.0510  0.8528
 7885SOL    HW226288   1.954   4.683   4.770  0.7728  0.2007 -1.2097
 7886SOL     OW26289   9.555   6.340   3.607  0.4194  0.1271  0.3900
 7886SOL    HW126290   9.544   6.384   3.692 -0.7765 -2.3060  1.6071
 7886SOL    HW226291   9.592   6.407   3.550 -0.3351  2.3739  2.3625
 7887SOL     OW26292   0.576   0.439   3.719  0.1603 -0.8024 -0.3737
 7887SOL    HW126293   0.483   0.457   3.725  0.7563  2.4410  2.8932
 7887SOL    HW226294   0.604   0.482   3.638 -1.0594 -1.7368 -1.3370
 7888SOL     OW26295   7.438   9.089   9.262 -0.5046  0.4847 -0.3699
 7888SOL    HW126296   7.399   9.037   9.333 -0.1935  1.5696  0.6328
 7888SOL    HW226297   7.364   9.108   9.204 -1.4149  2.0250  1.2026
 7889SOL     OW26298   2.921   3.687   6.981 -0.2426  0.0190  0.5602
 7889SOL    HW126299   2.838   3.732   7.000  0.2939  0.9123  0.8620
 7889SOL    HW226300   2.948   3.722   6.896 -1.0950 -1.6766 -0.4569
 7890SOL     OW26301   7.527   1.781   4.276  0.3323  0.4190  0.4582
 7890SOL    HW126302   7.518   1.876   4.271  0.1689  0.5036  1.8982
 7890SOL    HW226303   7.489   1.757   4.361 -0.5178 -1.0506 -0.2859
 7891SOL     OW26304   8.106   6.023   7.079 -0.7180  0.3467 -0.1963
 7891SOL    HW126305   8.108   6.037   6.985 -0.5305  0.7536 -0.1315
 7891SOL    HW226306   8.136   6.105   7.117  1.7705 -0.6319  0.1493
 7892SOL     OW26307   7.729   0.536   1.168 -0.1855 -0.4464 -0.9365
 7892SOL    HW126308   7.807   0.500   1.126 -0.2827 -0.6091 -0.9784
 7892SOL    HW226309   7.690   0.593   1.102  0.3495  0.2860 -0.6312
 7893SOL     OW26310   3.621   8.655  10.328 -0.4113  0.4584  0.5657
 7893SOL    HW126311   3.575   8.702  10.258  0.3726 -1.4752 -1.3779
 7893SOL    HW226312   3.551   8.611  10.376 -1.0028  2.1678  1.3337
 7894SOL     OW26313   1.354   2.758   1.113  0.5286  0.1743 -0.6563
 7894SOL    HW126314   1.343   2.789   1.023  3.0848  1.7945 -0.5116
 7894SOL    HW226315   1.438   2.711   1.112  0.8980  0.7315  0.9646
 7895SOL     OW26316   0.754   1.984   6.581  0.3305  0.1214 -0.2634
 7895SOL    HW126317   0.683   2.048   6.592 -0.5353 -0.7130 -0.8117
 7895SOL    HW226318   0.794   1.978   6.668 -1.3936 -0.6619  0.5154
 7896SOL     OW26319   3.464   9.857   9.056  0.0224 -0.3714 -0.9527
 7896SOL    HW126320   3.546   9.901   9.032 -0.2445 -0.4002 -1.9842
 7896SOL    HW226321   3.452   9.790   8.988 -0.2336 -1.1872 -0.1196
 7897SOL     OW26322   2.613   8.630   8.386  0.1309  0.3488  0.0777
 7897SOL    HW126323   2.681   8.683   8.345  1.0163 -0.8488 -0.0366
 7897SOL    HW226324   2.658   8.583   8.456 -0.5262 -0.6551 -0.1657
 7898SOL     OW26325   8.418   9.274   0.813  0.1575 -0.0990  0.0950
 7898SOL    HW126326   8.331   9.294   0.779  0.4235  0.2619 -0.3912
 7898SOL    HW226327   8.433   9.182   0.790  0.3111  0.1234 -0.7332
 7899SOL     OW26328   2.874   4.175   4.613 -0.1589 -0.2711 -0.4440
 7899SOL    HW126329   2.908   4.236   4.548  2.0768  0.7391  1.5105
 7899SOL    HW226330   2.930   4.098   4.606 -0.0772 -0.2646  0.0828
 7900SOL     OW26331   2.860   9.756   2.499 -0.8185 -0.0387  0.0474
 7900SOL    HW126332   2.797   9.702   2.451 -0.9596 -0.9910  1.2654
 7900SOL    HW226333   2.896   9.698   2.567  1.8450  0.2631 -0.9551
 7901SOL     OW26334   6.173  10.227   8.275 -0.5017  0.2827 -0.0093
 7901SOL    HW126335   6.121  10.241   8.195 -1.2156  0.1708  0.4207
 7901SOL    HW226336   6.113  10.249   8.346  0.2951  0.9029  0.4880
 7902SOL     OW26337   9.764   4.784   1.556 -0.0763  0.1613  0.1000
 7902SOL    HW126338   9.705   4.784   1.481  2.2401  1.3474 -1.8781
 7902SOL    HW226339   9.787   4.692   1.568 -0.1938 -0.0151 -0.9312
 7903SOL     OW26340   6.832   6.825   4.472  0.5622 -0.9866 -0.3090
 7903SOL    HW126341   6.921   6.814   4.439  1.6616 -0.2727  2.1592
 7903SOL    HW226342   6.825   6.761   4.543  0.1294  0.7217  1.2863
 7904SOL     OW26343   7.967   0.295   1.682 -0.3541 -0.4084 -0.6790
 7904SOL    HW126344   8.041   0.331   1.730 -2.2570  0.9471  1.4539
 7904SOL    HW226345   7.945   0.363   1.617 -0.8846  0.0628 -0.0150
 7905SOL     OW26346   0.275   0.677   8.683 -0.1566 -0.2257  0.9035
 7905SOL    HW126347   0.220   0.674   8.605  1.1563 -0.2616 -0.0637
 7905SOL    HW226348   0.221   0.719   8.749 -0.4791  2.1354 -0.7317
 7906SOL     OW26349   2.391   4.995   5.937  0.0645  0.0618  0.3740
 7906SOL    HW126350   2.462   5.057   5.917  0.7822 -0.5935  0.8319
 7906SOL    HW226351   2.352   5.029   6.018 -0.1709  0.4418  0.1043
 7907SOL     OW26352   8.397   5.749   2.376  0.4268  0.1989  0.9850
 7907SOL    HW126353   8.486   5.714   2.368  0.6784  0.9326  0.3771
 7907SOL    HW226354   8.340   5.677   2.349  0.9265  0.2203 -0.1685
 7908SOL     OW26355   9.258   1.217   2.233 -0.4702 -0.1822 -0.8060
 7908SOL    HW126356   9.270   1.213   2.138 -0.9788 -1.3391 -0.8461
 7908SOL    HW226357   9.303   1.297   2.260 -1.1039  0.6612 -2.1391
 7909SOL     OW26358   4.920   0.261   9.821  0.2446 -0.2052  0.6903
 7909SOL    HW126359   4.990   0.321   9.848  0.3796 -1.5320  3.7734
 7909SOL    HW226360   4.840   0.304   9.850  0.1212 -0.3535  0.5679
 7910SOL     OW26361   2.631   9.792   3.474  0.1646  0.1791 -0.2639
 7910SOL    HW126362   2.643   9.751   3.388 -0.7318 -0.2845 -0.1817
 7910SOL    HW226363   2.719   9.816   3.502  0.4560  0.4310 -1.3569
 7911SOL     OW26364   0.916   2.293   2.884 -0.2117  0.3455  0.6868
 7911SOL    HW126365   0.906   2.286   2.789  1.1053  0.2379  0.5372
 7911SOL    HW226366   0.827   2.286   2.918 -0.8715  1.9115 -0.6246
 7912SOL     OW26367   8.540   3.847   0.221  0.0317 -0.0367  0.4060
 7912SOL    HW126368   8.519   3.934   0.187 -0.2476 -0.4772 -0.5718
 7912SOL    HW226369   8.621   3.822   0.176 -0.1203 -0.4588  0.3636
 7913SOL     OW26370   5.164   5.041   9.586  0.2656  0.2796  0.2356
 7913SOL    HW126371   5.153   5.071   9.495  1.1458  0.3859  0.1552
 7913SOL    HW226372   5.251   5.072   9.611  1.0890 -1.9071  0.2845
 7914SOL     OW26373   6.354   8.695  10.127  0.0673  0.4082 -0.0610
 7914SOL    HW126374   6.421   8.696  10.195  0.4748 -2.3386 -0.3114
 7914SOL    HW226375   6.387   8.754  10.060  1.9260 -0.3438  0.1350
 7915SOL     OW26376   8.268  10.329   8.511  0.0064  0.1185 -0.3077
 7915SOL    HW126377   8.260  10.299   8.602  0.1466 -0.3901 -0.4615
 7915SOL    HW226378   8.237  10.419   8.513  0.6905  0.3391  0.3758
 7916SOL     OW26379   7.427   1.894   3.413 -0.9036 -0.2905  0.2098
 7916SOL    HW126380   7.486   1.937   3.351  0.6557  0.2628  1.9587
 7916SOL    HW226381   7.349   1.949   3.415 -0.4495  0.3826 -0.3172
 7917SOL     OW26382   9.817   5.031   7.961 -0.0731  0.3609 -0.3701
 7917SOL    HW126383   9.854   5.004   8.045 -1.0406 -1.3977 -0.4568
 7917SOL    HW226384   9.889   5.021   7.899  0.5276  1.2585  0.1679
 7918SOL     OW26385   3.610   6.074   4.523 -0.1611 -0.6438  0.1959
 7918SOL    HW126386   3.583   6.162   4.548  1.5757  0.3477 -1.1669
 7918SOL    HW226387   3.564   6.057   4.441  1.1102 -0.0684 -0.6802
 7919SOL     OW26388   4.357   0.341  10.320 -0.2576 -0.3460 -0.4520
 7919SOL    HW126389   4.328   0.408  10.259 -0.0169  1.0309  0.8977
 7919SOL    HW226390   4.452   0.343  10.315 -0.2537 -0.8190 -0.6315
 7920SOL     OW26391  10.034   1.513   2.391  0.1551 -0.2767  0.1725
 7920SOL    HW126392   9.964   1.545   2.448  1.8627 -0.5138  2.5568
 7920SOL    HW226393  10.078   1.592   2.361 -1.5322 -0.0671 -2.0789
 7921SOL     OW26394   1.681   1.589   1.315 -0.0192  0.6714  0.1675
 7921SOL    HW126395   1.703   1.606   1.406 -2.0299  2.9380  0.3197
 7921SOL    HW226396   1.671   1.676   1.276 -0.2255 -0.2387 -1.9539
 7922SOL     OW26397   2.797   8.742   2.724 -0.4028 -0.1046 -0.3921
 7922SOL    HW126398   2.799   8.680   2.798 -1.2747  0.9258  0.5346
 7922SOL    HW226399   2.705   8.745   2.698 -0.5876  1.6190  0.3204
 7923SOL     OW26400   6.665   0.931   5.458  0.8625  0.0081  1.0070
 7923SOL    HW126401   6.695   0.880   5.383 -1.3699  0.7178 -0.4765
 7923SOL    HW226402   6.633   1.013   5.421  0.3476  0.6850  2.8199
 7924SOL     OW26403  10.255   4.757   6.727 -0.1583 -0.3490  0.3674
 7924SOL    HW126404  10.174   4.800   6.754 -0.1644 -1.2618  1.9492
 7924SOL    HW226405  10.310   4.827   6.693 -1.1747  0.4629  0.3658
 7925SOL     OW26406   2.206   5.429   5.846  0.0044 -0.1168  0.2931
 7925SOL    HW126407   2.233   5.459   5.933  2.4737  0.9068 -0.7309
 7925SOL    HW226408   2.186   5.510   5.798 -0.7491 -0.6340 -0.2921
 7926SOL     OW26409   7.260   7.892  10.104  0.1642  0.5524 -0.0142
 7926SOL    HW126410   7.219   7.832  10.167  0.9665 -0.1691 -0.1582
 7926SOL    HW226411   7.348   7.857  10.092 -0.9022 -1.3367 -4.0136
 7927SOL     OW26412   2.504   2.173   4.569  0.4328  0.1206 -0.4460
 7927SOL    HW126413   2.491   2.086   4.531  1.6927  0.4233 -1.6682
 7927SOL    HW226414   2.487   2.161   4.663 -2.6244 -0.6944 -0.9782
 7928SOL     OW26415   0.382   5.362   5.073 -0.4513 -0.2670  0.0666
 7928SOL    HW126416   0.471   5.387   5.099 -0.3669  1.1116 -1.4265
 7928SOL    HW226417   0.380   5.267   5.085  0.8815 -0.1967  1.0960
 7929SOL     OW26418   8.490   2.304   1.126 -0.4427 -0.2754  0.3030
 7929SOL    HW126419   8.509   2.395   1.102 -1.6088  0.0310  0.5063
 7929SOL    HW226420   8.417   2.310   1.188  1.5304 -1.1124  2.9061
 7930SOL     OW26421   3.924   9.602   1.528 -0.2469  0.3775 -0.1651
 7930SOL    HW126422   4.014   9.573   1.509  0.3206  2.1794 -0.4212
 7930SOL    HW226423   3.869   9.539   1.482  0.9009 -0.4639 -0.4500
 7931SOL     OW26424   6.369   0.502   4.063 -0.5450  1.2518  0.3263
 7931SOL    HW126425   6.377   0.451   4.143  0.0017  2.5718  1.1364
 7931SOL    HW226426   6.452   0.489   4.017 -1.3430 -0.5538 -0.7085
 7932SOL     OW26427   7.060   0.852   7.079 -0.0894 -0.8613  0.2613
 7932SOL    HW126428   7.016   0.893   7.005 -1.2334  0.1908  1.4848
 7932SOL    HW226429   7.114   0.922   7.116  1.6530 -1.7665 -0.3911
 7933SOL     OW26430   4.976   4.129   6.123 -0.1953 -0.3018  0.3529
 7933SOL    HW126431   4.985   4.119   6.217 -1.1226 -0.8777  0.3897
 7933SOL    HW226432   4.962   4.223   6.110  0.3629 -0.1599  0.7386
 7934SOL     OW26433   5.973   1.723   5.227  0.0643 -0.1702  0.5143
 7934SOL    HW126434   5.997   1.806   5.184 -0.6852 -0.2535 -0.0935
 7934SOL    HW226435   5.921   1.750   5.303 -1.1582 -0.0839 -0.3129
 7935SOL     OW26436   9.884   1.274   4.626  0.0817  0.4538 -0.2135
 7935SOL    HW126437   9.798   1.254   4.591  0.5328 -0.0135 -1.0881
 7935SOL    HW226438   9.932   1.310   4.552  1.0808 -0.6002 -0.1089
 7936SOL     OW26439   5.925   6.314   6.222 -1.0263  0.2735 -0.3598
 7936SOL    HW126440   5.837   6.292   6.253 -1.2428  0.7199 -0.6522
 7936SOL    HW226441   5.966   6.358   6.296 -0.7993 -0.5434  0.0208
 7937SOL     OW26442   0.074   4.856   0.169 -0.3354  0.0599 -0.2794
 7937SOL    HW126443   0.165   4.831   0.185 -0.4882 -0.5474 -0.3317
 7937SOL    HW226444   0.075   4.951   0.173  0.7141  0.1932 -2.4302
 7938SOL     OW26445   4.144   9.502   1.418 -0.7537  0.0374 -0.2467
 7938SOL    HW126446   4.158   9.408   1.429 -0.6403 -0.1427 -1.7177
 7938SOL    HW226447   4.219   9.532   1.366 -0.0916  1.2071  1.3020
 7939SOL     OW26448   2.743   0.342   1.806  0.0665 -0.0278  0.0788
 7939SOL    HW126449   2.769   0.312   1.719 -1.4032  0.6898 -0.6366
 7939SOL    HW226450   2.757   0.266   1.863  1.5581 -0.3408 -0.6561
 7940SOL     OW26451   4.756   6.860   3.467  0.1514  0.3139  0.2259
 7940SOL    HW126452   4.849   6.881   3.460 -0.0382  1.6368  1.3802
 7940SOL    HW226453   4.748   6.808   3.547 -0.4810  2.9215  1.9739
 7941SOL     OW26454   0.939   3.547   8.493  0.1084  0.3385  0.3732
 7941SOL    HW126455   0.932   3.547   8.398 -1.3062  0.5491  0.4536
 7941SOL    HW226456   0.947   3.640   8.516 -0.5341  0.3655  0.5063
 7942SOL     OW26457   3.320   2.926   9.836 -0.1960 -0.3777 -0.6825
 7942SOL    HW126458   3.253   2.868   9.871 -0.7557 -0.2027 -1.4210
 7942SOL    HW226459   3.285   2.954   9.751  0.9285 -0.4735 -1.1929
 7943SOL     OW26460   1.071   1.441   5.296 -0.2388 -0.1699 -0.1933
 7943SOL    HW126461   1.125   1.471   5.222 -0.5644  0.2097 -0.2779
 7943SOL    HW226462   1.067   1.516   5.355 -0.4011 -0.3088 -0.0280
 7944SOL     OW26463   9.930   1.267   5.429 -0.2471 -0.2683 -0.2125
 7944SOL    HW126464   9.979   1.188   5.451 -0.2291 -0.8852 -2.2062
 7944SOL    HW226465   9.892   1.297   5.512  1.3274 -1.2547  0.9156
 7945SOL     OW26466   7.305   9.719   6.289  0.5059 -0.4519  0.1386
 7945SOL    HW126467   7.265   9.790   6.339 -2.8348 -1.3237 -1.0134
 7945SOL    HW226468   7.337   9.658   6.355  1.0694  0.8921  1.1381
 7946SOL     OW26469   7.940   3.726   1.081  0.0767  0.0386 -0.1235
 7946SOL    HW126470   7.942   3.760   0.992  0.0957  1.5083  0.4027
 7946SOL    HW226471   7.878   3.783   1.127  0.1238 -0.6446  0.8157
 7947SOL     OW26472   7.522   5.471   2.680 -0.0903  0.0027  0.2182
 7947SOL    HW126473   7.483   5.431   2.758 -3.2012  1.7859 -0.2747
 7947SOL    HW226474   7.487   5.420   2.607 -2.4610  2.1731 -0.2831
 7948SOL     OW26475   3.023   7.691   9.838 -0.2910  0.0720 -0.2139
 7948SOL    HW126476   2.943   7.646   9.810  0.3695  0.1388 -2.3886
 7948SOL    HW226477   3.027   7.769   9.782  1.6002 -0.2436 -0.5693
 7949SOL     OW26478   2.457   0.221   6.093  0.7685  0.1210 -0.1092
 7949SOL    HW126479   2.540   0.268   6.106  0.4269  0.2635  1.7716
 7949SOL    HW226480   2.422   0.258   6.012  1.3515  1.8824  0.3924
 7950SOL     OW26481   2.527   9.093   2.944  0.4185 -0.3038 -0.4633
 7950SOL    HW126482   2.588   9.024   2.970 -1.1777 -1.0186  1.7117
 7950SOL    HW226483   2.582   9.163   2.910  2.2908 -1.6022 -0.2510
 7951SOL     OW26484   4.258   4.360   5.188 -0.1749  0.0697 -0.5953
 7951SOL    HW126485   4.267   4.383   5.281  0.2824  0.6975 -0.7882
 7951SOL    HW226486   4.176   4.401   5.161 -1.5369 -2.0122  0.0733
 7952SOL     OW26487   4.578   0.708   3.550  0.0023  0.1979  0.5911
 7952SOL    HW126488   4.662   0.688   3.510  0.1273 -0.3899  1.1341
 7952SOL    HW226489   4.531   0.760   3.484  0.9517  0.9103  0.4540
 7953SOL     OW26490   0.622   9.701   9.765 -0.6860  0.1627  0.1161
 7953SOL    HW126491   0.585   9.612   9.759 -0.6433  0.1774 -0.4047
 7953SOL    HW226492   0.683   9.696   9.839 -3.1786  0.6688  2.3569
 7954SOL     OW26493   0.192   5.103   6.528 -0.2634 -0.1386 -0.4210
 7954SOL    HW126494   0.252   5.029   6.518  0.4233  0.5176 -1.3496
 7954SOL    HW226495   0.136   5.099   6.451 -0.0181  0.4770 -0.6412
 7955SOL     OW26496   6.492   1.958   6.439  0.4287  0.0801  0.0569
 7955SOL    HW126497   6.416   1.994   6.394  0.0599 -1.2765 -0.4315
 7955SOL    HW226498   6.473   1.972   6.532 -1.3855 -1.9610  0.0887
 7956SOL     OW26499   3.541   8.811   4.460  0.3713  0.2591  0.1229
 7956SOL    HW126500   3.571   8.902   4.457 -1.3928  0.8773 -2.2867
 7956SOL    HW226501   3.618   8.761   4.488  1.4216  2.4456  1.4074
 7957SOL     OW26502   9.771   1.861   7.711  0.1811  0.1421  0.6469
 7957SOL    HW126503   9.746   1.817   7.630  0.9459 -0.5949  0.8040
 7957SOL    HW226504   9.716   1.939   7.713 -0.7849 -0.5037  0.0802
 7958SOL     OW26505   6.188   2.312   5.944 -0.0702 -0.2115  0.1392
 7958SOL    HW126506   6.164   2.332   5.854  0.2483 -0.2607  0.0415
 7958SOL    HW226507   6.282   2.295   5.940 -0.2477 -1.2678  0.3019
 7959SOL     OW26508   2.230   0.915   6.056 -0.0300 -0.3992  0.0940
 7959SOL    HW126509   2.182   0.912   5.973  2.1879  1.6120 -1.4058
 7959SOL    HW226510   2.169   0.955   6.118 -0.6148  1.4557 -1.5580
 7960SOL     OW26511   1.573   3.656   9.250  0.0605  0.0720  0.0450
 7960SOL    HW126512   1.660   3.627   9.223  0.2658  1.9063 -1.4312
 7960SOL    HW226513   1.580   3.667   9.345  1.5097  0.3813 -0.0748
 7961SOL     OW26514   9.760   1.462   5.198 -0.5897  0.7413 -0.0136
 7961SOL    HW126515   9.822   1.525   5.163 -0.8859  0.5804 -0.8613
 7961SOL    HW226516   9.774   1.463   5.292  1.5281 -0.1721 -0.2739
 7962SOL     OW26517   8.313   6.861   0.615 -0.1489  0.1790 -0.1084
 7962SOL    HW126518   8.352   6.838   0.699 -1.6651  1.3245  0.9754
 7962SOL    HW226519   8.378   6.836   0.550  1.5937  0.3688  1.4853
 7963SOL     OW26520   9.654   6.758   5.564 -0.2252 -0.1627 -0.4759
 7963SOL    HW126521   9.744   6.764   5.596 -0.7748  0.6599  1.0092
 7963SOL    HW226522   9.609   6.705   5.629 -1.6641  2.6224  0.9824
 7964SOL     OW26523   7.272   1.390  10.260  0.0510 -0.4102 -0.1514
 7964SOL    HW126524   7.262   1.417  10.351  0.7916 -0.5746 -0.0118
 7964SOL    HW226525   7.186   1.406  10.220  0.1514  1.0740  0.1885
 7965SOL     OW26526   9.445   4.164   9.636 -0.4174  0.2128  0.4640
 7965SOL    HW126527   9.453   4.139   9.544 -0.3660  2.1603 -0.1079
 7965SOL    HW226528   9.365   4.120   9.666 -1.7044  1.3056 -1.1732
 7966SOL     OW26529   5.139   6.994   2.780  0.1820 -0.0424 -0.3940
 7966SOL    HW126530   5.100   6.955   2.859  3.9854 -2.0149  0.7546
 7966SOL    HW226531   5.102   6.943   2.708 -1.9132  0.5276  0.1899
 7967SOL     OW26532   4.520   5.709   8.059  0.1647  0.2122 -0.1457
 7967SOL    HW126533   4.605   5.684   8.095  1.2023  0.5948 -2.1480
 7967SOL    HW226534   4.468   5.629   8.061  0.9315 -0.2837  0.1839
 7968SOL     OW26535   1.595   4.792   0.524 -0.3125 -0.0351  0.1824
 7968SOL    HW126536   1.579   4.715   0.579  1.4300 -0.5289  0.0836
 7968SOL    HW226537   1.606   4.864   0.586 -0.0375 -0.2629  0.4073
 7969SOL     OW26538   7.347   0.556   3.748  0.3134 -0.2272  0.2501
 7969SOL    HW126539   7.435   0.592   3.754  0.9878 -1.5266 -1.0548
 7969SOL    HW226540   7.298   0.600   3.816  1.5371  1.7520 -0.0712
 7970SOL     OW26541   5.676   5.892   5.469 -0.5176  0.3300 -0.0182
 7970SOL    HW126542   5.658   5.812   5.419 -0.9777  0.6873 -0.4349
 7970SOL    HW226543   5.591   5.935   5.476 -0.3035  0.6897  0.3704
 7971SOL     OW26544   4.881   4.390   6.123  0.5505 -0.3100 -0.2657
 7971SOL    HW126545   4.791   4.356   6.121  0.5337 -0.2429 -0.8833
 7971SOL    HW226546   4.878   4.470   6.070  1.1046 -0.6419 -0.8121
 7972SOL     OW26547   7.190   4.178   4.627  0.2981 -0.2477  0.1498
 7972SOL    HW126548   7.249   4.207   4.557  1.1277  1.5179  1.5118
 7972SOL    HW226549   7.134   4.254   4.644 -2.1680 -1.7227 -0.7909
 7973SOL     OW26550   1.528   8.161   3.801 -0.4808  0.0045 -0.0803
 7973SOL    HW126551   1.509   8.252   3.822  0.4963 -0.0201  1.0003
 7973SOL    HW226552   1.617   8.147   3.833 -1.1427 -1.7432  1.1784
 7974SOL     OW26553   3.028   8.734   2.586  0.1745 -0.5775 -0.1408
 7974SOL    HW126554   2.947   8.737   2.638 -0.7981  0.2119 -1.6198
 7974SOL    HW226555   3.036   8.823   2.551  0.3072 -1.2839 -2.0149
 7975SOL     OW26556   7.406   8.679   0.445  0.1232 -0.1038 -0.0678
 7975SOL    HW126557   7.498   8.663   0.466  0.7451  1.3789 -1.3987
 7975SOL    HW226558   7.379   8.603   0.394  0.8850 -0.1710 -0.3789
 7976SOL     OW26559   6.325   2.900   6.382 -0.0616 -0.0060 -0.1819
 7976SOL    HW126560   6.266   2.886   6.456 -0.4119  0.3762 -0.3837
 7976SOL    HW226561   6.363   2.986   6.399 -0.7598  0.4522 -0.8498
 7977SOL     OW26562   2.465   7.979   2.551  0.0323  0.2509 -0.2964
 7977SOL    HW126563   2.512   8.019   2.624 -1.5150  0.1107  0.8368
 7977SOL    HW226564   2.518   7.903   2.527  2.2364  2.0447 -1.5096
 7978SOL     OW26565   4.771   2.132   1.318 -0.5841  0.6943 -0.0880
 7978SOL    HW126566   4.749   2.042   1.343 -0.7835  0.5235 -0.8567
 7978SOL    HW226567   4.858   2.125   1.279 -0.4341  0.8999  0.2041
 7979SOL     OW26568   7.394   1.830   0.648 -0.0355 -0.1466  0.6395
 7979SOL    HW126569   7.430   1.893   0.711 -0.7761  0.7181  0.2175
 7979SOL    HW226570   7.433   1.747   0.674  1.2220  0.5259  1.0164
 7980SOL     OW26571   8.183   5.659   2.227 -0.3003 -0.8546  0.1343
 7980SOL    HW126572   8.116   5.660   2.296 -1.7187 -1.4154 -1.1808
 7980SOL    HW226573   8.133   5.653   2.145  1.3889 -2.9787 -0.8353
 7981SOL     OW26574   4.878   2.496   4.468  0.0225  0.1452  0.0012
 7981SOL    HW126575   4.789   2.481   4.502 -0.0332 -1.4964 -0.7974
 7981SOL    HW226576   4.912   2.567   4.523 -1.4027  0.1020  1.0055
 7982SOL     OW26577   0.390   5.514  10.194  0.1519 -0.0930  0.0104
 7982SOL    HW126578   0.360   5.425  10.215 -0.9628 -0.1690 -1.6699
 7982SOL    HW226579   0.310   5.559  10.165  0.7659  1.3693  0.5236
 7983SOL     OW26580   4.521   7.494   0.759 -0.3180 -0.1609  0.2152
 7983SOL    HW126581   4.504   7.492   0.853 -1.1016  1.6300  0.1664
 7983SOL    HW226582   4.599   7.549   0.750  0.2479 -1.0025 -0.1446
 7984SOL     OW26583   9.903   9.833   5.885 -0.0025 -0.1045 -0.5837
 7984SOL    HW126584   9.906   9.913   5.939  0.8551 -0.1500 -0.5549
 7984SOL    HW226585   9.848   9.773   5.935  0.2054  0.1061 -0.0929
 7985SOL     OW26586   6.020   8.246   2.259 -0.4687 -0.0394  0.7634
 7985SOL    HW126587   6.050   8.161   2.291  0.0807 -0.0966  0.1085
 7985SOL    HW226588   6.022   8.239   2.164 -0.2177  0.7790  0.6998
 7986SOL     OW26589  10.301   1.409   2.451  0.1528  0.1547 -0.1247
 7986SOL    HW126590  10.215   1.449   2.460 -0.4180 -1.3886  2.2104
 7986SOL    HW226591  10.362   1.473   2.487 -0.5583 -0.3444  2.1073
 7987SOL     OW26592   6.478   7.008   8.673  0.4500 -0.8962  0.6760
 7987SOL    HW126593   6.522   7.021   8.588  1.1104  1.9943  1.3253
 7987SOL    HW226594   6.550   7.009   8.737 -0.2693  1.4648  1.5577
 7988SOL     OW26595   5.331   0.773   1.055 -0.9247  0.4687  0.4767
 7988SOL    HW126596   5.249   0.724   1.046 -0.3208 -0.3576 -0.5983
 7988SOL    HW226597   5.322   0.846   0.994  0.4474 -1.4705 -2.2628
 7989SOL     OW26598   2.064   1.220   1.331  0.2745  0.3903 -0.2742
 7989SOL    HW126599   2.000   1.281   1.367  0.5857  0.8186 -0.4332
 7989SOL    HW226600   2.066   1.241   1.237 -0.2397 -0.4423 -0.4773
 7990SOL     OW26601   0.827   8.290   8.106  0.1590  0.2725 -0.6496
 7990SOL    HW126602   0.767   8.350   8.149 -0.9726  0.5557 -2.4946
 7990SOL    HW226603   0.791   8.203   8.124  0.8543  0.2229  0.6202
 7991SOL     OW26604   8.145   9.764   9.821  0.0348 -0.3423 -0.2652
 7991SOL    HW126605   8.158   9.683   9.772 -2.3548 -1.1390  0.2860
 7991SOL    HW226606   8.228   9.778   9.867  0.4415 -2.6141 -0.1911
 7992SOL     OW26607   6.268   2.161   8.228 -0.0915 -0.4280  0.1365
 7992SOL    HW126608   6.199   2.099   8.251 -0.4222 -0.9193 -1.9408
 7992SOL    HW226609   6.335   2.107   8.185  0.4436  0.3948 -0.0810
 7993SOL     OW26610   5.878   4.935   1.144 -0.5333 -0.1100  0.4085
 7993SOL    HW126611   5.842   4.851   1.115  0.2145 -0.3169  0.0618
 7993SOL    HW226612   5.816   4.966   1.210 -0.8046 -0.9497  0.5578
 7994SOL     OW26613   0.985   2.098   3.099 -0.2260 -0.4041 -0.5690
 7994SOL    HW126614   1.072   2.124   3.128 -0.7637 -0.3265  1.0552
 7994SOL    HW226615   0.966   2.157   3.026  1.3628 -0.9228 -1.4591
 7995SOL     OW26616   6.071   8.837   6.902  0.3812  0.2091  0.1977
 7995SOL    HW126617   6.122   8.765   6.939 -1.0282 -1.4220 -0.8851
 7995SOL    HW226618   6.045   8.889   6.978 -0.4923 -1.7374  1.3153
 7996SOL     OW26619  10.323   9.947   2.616 -0.2216 -0.3983  0.1611
 7996SOL    HW126620  10.391   9.897   2.573 -0.3430  0.6343 -1.3014
 7996SOL    HW226621  10.368  10.025   2.650 -0.4874 -0.1990  0.0632
 7997SOL     OW26622   7.321   0.421   4.637  0.2831 -0.3015 -0.1925
 7997SOL    HW126623   7.334   0.393   4.547 -0.5106 -0.5627 -0.2353
 7997SOL    HW226624   7.235   0.386   4.661 -1.0084  2.4258 -0.3945
 7998SOL     OW26625   7.029   1.799   7.698  0.6362 -0.0479 -0.3053
 7998SOL    HW126626   7.035   1.703   7.700  0.6684 -0.0449 -0.2622
 7998SOL    HW226627   7.101   1.829   7.753  1.4274  0.0378 -1.3552
 7999SOL     OW26628   6.129   4.903   5.826 -0.5658 -0.7806  0.3785
 7999SOL    HW126629   6.128   4.883   5.920 -0.1979  0.6430  0.7004
 7999SOL    HW226630   6.043   4.874   5.795 -0.4761 -1.7904  1.0297
 8000SOL     OW26631   2.751   7.818   2.155  0.6655 -0.3783 -0.0344
 8000SOL    HW126632   2.787   7.756   2.092  3.0098  0.0488  0.7794
 8000SOL    HW226633   2.813   7.816   2.229 -0.4491  1.2063  1.0162
 8001SOL     OW26634   6.589   3.709   2.232  0.3966  0.3244  0.3826
 8001SOL    HW126635   6.662   3.652   2.209  0.4309  0.3110  0.5220
 8001SOL    HW226636   6.530   3.703   2.157  0.5006  0.2731  0.3034
 8002SOL     OW26637   1.316   5.315   6.916  0.1178  0.5040 -0.1036
 8002SOL    HW126638   1.388   5.263   6.951 -1.4027 -2.1716 -0.7285
 8002SOL    HW226639   1.325   5.306   6.821 -1.3683 -0.3819 -0.1808
 8003SOL     OW26640   4.276   4.016   7.739  0.4233 -0.0294  0.4731
 8003SOL    HW126641   4.334   3.991   7.667 -0.1543  0.7709 -0.3005
 8003SOL    HW226642   4.305   3.964   7.813 -0.3845 -2.5710 -0.8746
 8004SOL     OW26643   7.121   7.012   5.844 -0.1582  1.0807 -0.0230
 8004SOL    HW126644   7.099   6.981   5.932 -0.9807  0.8658 -0.2899
 8004SOL    HW226645   7.053   6.974   5.788  1.3492 -0.2748 -1.0365
 8005SOL     OW26646   7.022   3.039   0.580 -0.0746  0.4577 -0.5432
 8005SOL    HW126647   7.109   3.057   0.614  0.4857 -1.5351 -0.8236
 8005SOL    HW226648   6.963   3.082   0.642  1.0498  0.9270  0.2390
 8006SOL     OW26649   6.851   1.416   8.677 -0.0434 -0.4287  0.3569
 8006SOL    HW126650   6.848   1.430   8.772  3.0747  1.1726  0.3709
 8006SOL    HW226651   6.899   1.333   8.667 -1.9927 -1.5832  0.1194
 8007SOL     OW26652   1.447   9.182   1.862  0.2425 -0.0052 -0.3360
 8007SOL    HW126653   1.469   9.228   1.943 -0.4997 -0.4571  0.1397
 8007SOL    HW226654   1.435   9.251   1.797 -1.3376  0.5318  0.4735
 8008SOL     OW26655   6.421   4.699   5.216 -0.3765 -0.5822 -0.4316
 8008SOL    HW126656   6.420   4.608   5.246 -1.1159  0.0552  1.7216
 8008SOL    HW226657   6.343   4.738   5.256 -0.8143  0.7074 -2.3841
 8009SOL     OW26658  10.148   4.070   6.946  0.4266 -0.3070  0.1901
 8009SOL    HW126659  10.073   4.084   6.889 -0.5461 -0.7589  1.3116
 8009SOL    HW226660  10.118   4.004   7.009  0.9779  1.0927  2.0184
 8010SOL     OW26661   3.071   4.747   7.377 -0.0258  0.3168  0.3074
 8010SOL    HW126662   3.083   4.657   7.407  0.9400  0.5074  0.5454
 8010SOL    HW226663   3.160   4.776   7.354 -0.5133  0.7195 -1.1850
 8011SOL     OW26664   6.873   5.308   7.473 -0.2247  0.3931 -0.2368
 8011SOL    HW126665   6.897   5.359   7.395  0.8162 -0.1629 -0.3055
 8011SOL    HW226666   6.781   5.286   7.460  0.2254 -0.7007 -1.9064
 8012SOL     OW26667   4.108   2.394   3.635  0.9152 -0.4272 -0.5883
 8012SOL    HW126668   4.126   2.465   3.697 -1.2922 -1.0703  0.9167
 8012SOL    HW226669   4.094   2.438   3.552 -0.7497  1.0062  0.3826
 8013SOL     OW26670   2.387   6.644   6.748  0.0760 -0.0572  0.3133
 8013SOL    HW126671   2.342   6.587   6.809 -1.6788 -0.0287 -0.8968
 8013SOL    HW226672   2.480   6.622   6.759 -0.2549 -0.6834  2.2890
 8014SOL     OW26673   0.271   9.726   8.021  0.4634  0.1801 -1.0494
 8014SOL    HW126674   0.335   9.723   8.092 -0.7858 -0.4116  0.0823
 8014SOL    HW226675   0.212   9.797   8.045 -0.4266 -0.5375 -1.1034
 8015SOL     OW26676   1.859   5.569   3.155  0.0699  0.4333  0.1415
 8015SOL    HW126677   1.834   5.661   3.163  0.4305  0.9198 -2.9010
 8015SOL    HW226678   1.954   5.569   3.172 -0.1424  0.3659  1.4152
 8016SOL     OW26679  10.258   7.172   2.583  0.3612 -0.2716  0.0556
 8016SOL    HW126680  10.288   7.261   2.604 -1.4548  0.2561  0.6027
 8016SOL    HW226681  10.202   7.183   2.506 -1.1107 -0.6794  1.0301
 8017SOL     OW26682   3.330   4.303   0.931  0.6836  0.4690 -0.8913
 8017SOL    HW126683   3.328   4.260   1.017 -2.2483  2.2851  0.1049
 8017SOL    HW226684   3.294   4.238   0.871  0.9668 -0.1802 -0.3730
 8018SOL     OW26685   1.037   4.541   6.019 -0.3067 -0.1970 -0.0635
 8018SOL    HW126686   1.131   4.556   6.007 -0.4543  0.3700 -0.5582
 8018SOL    HW226687   1.026   4.447   6.003  0.3804 -0.5483  1.3804
 8019SOL     OW26688   1.124   0.245   1.017 -0.5300 -0.3304  0.0146
 8019SOL    HW126689   1.147   0.185   0.947  1.4975 -1.0527  1.1947
 8019SOL    HW226690   1.057   0.199   1.068 -0.7162 -0.5529 -0.4281
 8020SOL     OW26691   2.143   5.051   0.346 -0.3073  0.3686 -0.0890
 8020SOL    HW126692   2.236   5.075   0.350 -0.1482 -0.3672  0.8806
 8020SOL    HW226693   2.097   5.135   0.350  0.2141  0.6616  4.2783
 8021SOL     OW26694   8.725   7.993   5.367 -0.0741 -0.5993 -0.3471
 8021SOL    HW126695   8.811   7.958   5.344  0.2522 -2.5810  3.1384
 8021SOL    HW226696   8.743   8.055   5.437 -1.3647  0.9394 -1.3051
 8022SOL     OW26697   0.383   6.454   0.516  0.0554 -0.3432  0.4084
 8022SOL    HW126698   0.439   6.418   0.584  1.9258  0.3216 -0.7037
 8022SOL    HW226699   0.331   6.521   0.561 -0.6271 -1.6536  1.6620
 8023SOL     OW26700   1.551   0.192   6.050  0.4058 -0.0993 -0.4790
 8023SOL    HW126701   1.463   0.229   6.048  0.0085 -0.9394  0.6303
 8023SOL    HW226702   1.602   0.250   5.993 -0.3249  1.8042  0.6835
 8024SOL     OW26703   5.914   2.648   8.710 -0.3120 -0.0615 -0.1261
 8024SOL    HW126704   5.890   2.587   8.779 -1.0528  2.6585  2.2414
 8024SOL    HW226705   6.003   2.624   8.685 -0.5713 -2.0295  0.6891
 8025SOL     OW26706   4.552   7.646   8.354  0.1211 -0.3444 -0.3122
 8025SOL    HW126707   4.554   7.694   8.271 -0.8501 -0.2432 -0.2862
 8025SOL    HW226708   4.643   7.620   8.369  0.7139  1.5507 -0.2986
 8026SOL     OW26709   1.034   7.286   2.068 -0.5642 -0.4152 -0.0728
 8026SOL    HW126710   0.970   7.243   2.125 -2.1230  2.7228  0.7663
 8026SOL    HW226711   1.081   7.214   2.027 -1.7845 -2.8627  2.4765
 8027SOL     OW26712   4.970   0.764   4.452  0.6889 -0.4346  0.4559
 8027SOL    HW126713   4.955   0.734   4.363 -1.6297  0.5342  0.4498
 8027SOL    HW226714   4.962   0.860   4.447  2.2792 -0.2017  1.4328
 8028SOL     OW26715   7.508   8.775  10.088  0.5313  0.0596 -0.1184
 8028SOL    HW126716   7.494   8.716  10.014  2.2571  1.2762 -1.5158
 8028SOL    HW226717   7.562   8.725  10.149  0.8089 -0.2787 -0.6352
 8029SOL     OW26718   4.390   7.868   7.498  1.2986 -0.1211  0.8559
 8029SOL    HW126719   4.333   7.860   7.421  0.4442 -1.2111  1.5762
 8029SOL    HW226720   4.434   7.783   7.504 -0.4522 -0.9736  2.9155
 8030SOL     OW26721   5.208   1.714   3.360  0.6209  0.2621  0.3667
 8030SOL    HW126722   5.145   1.654   3.321  0.8971  2.0247 -3.2547
 8030SOL    HW226723   5.154   1.778   3.406  0.0421 -0.3675  0.5837
 8031SOL     OW26724   5.518   8.432   0.676  0.2917  0.2878  0.1810
 8031SOL    HW126725   5.527   8.498   0.608 -1.0403  1.9175  1.4893
 8031SOL    HW226726   5.550   8.474   0.756 -0.3783 -0.7076  1.0137
 8032SOL     OW26727   4.463   3.840   2.629 -0.3631 -0.0600  0.0437
 8032SOL    HW126728   4.530   3.784   2.590  1.5091  1.4319  0.9468
 8032SOL    HW226729   4.401   3.779   2.668  0.4366 -1.5132 -0.8781
 8033SOL     OW26730   0.026   3.909   5.170 -0.6594 -0.1337  0.0236
 8033SOL    HW126731   0.055   3.997   5.147 -1.2843 -0.2457 -1.2898
 8033SOL    HW226732   0.045   3.901   5.263  2.1204  0.3257 -0.4029
 8034SOL     OW26733   9.377   3.110   0.557  0.6588  0.2437 -0.3444
 8034SOL    HW126734   9.359   3.152   0.473 -0.2233  3.5371  1.3286
 8034SOL    HW226735   9.302   3.053   0.572 -0.8108  2.0738 -0.4207
 8035SOL     OW26736   3.611   8.323   0.170  0.5420 -0.0170 -0.4272
 8035SOL    HW126737   3.591   8.416   0.175  1.2175  0.2348 -1.7386
 8035SOL    HW226738   3.588   8.298   0.080 -0.3727 -1.3155  0.1299
 8036SOL     OW26739   1.682   8.986   9.348  0.0817  0.4274 -0.2185
 8036SOL    HW126740   1.625   8.919   9.386  1.0480 -0.4137 -0.2189
 8036SOL    HW226741   1.706   8.952   9.262  2.4076 -0.3628  0.6693
 8037SOL     OW26742   2.070   1.734   8.223 -0.0259 -0.2044  0.5945
 8037SOL    HW126743   2.009   1.741   8.149  0.6445 -0.6584 -0.0202
 8037SOL    HW226744   2.126   1.660   8.200  0.2502 -0.2869  1.5224
 8038SOL     OW26745   1.837   0.152   4.759  0.2047  0.1844 -0.1650
 8038SOL    HW126746   1.782   0.148   4.680  1.7805 -4.0767 -1.3197
 8038SOL    HW226747   1.908   0.211   4.735  0.9058 -1.3796 -2.2588
 8039SOL     OW26748   6.401   1.067  10.284  0.0174 -0.2059  0.1575
 8039SOL    HW126749   6.443   0.981  10.293  0.1765 -0.3079 -1.3522
 8039SOL    HW226750   6.381   1.074  10.191 -1.3288  0.7862  0.4997
 8040SOL     OW26751   2.638   7.227   0.152 -0.3960 -0.2222 -0.6892
 8040SOL    HW126752   2.731   7.241   0.174 -0.3597  0.0984 -1.0257
 8040SOL    HW226753   2.594   7.304   0.189 -0.2904  0.4863 -1.9849
 8041SOL     OW26754   1.849   6.785   7.466  0.3809 -0.1313  0.1765
 8041SOL    HW126755   1.897   6.762   7.546  2.9295  0.9527 -0.8985
 8041SOL    HW226756   1.854   6.881   7.462 -2.6167  0.1288  0.3229
 8042SOL     OW26757   2.682   2.393   5.060 -0.3274  0.1425  0.4190
 8042SOL    HW126758   2.744   2.336   5.106 -0.1496 -0.2174 -0.2465
 8042SOL    HW226759   2.615   2.414   5.126  0.0579 -0.1412  0.9100
 8043SOL     OW26760   4.982   4.171   9.077  0.2397  0.2592 -0.0177
 8043SOL    HW126761   4.930   4.109   9.027 -0.1459  1.5888 -1.3347
 8043SOL    HW226762   4.948   4.257   9.052  2.8014  1.1709 -0.6665
 8044SOL     OW26763   3.961   4.961   7.853  0.3594 -0.4991  0.1914
 8044SOL    HW126764   4.030   5.013   7.894 -1.7824  2.0417  0.8958
 8044SOL    HW226765   3.974   4.973   7.759  2.0602 -1.7969  0.2302
 8045SOL     OW26766   9.310   7.783  10.274 -0.4631  0.2115  0.7510
 8045SOL    HW126767   9.265   7.725  10.213  0.3913  1.1574 -0.8510
 8045SOL    HW226768   9.249   7.854  10.289  0.2317  1.2920 -1.1129
 8046SOL     OW26769   4.419   3.253   2.410  0.2881  0.2374  0.0272
 8046SOL    HW126770   4.452   3.167   2.382 -0.3668 -0.0948  0.2534
 8046SOL    HW226771   4.495   3.311   2.405  0.6682 -0.2917 -0.4065
 8047SOL     OW26772   8.710   4.411   7.850 -0.2085 -0.3284  0.1843
 8047SOL    HW126773   8.717   4.436   7.758  1.8694 -0.5697  0.2254
 8047SOL    HW226774   8.776   4.464   7.895 -0.1224 -1.3219  1.2813
 8048SOL     OW26775   9.275   1.178   7.994 -0.3462 -0.0689 -0.1887
 8048SOL    HW126776   9.220   1.224   8.057 -0.6671  0.0022 -0.5121
 8048SOL    HW226777   9.316   1.247   7.942 -2.8055 -0.0834 -2.3746
 8049SOL     OW26778   3.938   0.097   3.487 -0.1250  0.0932  0.1248
 8049SOL    HW126779   4.002   0.072   3.554  0.4792 -1.8856 -1.0919
 8049SOL    HW226780   3.937   0.023   3.427 -1.5472  1.2833 -1.4065
 8050SOL     OW26781   2.713   4.413   6.384  0.3987 -0.4262 -0.2171
 8050SOL    HW126782   2.752   4.474   6.322  1.3339 -1.4494 -0.6525
 8050SOL    HW226783   2.768   4.418   6.462  0.5179 -0.7476 -0.2766
 8051SOL     OW26784   7.941   6.308   8.381 -0.1125  0.0476  0.0684
 8051SOL    HW126785   7.982   6.250   8.317  0.1299  1.6390 -1.2776
 8051SOL    HW226786   7.947   6.395   8.342 -1.5460  0.8305  1.4842
 8052SOL     OW26787   5.793   8.241   2.381 -0.3172 -0.9169 -0.5952
 8052SOL    HW126788   5.870   8.257   2.326  0.5207 -0.3972  0.7058
 8052SOL    HW226789   5.829   8.204   2.462 -1.5821 -2.2135 -0.5910
 8053SOL     OW26790   8.493   3.624   3.567  0.1749 -0.2668 -0.4769
 8053SOL    HW126791   8.580   3.630   3.528 -0.0243 -1.0626 -1.0985
 8053SOL    HW226792   8.436   3.673   3.508  0.2790  0.6959  0.2108
 8054SOL     OW26793   4.812   3.651   8.821  0.6605  0.2194  1.0074
 8054SOL    HW126794   4.736   3.610   8.782 -0.3191  4.0825 -1.7512
 8054SOL    HW226795   4.787   3.665   8.913 -1.2134 -0.1551  0.5892
 8055SOL     OW26796   7.948   6.444  10.181  0.0094 -0.3115  0.5640
 8055SOL    HW126797   7.997   6.430  10.263 -0.2963 -0.5573  0.7074
 8055SOL    HW226798   7.960   6.537  10.162 -0.0561 -0.2150  0.9779
 8056SOL     OW26799   9.121   8.852   8.488  0.4349  0.2851 -0.8540
 8056SOL    HW126800   9.174   8.772   8.477 -0.7638 -0.5378 -0.8049
 8056SOL    HW226801   9.033   8.820   8.507 -0.1491  1.6279 -1.1884
 8057SOL     OW26802   4.540   3.251   0.994 -0.4749  0.0219  0.6474
 8057SOL    HW126803   4.540   3.340   1.028 -1.7088 -0.4084  1.8652
 8057SOL    HW226804   4.628   3.218   1.015  0.6646  1.4799 -1.4412
 8058SOL     OW26805  10.037   3.331   7.773 -0.4396 -0.8172 -0.3125
 8058SOL    HW126806  10.110   3.269   7.767  3.0713  2.7181  1.3726
 8058SOL    HW226807  10.033   3.373   7.687  1.7912  1.0756  0.4083
 8059SOL     OW26808   4.282   7.357   2.610 -0.7924  0.1754  0.2858
 8059SOL    HW126809   4.249   7.310   2.533  0.2314 -2.0453  1.1246
 8059SOL    HW226810   4.206   7.367   2.667 -1.0838 -0.2301 -0.0248
 8060SOL     OW26811   7.478   4.215   4.013  0.3105  0.0325  0.1006
 8060SOL    HW126812   7.388   4.230   4.045 -0.3960 -0.0496 -1.7363
 8060SOL    HW226813   7.486   4.120   4.007 -0.0354  0.0670 -1.1582
 8061SOL     OW26814   3.511   8.072   3.698 -0.0453 -0.2797  0.0515
 8061SOL    HW126815   3.431   8.063   3.749  0.1426 -2.0426  0.1060
 8061SOL    HW226816   3.545   7.982   3.691  1.3903  0.2965 -0.8181
 8062SOL     OW26817   3.975   0.657   8.700  0.4596 -0.3105 -0.3866
 8062SOL    HW126818   3.885   0.636   8.728  0.2372  0.0812 -0.7995
 8062SOL    HW226819   3.979   0.752   8.701  0.8274 -0.3250 -0.5142
 8063SOL     OW26820   7.083   4.748  10.021  0.0673  0.6863  0.7344
 8063SOL    HW126821   7.169   4.761   9.981  0.6723 -1.8075  1.0277
 8063SOL    HW226822   7.066   4.828  10.070  2.2873  1.1859  0.7797
 8064SOL     OW26823   3.924   4.282   7.123  0.0282  0.6686 -0.1014
 8064SOL    HW126824   3.959   4.362   7.083 -0.5562  0.9482 -0.0582
 8064SOL    HW226825   3.936   4.215   7.056 -2.5178  1.4714 -1.4995
 8065SOL     OW26826   6.549   4.140   8.306 -0.3139 -0.7260 -0.4117
 8065SOL    HW126827   6.564   4.183   8.390 -0.4929 -1.9593  0.2889
 8065SOL    HW226828   6.532   4.211   8.245 -2.6662  0.1315  1.0907
 8066SOL     OW26829   6.301   5.121   3.891  0.1130  0.4363  0.2363
 8066SOL    HW126830   6.394   5.102   3.899  0.0751 -0.6813 -1.3871
 8066SOL    HW226831   6.295   5.216   3.903  1.6953  0.7606 -1.0645
 8067SOL     OW26832   6.650   0.844   8.356 -0.0289 -0.1965  0.0597
 8067SOL    HW126833   6.719   0.798   8.403 -1.3195 -2.6791 -0.2566
 8067SOL    HW226834   6.569   0.818   8.401 -0.8909  1.5840 -0.3497
 8068SOL     OW26835   1.487   1.963   6.856 -0.2505 -0.6109 -0.1712
 8068SOL    HW126836   1.539   1.920   6.788 -0.5982 -0.4480 -0.5446
 8068SOL    HW226837   1.502   2.056   6.842 -0.3170 -0.5774 -0.0196
 8069SOL     OW26838   5.988   0.654   4.269 -0.2847 -0.3789  0.2945
 8069SOL    HW126839   5.977   0.748   4.274  0.2510 -0.2411 -0.7210
 8069SOL    HW226840   6.077   0.638   4.301  0.0684 -0.3876 -0.6375
 8070SOL     OW26841   4.186   1.573   8.528 -0.3665 -0.2340  0.4734
 8070SOL    HW126842   4.185   1.542   8.438 -2.2513  0.5619  0.1840
 8070SOL    HW226843   4.131   1.651   8.527 -0.7759 -0.4602  2.3988
 8071SOL     OW26844   3.474  10.174   0.174 -0.4399  0.2503  0.2121
 8071SOL    HW126845   3.438  10.127   0.098 -1.8031 -0.0396  1.0035
 8071SOL    HW226846   3.441  10.263   0.165 -0.2420  0.3272  0.2398
 8072SOL     OW26847   8.364   3.664   5.275  0.0766  0.0064  0.3203
 8072SOL    HW126848   8.402   3.684   5.360  2.0512  2.6721 -1.0288
 8072SOL    HW226849   8.281   3.712   5.275 -0.5756 -1.0730  1.1588
 8073SOL     OW26850   2.011   9.503   1.858 -0.0644 -1.0038 -0.0249
 8073SOL    HW126851   1.969   9.543   1.782  0.5032  1.5722  0.9488
 8073SOL    HW226852   1.968   9.542   1.934  2.2609 -0.2394  0.9941
 8074SOL     OW26853  10.037   0.940   7.452 -0.4278  0.0972 -0.2940
 8074SOL    HW126854  10.089   0.903   7.523  0.1506  0.8024 -0.3328
 8074SOL    HW226855  10.041   1.035   7.467 -1.9286  0.1497 -0.1530
 8075SOL     OW26856   7.720   0.801   1.625  0.5499 -0.3709 -0.0222
 8075SOL    HW126857   7.705   0.732   1.689 -0.6109  0.0332  0.1607
 8075SOL    HW226858   7.705   0.758   1.540 -1.1091 -0.1548  0.1245
 8076SOL     OW26859   8.635   6.393   2.042 -0.2785 -0.0418  0.6355
 8076SOL    HW126860   8.630   6.325   2.109  0.3502 -0.2202  0.5133
 8076SOL    HW226861   8.727   6.392   2.014 -0.6953 -0.5777 -0.8433
 8077SOL     OW26862   9.869   4.535   6.156 -0.2333 -0.1728  0.1738
 8077SOL    HW126863   9.897   4.471   6.221 -1.9896  0.2214  1.3767
 8077SOL    HW226864   9.774   4.529   6.154 -0.3513  1.3098 -0.8230
 8078SOL     OW26865   7.911   5.035   4.762 -0.6392 -0.0922  0.0516
 8078SOL    HW126866   7.937   4.971   4.829  0.8192  0.7732  0.3441
 8078SOL    HW226867   7.901   5.117   4.810 -1.0627  0.2190 -0.5575
 8079SOL     OW26868   7.603   4.976   6.270  0.0133  0.0533 -0.3303
 8079SOL    HW126869   7.514   5.008   6.285  0.1976 -0.0642  1.0890
 8079SOL    HW226870   7.597   4.928   6.187 -1.2619 -0.0247 -0.2080
 8080SOL     OW26871   4.790   5.411   7.675  0.1500 -0.2689 -0.0356
 8080SOL    HW126872   4.882   5.432   7.663 -0.1937  1.6773  0.4952
 8080SOL    HW226873   4.756   5.402   7.586  0.4279  0.9933 -0.2786
 8081SOL     OW26874   6.789   5.731   3.631  0.8342  0.3731 -0.0472
 8081SOL    HW126875   6.881   5.749   3.611  0.5687  0.9147 -0.7936
 8081SOL    HW226876   6.755   5.686   3.554  0.3578  0.5481  0.0567
 8082SOL     OW26877   6.120   9.168   2.350 -0.1963  0.2356 -0.1261
 8082SOL    HW126878   6.192   9.147   2.291 -1.3008 -0.0911 -1.4088
 8082SOL    HW226879   6.085   9.083   2.377  0.4093  0.3738  1.1899
 8083SOL     OW26880   7.210   2.146   3.682  0.5259  0.6653 -1.0615
 8083SOL    HW126881   7.130   2.125   3.633  0.3425  0.1256 -0.5444
 8083SOL    HW226882   7.228   2.067   3.733  0.1346  1.5507  0.5203
 8084SOL     OW26883  10.011   0.280   4.954 -0.0951 -0.2279 -0.5861
 8084SOL    HW126884   9.990   0.323   5.038 -1.6008 -0.7253 -0.6815
 8084SOL    HW226885  10.077   0.215   4.977  0.3682  0.4334  0.0084
 8085SOL     OW26886   1.699   2.145   1.869 -0.4786  0.5732 -0.0397
 8085SOL    HW126887   1.737   2.069   1.825  1.9727  1.1522  0.9069
 8085SOL    HW226888   1.653   2.109   1.945  0.9874 -0.0041  0.6207
 8086SOL     OW26889   8.713   2.241   6.291 -0.4889 -0.2683 -0.2859
 8086SOL    HW126890   8.704   2.264   6.383 -2.2368  1.4624 -0.8171
 8086SOL    HW226891   8.623   2.232   6.259 -0.0339  1.1759 -2.2294
 8087SOL     OW26892   0.913   1.536   7.716 -0.0653 -0.0685 -0.2357
 8087SOL    HW126893   0.959   1.606   7.763  1.5692 -1.6702  0.7038
 8087SOL    HW226894   0.928   1.458   7.769  0.6617 -1.7099 -2.6814
 8088SOL     OW26895   6.155   1.870   1.147  0.5300  0.2827 -0.3142
 8088SOL    HW126896   6.109   1.953   1.150  1.4404  0.7890  0.0180
 8088SOL    HW226897   6.086   1.804   1.153 -0.2973  0.9783 -1.6668
 8089SOL     OW26898   2.517   1.456   6.697  0.0083  0.9044  0.1022
 8089SOL    HW126899   2.600   1.413   6.673 -0.1351  1.5552 -1.6759
 8089SOL    HW226900   2.531   1.548   6.678 -0.8499  1.1584  0.6371
 8090SOL     OW26901   4.611   4.920   3.034 -0.2424 -0.1102  0.4883
 8090SOL    HW126902   4.700   4.933   3.065 -0.3900 -0.8492  1.2465
 8090SOL    HW226903   4.599   4.825   3.032 -0.8393 -0.0331 -0.1046
 8091SOL     OW26904   2.702   2.459   8.144  0.5187  0.2764  0.2140
 8091SOL    HW126905   2.710   2.531   8.081  0.9869  0.5112  0.5441
 8091SOL    HW226906   2.611   2.430   8.134 -0.1018  1.8202  1.0684
 8092SOL     OW26907   0.302   4.199   5.353 -0.0659  0.3539 -0.1379
 8092SOL    HW126908   0.362   4.274   5.355  0.3525  0.0201  0.0703
 8092SOL    HW226909   0.359   4.123   5.366 -0.5379  0.0311  0.0559
 8093SOL     OW26910   5.722   7.711   3.447  0.2606  0.4173  0.3403
 8093SOL    HW126911   5.721   7.644   3.379  1.3598 -0.8253  1.4941
 8093SOL    HW226912   5.635   7.704   3.488  0.3904 -0.3587  0.4938
 8094SOL     OW26913   2.297   2.059   3.997 -0.1044 -0.3894  0.1570
 8094SOL    HW126914   2.313   2.135   4.053 -0.7552 -1.4349  1.8464
 8094SOL    HW226915   2.379   2.010   3.998 -0.6461 -1.3354  1.7506
 8095SOL     OW26916   3.658   9.267   9.722  0.0507  0.1604 -0.0141
 8095SOL    HW126917   3.629   9.269   9.813  2.5956  1.0702  0.8620
 8095SOL    HW226918   3.582   9.295   9.672 -1.1242  0.6020  1.9238
 8096SOL     OW26919   7.637   8.907   0.083 -0.1821 -0.0764 -0.8688
 8096SOL    HW126920   7.594   8.962   0.148  0.7392  0.3711 -0.6099
 8096SOL    HW226921   7.625   8.953   0.000  2.1658  1.5580 -0.3985
 8097SOL     OW26922   0.267   5.239   4.284 -0.3821  0.3829 -0.2693
 8097SOL    HW126923   0.359   5.261   4.264  0.1987  0.4045  2.0933
 8097SOL    HW226924   0.266   5.144   4.287 -0.2851  0.3962  0.2783
 8098SOL     OW26925   2.026   8.165   5.248 -0.6799 -0.2004 -0.4241
 8098SOL    HW126926   2.115   8.140   5.226 -0.7363 -0.2464 -0.6019
 8098SOL    HW226927   1.972   8.090   5.222 -0.9935  0.5540 -2.0851
 8099SOL     OW26928   8.541   0.140   3.382  0.6218 -0.6015 -0.2149
 8099SOL    HW126929   8.560   0.120   3.474 -2.9919 -1.1626  0.5329
 8099SOL    HW226930   8.563   0.233   3.374 -0.4692 -0.1226  1.6945
 8100SOL     OW26931   7.107   2.094   8.539  0.1101  0.0033 -0.6894
 8100SOL    HW126932   7.103   1.999   8.552 -1.2398 -0.4024 -3.4492
 8100SOL    HW226933   7.178   2.107   8.476 -0.3655  0.7152 -1.0991
 8101SOL     OW26934   5.239   7.614   9.749 -0.0748 -0.1057 -0.8967
 8101SOL    HW126935   5.227   7.669   9.826 -0.1189 -0.9550 -0.2917
 8101SOL    HW226936   5.319   7.647   9.707  0.4354 -0.2011 -0.0109
 8102SOL     OW26937   8.678   7.149   3.873 -0.0821 -0.3084  0.3096
 8102SOL    HW126938   8.694   7.083   3.941  0.8256 -0.3715  0.0515
 8102SOL    HW226939   8.766   7.179   3.848 -0.4850  2.8699  2.2100
 8103SOL     OW26940   6.226   7.245   3.742  0.5712 -0.0764  0.2574
 8103SOL    HW126941   6.181   7.280   3.818  0.8855  1.2517 -0.1415
 8103SOL    HW226942   6.167   7.177   3.708 -1.0588  1.4591 -0.1286
 8104SOL     OW26943   7.188   0.286   7.831 -0.1850  0.3143  0.2287
 8104SOL    HW126944   7.150   0.283   7.919 -0.6309 -0.0024  0.0251
 8104SOL    HW226945   7.148   0.212   7.785  0.0586  0.4729 -0.2385
 8105SOL     OW26946   7.415   5.455   4.698  0.0382  0.2701 -0.0747
 8105SOL    HW126947   7.420   5.360   4.699 -1.1822  0.1837 -0.6351
 8105SOL    HW226948   7.470   5.483   4.771 -2.7705 -1.0058  2.7525
 8106SOL     OW26949   3.179   6.556   5.715 -0.3466 -0.9065  0.1217
 8106SOL    HW126950   3.205   6.614   5.644 -2.0530 -2.0214 -1.5087
 8106SOL    HW226951   3.084   6.552   5.709 -0.5281 -1.2109  2.3656
 8107SOL     OW26952   0.385   2.795   3.106  0.4588 -0.2614  0.0847
 8107SOL    HW126953   0.465   2.764   3.063  1.0267  1.1989  0.0496
 8107SOL    HW226954   0.370   2.882   3.071  0.1065  0.3808  1.7136
 8108SOL     OW26955   5.303   1.314   6.405 -0.0887 -0.2722  0.4003
 8108SOL    HW126956   5.385   1.346   6.443  0.8892  1.1062 -2.5488
 8108SOL    HW226957   5.302   1.220   6.427  0.3068  0.3702  3.6738
 8109SOL     OW26958   4.675   1.909  10.081 -0.1463 -0.3682  0.2998
 8109SOL    HW126959   4.618   1.833  10.070 -0.1604 -0.5162  1.3003
 8109SOL    HW226960   4.619   1.975  10.123 -1.0469  1.3358 -3.1833
 8110SOL     OW26961   3.579   5.510   5.794 -0.1182  0.3726 -0.0427
 8110SOL    HW126962   3.643   5.580   5.778 -0.2473  0.8635  1.4988
 8110SOL    HW226963   3.630   5.429   5.783  0.1488  0.6881 -1.3275
 8111SOL     OW26964   7.607   6.979   0.020  0.3177  0.7591 -0.0490
 8111SOL    HW126965   7.701   6.985   0.002  0.5126  1.4038  1.1078
 8111SOL    HW226966   7.571   7.059  -0.017 -0.0350 -0.1635 -1.8211
 8112SOL     OW26967   4.967   6.273   8.923 -0.0019  0.3740  0.0945
 8112SOL    HW126968   5.016   6.264   9.005  0.6079  0.4914 -0.2528
 8112SOL    HW226969   5.022   6.328   8.868 -0.1771 -0.1067 -0.5766
 8113SOL     OW26970   7.671   8.407   1.113  0.0307  0.0620 -0.2109
 8113SOL    HW126971   7.673   8.411   1.209  0.2905 -2.2223 -0.0618
 8113SOL    HW226972   7.580   8.425   1.090  0.3333  2.5876  0.2697
 8114SOL     OW26973   0.806   5.991   3.868 -0.0541 -0.5735  0.0666
 8114SOL    HW126974   0.802   5.983   3.964 -1.3971  0.3167  0.1091
 8114SOL    HW226975   0.722   5.956   3.838  0.1864 -0.4497 -0.7537
 8115SOL     OW26976   1.836   3.860   4.213  0.1900 -0.0324 -0.0566
 8115SOL    HW126977   1.817   3.901   4.298  0.7382  1.3474 -0.5719
 8115SOL    HW226978   1.932   3.867   4.205 -0.0173  1.9775 -1.7784
 8116SOL     OW26979   8.818   7.932  10.128 -0.0865 -0.1288  0.5530
 8116SOL    HW126980   8.867   7.964  10.053  0.5422  0.4326  1.1858
 8116SOL    HW226981   8.726   7.944  10.104  0.0870 -0.5650 -0.3781
 8117SOL     OW26982   7.643   7.407   7.388  0.9789 -0.4550 -0.3487
 8117SOL    HW126983   7.581   7.439   7.453  0.2183  2.4637 -2.2861
 8117SOL    HW226984   7.592   7.350   7.331  0.6782 -0.0615 -0.4794
 8118SOL     OW26985   9.272   2.158   8.832 -0.3824 -0.3865 -0.1733
 8118SOL    HW126986   9.243   2.068   8.821  1.5338 -0.9854 -0.5620
 8118SOL    HW226987   9.341   2.170   8.767  0.4665  0.8554  0.8967
 8119SOL     OW26988   9.339   6.952   5.298  0.0744  0.2835  0.0600
 8119SOL    HW126989   9.362   7.009   5.224  1.3343 -0.1386  0.1081
 8119SOL    HW226990   9.269   6.896   5.264  0.2309  0.4926 -0.6209
 8120SOL     OW26991   5.597   4.565   8.995 -0.2633 -0.0474  0.0152
 8120SOL    HW126992   5.671   4.505   9.002 -0.5012 -0.3088  0.3505
 8120SOL    HW226993   5.593   4.589   8.903  0.0081 -0.3290 -0.0707
 8121SOL     OW26994   9.871   8.008   2.787 -0.1092  0.1243 -0.5521
 8121SOL    HW126995   9.834   8.096   2.778  1.4126  0.8656  0.0911
 8121SOL    HW226996   9.960   8.022   2.819  0.7128 -1.6015 -1.8914
 8122SOL     OW26997  10.019   6.752   0.066  0.7219 -0.0424 -0.0418
 8122SOL    HW126998  10.086   6.711   0.121  0.6653  0.0427  0.0901
 8122SOL    HW226999   9.989   6.828   0.116 -0.8683 -1.1621  0.7924
 8123SOL     OW27000   5.331   1.047   3.627  0.4580  0.3626  0.3298
 8123SOL    HW127001   5.347   0.953   3.615 -0.4392  0.1645  0.6736
 8123SOL    HW227002   5.333   1.083   3.538 -0.2174 -0.1469  0.1067
 8124SOL     OW27003   1.954   2.641   9.887  0.0753 -0.1931  0.1145
 8124SOL    HW127004   2.031   2.592   9.859  0.0076 -1.0604  1.3691
 8124SOL    HW227005   1.987   2.730   9.905 -0.0411  0.7394 -3.4862
 8125SOL     OW27006   7.978   6.709   6.752  0.1005  0.5741  0.0748
 8125SOL    HW127007   8.040   6.688   6.822  0.0831  1.0297  0.2308
 8125SOL    HW227008   7.931   6.627   6.736 -1.8450  1.1011  2.5028
 8126SOL     OW27009   0.124   4.786   2.573  0.1490  0.3540 -0.7085
 8126SOL    HW127010   0.077   4.853   2.522  0.8005 -0.4249 -2.3925
 8126SOL    HW227011   0.153   4.722   2.508 -0.7600 -1.7994  0.8839
 8127SOL     OW27012   5.964   7.347   5.463  0.6819  0.0501 -0.4269
 8127SOL    HW127013   5.957   7.386   5.375 -0.6744  0.4924 -0.1459
 8127SOL    HW227014   5.918   7.409   5.520  0.2096 -0.9823  0.3481
 8128SOL     OW27015   4.209   4.695   3.929 -0.1505 -0.5958  0.3670
 8128SOL    HW127016   4.200   4.711   3.835 -1.5031 -0.1502  0.5403
 8128SOL    HW227017   4.262   4.616   3.935  0.5523 -0.2412 -0.7414
 8129SOL     OW27018   5.220   5.452   3.989  0.1938  0.1544  0.2367
 8129SOL    HW127019   5.214   5.357   3.980  0.2158  0.1576  0.1902
 8129SOL    HW227020   5.272   5.465   4.068  1.0216  0.1243 -0.2870
 8130SOL     OW27021   8.063   6.760   2.958 -0.2964 -0.0713 -0.3790
 8130SOL    HW127022   7.970   6.741   2.964  0.1201 -2.2938 -0.0692
 8130SOL    HW227023   8.078   6.828   3.023 -1.6022 -0.1381  0.0137
 8131SOL     OW27024   3.086   7.357   3.429  0.6465  0.3099  0.0137
 8131SOL    HW127025   3.001   7.314   3.418 -0.1867  1.7618  0.5541
 8131SOL    HW227026   3.138   7.325   3.356 -0.0013 -1.4129  0.2539
 8132SOL     OW27027   7.036   2.853   3.414 -0.1227  0.3651 -0.0135
 8132SOL    HW127028   6.963   2.854   3.476 -0.8358 -1.9076 -0.7349
 8132SOL    HW227029   7.024   2.934   3.363 -0.5411  1.3738  1.5911
 8133SOL     OW27030   6.512   7.215   4.308 -0.1224 -0.0725  0.1545
 8133SOL    HW127031   6.530   7.133   4.354 -1.7377 -0.3896  0.2893
 8133SOL    HW227032   6.590   7.268   4.322  0.9361 -1.5451  0.1279
 8134SOL     OW27033   9.523   4.003   3.538 -0.4003 -0.3296  0.2169
 8134SOL    HW127034   9.548   4.026   3.448  0.7430  1.8626  1.0192
 8134SOL    HW227035   9.582   4.054   3.593 -1.9745 -0.5667  2.2376
 8135SOL     OW27036   5.651   3.193   6.506 -0.1845  0.1115 -0.5748
 8135SOL    HW127037   5.719   3.215   6.442  0.7270  1.4320  0.7985
 8135SOL    HW227038   5.652   3.265   6.569 -3.2145  0.4387 -0.7374
 8136SOL     OW27039   1.927   8.426   2.142  0.1130  0.3671 -0.1317
 8136SOL    HW127040   1.923   8.520   2.122 -1.5970  0.0102 -1.6696
 8136SOL    HW227041   1.848   8.409   2.194  0.5205 -0.2035  0.3203
 8137SOL     OW27042   8.988   6.248   2.124  0.0091 -0.1289 -0.2937
 8137SOL    HW127043   8.954   6.331   2.092 -0.6558 -0.8393 -1.4993
 8137SOL    HW227044   9.063   6.229   2.067  0.9766  0.2531  0.8099
 8138SOL     OW27045   5.863   6.780   4.581  0.4054  0.5436  0.2544
 8138SOL    HW127046   5.863   6.782   4.485  1.3463 -0.7767  0.1921
 8138SOL    HW227047   5.931   6.716   4.603 -0.6165 -0.0635  1.7860
 8139SOL     OW27048   4.406   1.219   2.904 -0.1121 -0.3700  0.2885
 8139SOL    HW127049   4.311   1.226   2.894 -0.1013 -0.4480  0.1401
 8139SOL    HW227050   4.433   1.304   2.938 -0.1941 -0.2430  0.0354
 8140SOL     OW27051   9.691   2.827   3.412 -0.2392  0.2678  0.6340
 8140SOL    HW127052   9.642   2.883   3.472  0.0836  2.2040 -0.8095
 8140SOL    HW227053   9.769   2.878   3.391 -0.2357 -0.4498 -1.2392
 8141SOL     OW27054   2.601   8.799   4.122 -0.1293 -0.6293  0.1419
 8141SOL    HW127055   2.691   8.816   4.095 -0.5851  0.5297 -0.7586
 8141SOL    HW227056   2.570   8.732   4.062 -0.3205  0.0534 -0.5356
 8142SOL     OW27057   1.601   4.532   4.952 -0.7832 -0.1960 -0.1003
 8142SOL    HW127058   1.647   4.520   5.035  1.1287  1.1318 -0.8877
 8142SOL    HW227059   1.655   4.486   4.887 -1.7267 -0.3970 -0.7756
 8143SOL     OW27060   8.114   8.532   2.643  0.7605 -0.4737  0.4414
 8143SOL    HW127061   8.148   8.462   2.587 -1.4526 -0.4532 -1.0702
 8143SOL    HW227062   8.055   8.582   2.586  2.4940  2.9000  1.3482
 8144SOL     OW27063   9.312   1.861   8.223  0.0468  0.1699  0.2188
 8144SOL    HW127064   9.299   1.926   8.292  1.1659 -2.9323  3.6211
 8144SOL    HW227065   9.363   1.907   8.156  0.1825  2.9502  2.0844
 8145SOL     OW27066   0.655   1.158   7.972  0.2153  0.2255  0.4568
 8145SOL    HW127067   0.706   1.095   7.921  0.5003  1.9750 -1.5712
 8145SOL    HW227068   0.708   1.238   7.972 -0.8329  0.9574  1.5884
 8146SOL     OW27069   4.290   2.349   5.032 -1.0545  0.5437 -0.0838
 8146SOL    HW127070   4.299   2.370   4.940  1.0497  0.6170  0.1013
 8146SOL    HW227071   4.232   2.272   5.034  2.1833 -2.1881 -1.8577
 8147SOL     OW27072   4.316   9.616   4.565 -0.5204 -0.0312  0.0616
 8147SOL    HW127073   4.273   9.656   4.640 -1.8333 -2.1091  0.4730
 8147SOL    HW227074   4.367   9.545   4.601  0.2604  0.0385 -0.8507
 8148SOL     OW27075   8.545   3.053   9.249  0.5973 -0.5005  0.1576
 8148SOL    HW127076   8.479   3.096   9.302 -0.3014 -0.5959 -0.8330
 8148SOL    HW227077   8.547   2.963   9.282 -0.2842 -0.6817 -0.2452
 8149SOL     OW27078   9.458   3.021   8.688 -0.0949  0.1679 -0.3715
 8149SOL    HW127079   9.493   3.107   8.663  0.1393  0.6121  1.3457
 8149SOL    HW227080   9.520   2.958   8.650  1.4817  0.8807  0.8901
 8150SOL     OW27081   4.744   1.021   5.391 -0.4742  0.6211  0.6497
 8150SOL    HW127082   4.792   0.977   5.320  0.2322  0.4614  1.2235
 8150SOL    HW227083   4.809   1.037   5.458 -0.7015  2.6053  0.4509
 8151SOL     OW27084   4.517   7.563   7.985 -0.1400  0.3531 -0.0032
 8151SOL    HW127085   4.481   7.622   8.052  0.9092  1.2162 -0.1620
 8151SOL    HW227086   4.517   7.615   7.905 -0.2744 -0.2674 -0.4110
 8152SOL     OW27087  10.242   2.451   2.879  0.6340  0.1713 -0.3762
 8152SOL    HW127088  10.249   2.399   2.798 -2.1947 -0.2382 -0.4625
 8152SOL    HW227089  10.250   2.541   2.849 -1.9182  0.1311 -1.4781
 8153SOL     OW27090   6.200   9.829   9.601 -0.3206  0.2026 -0.3669
 8153SOL    HW127091   6.117   9.792   9.572 -0.8734  2.3211 -1.7233
 8153SOL    HW227092   6.177   9.881   9.679 -0.6982  2.2370 -1.7514
 8154SOL     OW27093   6.743   2.166   7.984  0.7093  0.0475 -0.8072
 8154SOL    HW127094   6.824   2.144   7.938  0.1141  0.5795 -2.1700
 8154SOL    HW227095   6.674   2.123   7.933  0.0943 -0.1436  0.1558
 8155SOL     OW27096   1.294   8.093   7.545 -0.5972 -0.4387 -0.0419
 8155SOL    HW127097   1.242   8.087   7.625  0.5832  1.5369  0.9576
 8155SOL    HW227098   1.384   8.106   7.576  0.1263 -1.1431 -1.7172
 8156SOL     OW27099   8.718   2.610   4.916  0.4757 -0.2631  0.1428
 8156SOL    HW127100   8.812   2.622   4.904  0.7136 -1.6695  0.4370
 8156SOL    HW227101   8.709   2.580   5.007 -0.4516  1.5658  0.7198
 8157SOL     OW27102   6.602   1.260   3.016  0.1270  0.2815 -0.3018
 8157SOL    HW127103   6.548   1.184   3.036 -1.3283  1.3621  0.0516
 8157SOL    HW227104   6.540   1.334   3.015  1.2285  1.2665 -2.0721
 8158SOL     OW27105   2.252   6.389   0.745  0.6403  0.1297  0.2906
 8158SOL    HW127106   2.317   6.330   0.782 -0.5514 -1.0616  0.5846
 8158SOL    HW227107   2.202   6.335   0.683 -0.1590  0.9556  0.1809
 8159SOL     OW27108   5.549   7.958   2.877 -0.0086 -0.1443  0.7616
 8159SOL    HW127109   5.612   8.027   2.899  0.9769 -1.3428  1.8708
 8159SOL    HW227110   5.580   7.923   2.793  0.3703 -0.2354  0.9377
 8160SOL     OW27111   7.303   6.544   1.351  0.3822 -0.0534 -0.0353
 8160SOL    HW127112   7.334   6.454   1.347  1.4322  0.2582  0.5727
 8160SOL    HW227113   7.238   6.545   1.421  0.3751 -0.3364 -0.0375
 8161SOL     OW27114   7.545   0.752   3.685 -0.1817  0.1873 -0.7853
 8161SOL    HW127115   7.629   0.757   3.731  0.1008  0.7574 -1.3447
 8161SOL    HW227116   7.522   0.844   3.668 -0.5761  0.0044 -1.2516
 8162SOL     OW27117   7.550   4.239   8.330  0.1706  0.4551  0.2408
 8162SOL    HW127118   7.581   4.294   8.401 -0.7818  1.5518 -0.1674
 8162SOL    HW227119   7.458   4.261   8.320 -0.4168 -1.6449  0.4337
 8163SOL     OW27120   0.752   7.581   7.638  0.3820  0.4068  0.1996
 8163SOL    HW127121   0.826   7.642   7.634  0.5364  0.2136  0.0912
 8163SOL    HW227122   0.784   7.502   7.595 -0.2918  0.7385 -0.9617
 8164SOL     OW27123   2.795   9.176   1.106 -0.0068  0.2047 -0.1395
 8164SOL    HW127124   2.833   9.096   1.070 -0.4557 -0.9213  1.7838
 8164SOL    HW227125   2.811   9.242   1.038  2.9435 -0.8037 -0.5716
 8165SOL     OW27126   2.614   7.805   5.475 -0.3301 -0.4865  0.0912
 8165SOL    HW127127   2.577   7.737   5.531 -1.7918  0.7774  0.7547
 8165SOL    HW227128   2.709   7.799   5.489 -0.5200 -1.6007  1.0461
 8166SOL     OW27129   6.189   0.227   6.437  0.1533  0.2416 -0.1867
 8166SOL    HW127130   6.168   0.292   6.504 -0.7963 -0.0265 -0.2029
 8166SOL    HW227131   6.112   0.170   6.435  1.1322 -1.1541  0.1510
 8167SOL     OW27132   5.878   9.047   9.238 -0.8209 -0.6999 -0.1623
 8167SOL    HW127133   5.783   9.042   9.250 -1.1179  1.7180 -0.8193
 8167SOL    HW227134   5.889   9.118   9.174  1.3742 -1.9884 -1.3183
 8168SOL     OW27135   4.570   5.207   4.022  0.2851 -0.1929  0.2554
 8168SOL    HW127136   4.584   5.118   3.989  2.2093 -0.0136  0.4843
 8168SOL    HW227137   4.501   5.242   3.966  0.8810 -1.1619 -1.1656
 8169SOL     OW27138   4.161   3.855   0.203 -0.1327 -0.0226 -0.5120
 8169SOL    HW127139   4.199   3.806   0.130 -2.0531 -1.1151 -0.8255
 8169SOL    HW227140   4.130   3.937   0.163 -1.2209 -0.6376 -0.9632
 8170SOL     OW27141   3.314   6.679   3.387  0.2817 -0.1495  0.0927
 8170SOL    HW127142   3.367   6.656   3.311 -0.6250  0.1207 -0.6308
 8170SOL    HW227143   3.348   6.764   3.415 -0.7643  0.7527 -1.3053
 8171SOL     OW27144   4.234   6.309   8.953 -0.1250  0.1080  0.4171
 8171SOL    HW127145   4.274   6.224   8.970 -0.2254 -0.1319 -0.5250
 8171SOL    HW227146   4.228   6.350   9.040 -2.6547 -1.9563  1.3787
 8172SOL     OW27147   6.247   5.756   5.330 -0.0604 -0.1704 -0.2444
 8172SOL    HW127148   6.184   5.793   5.391 -0.6163  1.0215 -1.4920
 8172SOL    HW227149   6.303   5.700   5.384 -1.0981  0.1158  1.1770
 8173SOL     OW27150   9.768   8.799   9.628 -0.6188  0.4935 -0.2351
 8173SOL    HW127151   9.791   8.889   9.651  1.1765  0.0062  0.0133
 8173SOL    HW227152   9.741   8.804   9.537  2.0242  0.9420 -1.0842
 8174SOL     OW27153   4.750   4.233   2.846  0.9981  0.3496  0.0565
 8174SOL    HW127154   4.833   4.262   2.885  0.3920  0.7691  1.0781
 8174SOL    HW227155   4.770   4.223   2.753  2.0650  0.9474  0.1963
 8175SOL     OW27156   8.635   0.868   8.243  0.7149 -0.0512 -0.3692
 8175SOL    HW127157   8.637   0.772   8.235 -0.8840 -0.2154  0.7791
 8175SOL    HW227158   8.586   0.884   8.324  2.0807  1.7303  0.1596
 8176SOL     OW27159   5.033   1.142   7.350 -0.0446  0.0822  0.0934
 8176SOL    HW127160   4.964   1.099   7.401 -1.2099  0.9610 -0.6758
 8176SOL    HW227161   4.988   1.214   7.306  1.4785  0.9813 -0.0599
 8177SOL     OW27162   8.325   1.866   4.611  0.5038  0.0403  0.2146
 8177SOL    HW127163   8.301   1.908   4.528  1.0564 -0.9125 -0.4435
 8177SOL    HW227164   8.415   1.837   4.598  0.3818 -0.6817  0.9295
 8178SOL     OW27165   6.796   0.631   4.586  0.2702 -0.1550 -0.6754
 8178SOL    HW127166   6.843   0.591   4.513  0.1185 -1.4464 -0.0943
 8178SOL    HW227167   6.728   0.568   4.608  0.4252  0.1173  0.6852
 8179SOL     OW27168   9.163   7.503   4.190  0.1192  0.4645  0.2000
 8179SOL    HW127169   9.131   7.561   4.120  0.3255  0.5008  0.1349
 8179SOL    HW227170   9.176   7.560   4.265 -3.6250 -0.0895  1.4758
 8180SOL     OW27171   2.885   0.841   0.865  0.5472 -0.1938  0.2151
 8180SOL    HW127172   2.837   0.924   0.864  0.7124 -0.1006 -0.1409
 8180SOL    HW227173   2.975   0.866   0.886  0.9441 -0.0798 -1.4147
 8181SOL     OW27174   6.738   6.326   9.372 -0.2257  0.0445  0.1913
 8181SOL    HW127175   6.794   6.382   9.425 -0.5292  0.8676 -0.3519
 8181SOL    HW227176   6.793   6.251   9.350  0.2699  0.2613  0.6907
 8182SOL     OW27177   6.049   8.669   4.348 -0.3646 -0.3562  0.1536
 8182SOL    HW127178   6.050   8.652   4.442 -1.8098  0.6312  0.3880
 8182SOL    HW227179   6.139   8.693   4.326 -0.1975  0.3117  1.4665
 8183SOL     OW27180   5.148   3.726   2.910  0.2379 -0.2477  0.1847
 8183SOL    HW127181   5.108   3.811   2.926  1.9925  0.8287 -0.8519
 8183SOL    HW227182   5.074   3.668   2.894 -1.0244  0.9340  1.4132
 8184SOL     OW27183   9.571   4.276   1.705 -0.4668  0.2584  0.2407
 8184SOL    HW127184   9.612   4.329   1.773 -0.8140 -1.2490  1.6900
 8184SOL    HW227185   9.632   4.204   1.691 -0.8286  0.0703 -0.3975
 8185SOL     OW27186   3.662   8.016   7.440 -0.0369 -0.2182 -0.4059
 8185SOL    HW127187   3.709   8.097   7.461 -0.2189 -0.2156  0.0153
 8185SOL    HW227188   3.606   8.039   7.367 -1.2427  0.4770  0.6922
 8186SOL     OW27189   5.985   3.898   9.086  0.0497  0.2970 -0.2426
 8186SOL    HW127190   5.898   3.861   9.104  0.4139 -0.0802  0.8067
 8186SOL    HW227191   6.025   3.908   9.172  0.7441  1.2401 -0.6630
 8187SOL     OW27192   9.693   7.658   0.205 -0.5164  0.4558  0.3472
 8187SOL    HW127193   9.682   7.630   0.296 -1.5167  1.6058  0.5949
 8187SOL    HW227194   9.604   7.655   0.168  0.0556 -1.4295 -1.0481
 8188SOL     OW27195   4.910   2.847   9.592 -0.4555 -0.3258  0.1449
 8188SOL    HW127196   4.829   2.860   9.642  0.1232 -1.2214  1.3983
 8188SOL    HW227197   4.882   2.803   9.512 -1.2032 -0.7456  0.6210
 8189SOL     OW27198   6.590   0.086   7.982  0.0254 -0.0953 -0.5676
 8189SOL    HW127199   6.675   0.130   7.990  0.3207 -0.6579 -0.5683
 8189SOL    HW227200   6.612  -0.006   7.968 -0.5983 -0.6116  1.5689
 8190SOL     OW27201   0.539   0.303   7.822 -0.6969  0.1157 -0.9696
 8190SOL    HW127202   0.453   0.291   7.783 -0.1817 -1.4130 -1.7224
 8190SOL    HW227203   0.600   0.298   7.748  0.2236 -1.8572 -0.1404
 8191SOL     OW27204   7.451   1.295   2.635  0.3244 -0.6421 -0.3629
 8191SOL    HW127205   7.413   1.287   2.547  1.8239 -2.0561 -0.9327
 8191SOL    HW227206   7.399   1.235   2.689 -0.4067  0.0025 -0.3389
 8192SOL     OW27207   5.180   6.265   4.990 -0.0922 -0.4483 -0.3264
 8192SOL    HW127208   5.189   6.310   4.906 -1.4518 -0.5656 -0.5596
 8192SOL    HW227209   5.175   6.172   4.967  1.5862 -0.6746  0.0685
 8193SOL     OW27210   5.075   6.056   2.805  0.5428  0.1570  0.0450
 8193SOL    HW127211   4.997   6.031   2.855  0.4398  1.3757  0.5219
 8193SOL    HW227212   5.144   6.000   2.841  0.1527 -0.0507  0.4889
 8194SOL     OW27213   2.783   2.684   7.509 -0.0041  0.2637 -0.0439
 8194SOL    HW127214   2.791   2.720   7.421  1.8362  0.1411  0.0269
 8194SOL    HW227215   2.776   2.761   7.565 -0.2844  0.3747 -0.2306
 8195SOL     OW27216   1.318   2.795   2.383  0.2237 -0.0272  0.0683
 8195SOL    HW127217   1.329   2.803   2.478 -0.8491 -0.4142  0.2383
 8195SOL    HW227218   1.351   2.707   2.363  2.1197  0.7071 -0.2074
 8196SOL     OW27219   5.822   5.602   2.101  0.6044  0.4229 -0.3685
 8196SOL    HW127220   5.810   5.534   2.168  1.3293  0.8376  0.2021
 8196SOL    HW227221   5.733   5.627   2.075  0.2567  1.1614  1.3738
 8197SOL     OW27222   5.036   0.914   2.814 -0.4359  0.0601 -0.0389
 8197SOL    HW127223   5.088   0.845   2.774  0.6134  0.4900  0.5161
 8197SOL    HW227224   5.076   0.927   2.900  0.9179  2.8956 -0.9671
 8198SOL     OW27225   1.462   7.032   6.565  0.9456 -0.3351 -0.6699
 8198SOL    HW127226   1.462   7.121   6.530  1.2588  0.0398  0.2453
 8198SOL    HW227227   1.477   7.043   6.659  0.0504 -1.2932 -0.3877
 8199SOL     OW27228   4.276   5.072   7.329 -0.0690 -0.0002  0.2493
 8199SOL    HW127229   4.195   5.116   7.355 -1.1141 -2.0476  0.6523
 8199SOL    HW227230   4.342   5.104   7.391 -1.1236 -0.0699  1.4393
 8200SOL     OW27231   2.075   6.821   2.366  0.0757 -0.4189 -0.2286
 8200SOL    HW127232   2.065   6.903   2.318 -2.4378 -0.3453  0.2766
 8200SOL    HW227233   2.137   6.842   2.436  2.5928 -0.1185 -2.3638
 8201SOL     OW27234   7.155   4.956   5.732 -0.1264 -0.0500 -0.0825
 8201SOL    HW127235   7.212   4.946   5.656  0.8765 -2.6262  0.9196
 8201SOL    HW227236   7.083   4.894   5.716 -0.8853  0.7149  0.2564
 8202SOL     OW27237   8.418   6.383   0.462  0.0603  0.3135 -0.0334
 8202SOL    HW127238   8.409   6.413   0.371 -0.7078 -0.6723 -0.2954
 8202SOL    HW227239   8.367   6.303   0.466  2.0543 -1.0074  0.6441
 8203SOL     OW27240   9.161   7.561   8.032 -0.3315 -0.2286 -0.4102
 8203SOL    HW127241   9.096   7.575   8.101  0.3340  2.9902 -0.2726
 8203SOL    HW227242   9.212   7.486   8.061 -0.8972  0.2445  1.9705
 8204SOL     OW27243   1.729   7.197   4.441  0.4973  0.6559  0.6901
 8204SOL    HW127244   1.709   7.255   4.367 -2.9347  0.1590  1.0767
 8204SOL    HW227245   1.748   7.257   4.513  2.9999  1.1523 -0.2820
 8205SOL     OW27246   3.055   4.397   8.083  0.4660  0.2716 -0.2188
 8205SOL    HW127247   2.995   4.388   8.156  0.2802 -0.7881 -0.4726
 8205SOL    HW227248   3.132   4.345   8.108  1.9560  2.7757  0.7363
 8206SOL     OW27249   3.704   7.545   3.130 -0.6042  0.4736  0.1848
 8206SOL    HW127250   3.755   7.591   3.196  0.9128 -1.2298  0.2828
 8206SOL    HW227251   3.634   7.606   3.107  0.4186  2.1872  1.3628
 8207SOL     OW27252   2.681   2.652   9.564  0.6727  0.6202 -0.1773
 8207SOL    HW127253   2.740   2.681   9.634 -0.3728 -0.7150  1.3250
 8207SOL    HW227254   2.599   2.698   9.580 -0.6296 -2.0412  1.5444
 8208SOL     OW27255   8.204   1.400   4.834 -0.1159 -0.4391  0.2094
 8208SOL    HW127256   8.208   1.491   4.803 -0.5545 -0.6946 -0.6293
 8208SOL    HW227257   8.249   1.349   4.766 -0.9679 -0.9956  0.0518
 8209SOL     OW27258   1.363   8.097   5.055 -0.1352 -0.5489  1.0617
 8209SOL    HW127259   1.294   8.039   5.088 -1.5990 -0.1207 -1.0842
 8209SOL    HW227260   1.409   8.045   4.989 -0.5023  0.2066  0.1934
 8210SOL     OW27261   5.640   0.242   1.600 -0.4246  0.5087 -0.3027
 8210SOL    HW127262   5.723   0.214   1.638 -1.6980 -1.7901  1.0056
 8210SOL    HW227263   5.654   0.334   1.576  1.9077  0.7135  1.5009
 8211SOL     OW27264   9.515   3.105   1.414  0.6062 -0.6393  0.1895
 8211SOL    HW127265   9.423   3.098   1.388  1.0122 -1.8705 -1.0537
 8211SOL    HW227266   9.557   3.029   1.374  2.4255  0.6022 -0.3804
 8212SOL     OW27267   1.305   8.347   0.600  0.5099 -0.9223  0.6153
 8212SOL    HW127268   1.332   8.277   0.542 -0.2946 -1.7922  1.2649
 8212SOL    HW227269   1.269   8.303   0.677  3.1465  0.1302  2.6333
 8213SOL     OW27270   7.644   3.473   7.306  0.2054 -0.3389  0.3247
 8213SOL    HW127271   7.713   3.455   7.370  0.0482 -0.2665  0.5163
 8213SOL    HW227272   7.642   3.396   7.249  2.4031  0.8383 -1.4886
 8214SOL     OW27273   3.923   8.733   1.684 -0.1984  0.2931  0.2404
 8214SOL    HW127274   4.001   8.678   1.678  0.5357  1.4514 -2.2837
 8214SOL    HW227275   3.919   8.759   1.776  0.4857 -2.3655  1.1116
 8215SOL     OW27276   3.711   4.489   8.898  0.1254 -0.1216 -0.4630
 8215SOL    HW127277   3.702   4.467   8.805  1.2149 -1.1048 -0.3689
 8215SOL    HW227278   3.710   4.404   8.942  0.2723  0.3021  0.3607
 8216SOL     OW27279   2.641   0.200   7.074  0.6523  0.0876 -0.2111
 8216SOL    HW127280   2.693   0.148   7.013 -0.3840 -0.8281 -0.3632
 8216SOL    HW227281   2.590   0.259   7.018  1.3348  0.8070 -0.0806
 8217SOL     OW27282   3.179   0.791   0.321  0.1762  0.1125  0.7213
 8217SOL    HW127283   3.189   0.886   0.332 -1.5052  0.5113 -0.7201
 8217SOL    HW227284   3.125   0.764   0.395 -0.6907  0.5811  0.2734
 8218SOL     OW27285   9.950   0.558   0.528 -0.0767 -0.3393  0.4777
 8218SOL    HW127286   9.865   0.563   0.485 -0.2511  1.2643  0.9364
 8218SOL    HW227287   9.959   0.466   0.552 -0.7298 -0.9447 -1.4220
 8219SOL     OW27288   0.500   0.684   7.830 -0.5010  0.4633  0.7558
 8219SOL    HW127289   0.524   0.762   7.779 -0.2870 -0.9730 -1.5105
 8219SOL    HW227290   0.405   0.683   7.829 -0.6455  2.2258  3.4092
 8220SOL     OW27291   8.861   7.670   2.055  0.4733 -0.1074 -0.4244
 8220SOL    HW127292   8.883   7.756   2.019  1.0789 -0.5746 -1.2084
 8220SOL    HW227293   8.789   7.687   2.117  1.5838  1.1696  0.5823
 8221SOL     OW27294   4.155   0.087   3.720 -0.0246  0.8269  0.2920
 8221SOL    HW127295   4.151   0.174   3.680  0.8127  1.2398  1.0776
 8221SOL    HW227296   4.151   0.103   3.814 -1.1625 -0.0829  0.4250
 8222SOL     OW27297   8.637  10.311   0.323 -0.2047 -0.3287  0.0100
 8222SOL    HW127298   8.645  10.405   0.334 -0.4367 -0.3947  0.7731
 8222SOL    HW227299   8.692  10.274   0.392  0.7735 -0.7637 -0.9544
 8223SOL     OW27300   6.769   8.623   2.219 -0.3003  0.2504 -0.0106
 8223SOL    HW127301   6.707   8.633   2.146  2.3987  0.1456 -2.4837
 8223SOL    HW227302   6.782   8.529   2.227  3.4865  0.2785 -3.3078
 8224SOL     OW27303   8.636   8.109   0.782  0.1045  0.1036 -0.3255
 8224SOL    HW127304   8.646   8.050   0.707  0.5584 -0.1211 -0.0952
 8224SOL    HW227305   8.686   8.067   0.852 -0.8995 -0.0521  0.3195
 8225SOL     OW27306   6.220   6.073   0.719 -0.4932  0.1465  0.2944
 8225SOL    HW127307   6.267   6.155   0.740 -0.3510  0.0700  0.2771
 8225SOL    HW227308   6.245   6.013   0.790  1.4375 -0.7021 -1.0254
 8226SOL     OW27309   2.324   2.914   0.565  0.0153  0.3154  0.2263
 8226SOL    HW127310   2.401   2.957   0.603  0.3340  1.9029 -2.0149
 8226SOL    HW227311   2.357   2.872   0.486 -1.0170 -1.0105  0.4724
 8227SOL     OW27312   7.107   7.918   1.544  0.5501  0.4339  0.3249
 8227SOL    HW127313   7.135   8.007   1.561 -0.1791  0.7660 -0.1567
 8227SOL    HW227314   7.025   7.927   1.494  1.8264 -0.4500 -2.1171
 8228SOL     OW27315   7.211   6.590  10.018  0.6700  1.0394  0.3019
 8228SOL    HW127316   7.177   6.503   9.998 -0.8123  1.6403  0.0461
 8228SOL    HW227317   7.248   6.582  10.106 -0.8254  0.4901  0.9248
 8229SOL     OW27318   1.694   2.617   1.370  0.3250 -0.1390  0.1285
 8229SOL    HW127319   1.645   2.604   1.452 -0.0235  0.6078  0.0461
 8229SOL    HW227320   1.771   2.561   1.379 -0.8411 -1.8529 -0.0025
 8230SOL     OW27321   7.822   5.249   8.498 -0.0942 -0.1327  0.4601
 8230SOL    HW127322   7.756   5.180   8.495  0.6216 -0.8133  0.1784
 8230SOL    HW227323   7.772   5.329   8.513 -1.0248 -0.5687 -0.2368
 8231SOL     OW27324   5.013   7.405   4.719  0.3894  0.5871 -0.2514
 8231SOL    HW127325   4.998   7.468   4.648 -1.1656  1.6249  0.9244
 8231SOL    HW227326   5.086   7.442   4.768 -1.4325  2.3929  1.2954
 8232SOL     OW27327   7.869   8.021   8.369 -0.0471  0.3754  0.1752
 8232SOL    HW127328   7.902   7.935   8.396 -0.3015 -0.2784 -1.4851
 8232SOL    HW227329   7.774   8.012   8.372 -0.0735  0.4158 -0.5460
 8233SOL     OW27330  10.168   2.509   5.928  0.0171 -0.0913 -0.2167
 8233SOL    HW127331  10.224   2.540   6.000 -0.8921  2.3015 -0.4441
 8233SOL    HW227332  10.079   2.524   5.959 -0.3906  1.5159 -1.9788
 8234SOL     OW27333   1.334   6.830   1.832  0.3255 -0.3163  0.2652
 8234SOL    HW127334   1.268   6.832   1.901  0.4119 -1.1618  0.3720
 8234SOL    HW227335   1.290   6.869   1.756 -0.4935 -1.3877  0.1719
 8235SOL     OW27336   4.652   6.394   5.970  0.1155 -0.0776  0.1144
 8235SOL    HW127337   4.627   6.302   5.972 -0.5413  0.0519 -1.0499
 8235SOL    HW227338   4.607   6.434   6.044 -1.3232 -0.3008 -0.6052
 8236SOL     OW27339   1.732   0.538   3.734 -0.1990  0.1932 -0.7799
 8236SOL    HW127340   1.767   0.625   3.716  0.7850 -0.1779 -0.7168
 8236SOL    HW227341   1.805   0.478   3.714  0.8314 -0.3444  3.5852
 8237SOL     OW27342  10.216   1.973  10.035  0.1984  0.1493 -0.5652
 8237SOL    HW127343  10.170   2.055  10.048 -0.9181 -0.4854 -0.3604
 8237SOL    HW227344  10.287   1.975  10.100 -0.1082  0.7384 -0.2388
 8238SOL     OW27345   8.646   1.607   4.905 -0.0796  0.3612  0.3909
 8238SOL    HW127346   8.606   1.684   4.865  0.4608  0.7759  0.6258
 8238SOL    HW227347   8.706   1.574   4.839  1.2148  1.3627  1.0137
 8239SOL     OW27348   3.103   3.321   8.382 -0.5799  0.9266 -0.3081
 8239SOL    HW127349   3.037   3.388   8.395 -0.8172  0.5807  0.3179
 8239SOL    HW227350   3.177   3.348   8.437 -1.1220  0.0885  0.8759
 8240SOL     OW27351   8.023   6.065   2.126  0.6790 -0.0737  0.2769
 8240SOL    HW127352   8.026   6.160   2.115 -0.6404 -0.0007  0.4283
 8240SOL    HW227353   8.069   6.049   2.208 -0.5285  0.6126  1.1165
 8241SOL     OW27354   8.601   2.348   7.833  0.1940 -0.2257  0.1464
 8241SOL    HW127355   8.671   2.371   7.894 -0.0522  0.9668  0.0142
 8241SOL    HW227356   8.540   2.421   7.839 -0.5319 -0.7675 -0.4949
 8242SOL     OW27357   2.611  10.239   5.735 -0.5119 -0.5242  0.5701
 8242SOL    HW127358   2.597  10.144   5.729 -1.4497 -0.4100  0.7566
 8242SOL    HW227359   2.661  10.261   5.656 -2.4569 -0.8104 -0.8180
 8243SOL     OW27360   2.463   1.299   8.205  0.5121  0.3503  0.1503
 8243SOL    HW127361   2.400   1.279   8.136  0.3468  0.5723  0.2378
 8243SOL    HW227362   2.548   1.292   8.161  0.4359 -0.0860  0.0671
 8244SOL     OW27363   4.045   7.325   8.514  1.1017  0.6171 -0.4098
 8244SOL    HW127364   4.094   7.245   8.493  1.9956  1.0215  0.0723
 8244SOL    HW227365   3.961   7.313   8.471  1.2924 -0.4994 -0.5195
 8245SOL     OW27366   1.736   0.536   2.570  0.1073  0.6886  0.4921
 8245SOL    HW127367   1.699   0.464   2.621  1.5901 -0.0141  0.6058
 8245SOL    HW227368   1.782   0.493   2.498  0.7071  1.5369  0.3556
 8246SOL     OW27369   2.480   0.656   8.085 -0.3871 -0.4416  0.7103
 8246SOL    HW127370   2.516   0.745   8.081  0.3770 -0.7766 -0.0066
 8246SOL    HW227371   2.415   0.653   8.015 -0.1318 -0.5759  0.4811
 8247SOL     OW27372   7.398   6.804   3.136 -0.1732  0.8133  0.2158
 8247SOL    HW127373   7.318   6.780   3.182 -0.3470 -0.1843 -0.5779
 8247SOL    HW227374   7.463   6.741   3.166  0.6009  2.1981  1.5831
 8248SOL     OW27375   9.325   3.994   2.495 -0.5065 -0.1291  0.2105
 8248SOL    HW127376   9.373   4.062   2.446 -0.3482 -1.1034 -1.0385
 8248SOL    HW227377   9.245   4.038   2.524  0.3592  1.0541  0.9035
 8249SOL     OW27378   2.179   7.746   2.626  0.3838  0.3212  0.1909
 8249SOL    HW127379   2.179   7.842   2.619  0.4183  0.3384  0.4146
 8249SOL    HW227380   2.154   7.716   2.539 -0.1311  0.5443  0.2563
 8250SOL     OW27381   4.062  10.159   0.185 -0.0260 -0.1978  0.7664
 8250SOL    HW127382   4.148  10.137   0.218 -0.5702 -3.0785  0.4952
 8250SOL    HW227383   4.001  10.129   0.252 -0.8926  0.1800  0.1773
 8251SOL     OW27384   5.627   7.914   2.614  0.0118 -0.3696 -0.0173
 8251SOL    HW127385   5.577   7.910   2.532 -0.4105 -0.4910  0.2401
 8251SOL    HW227386   5.699   7.852   2.602  0.0845 -0.2144 -0.3845
 8252SOL     OW27387   5.863   5.163   7.154  0.4074 -0.1090  0.1323
 8252SOL    HW127388   5.938   5.185   7.209 -0.5749  1.3439  0.9659
 8252SOL    HW227389   5.888   5.081   7.111  1.6880 -0.6947  1.8610
 8253SOL     OW27390   4.389   5.234   8.328  0.3127  0.2650 -0.3174
 8253SOL    HW127391   4.341   5.265   8.405 -2.3300 -2.3837 -0.7315
 8253SOL    HW227392   4.429   5.151   8.355  1.3266  0.4329 -1.1822
 8254SOL     OW27393   1.685   8.004   2.297  0.5305 -0.2725  0.5883
 8254SOL    HW127394   1.683   7.921   2.343 -3.2073 -0.1368  0.9398
 8254SOL    HW227395   1.660   8.069   2.363 -0.6881  0.5156 -0.5954
 8255SOL     OW27396   7.077   9.247   2.960 -0.0305  0.0798 -0.1960
 8255SOL    HW127397   6.992   9.272   2.924  0.1738  1.7113  0.4000
 8255SOL    HW227398   7.059   9.226   3.052  0.2329  0.6275 -0.0152
 8256SOL     OW27399   6.198   8.622   7.045  0.4639 -0.2856 -0.5827
 8256SOL    HW127400   6.159   8.537   7.063  1.9922 -0.9053 -0.0465
 8256SOL    HW227401   6.291   8.604   7.031  0.4944  1.0176 -2.5623
 8257SOL     OW27402   3.410   1.792   2.834 -0.1347  0.3061 -0.4734
 8257SOL    HW127403   3.338   1.812   2.773  0.8449  1.1255 -1.4215
 8257SOL    HW227404   3.434   1.877   2.870 -1.1776 -0.2583  1.6805
 8258SOL     OW27405   6.776   5.410   3.635 -0.5867 -0.4009 -0.2422
 8258SOL    HW127406   6.855   5.448   3.673 -0.7803 -0.4263  0.2045
 8258SOL    HW227407   6.749   5.472   3.568  0.5857 -1.0868 -1.3777
 8259SOL     OW27408   1.693   9.100   2.511  0.6665 -0.1287 -0.5443
 8259SOL    HW127409   1.730   9.165   2.451 -1.3516 -0.5224 -2.3479
 8259SOL    HW227410   1.687   9.020   2.458  0.5484 -1.0255  0.7857
 8260SOL     OW27411   9.222   6.754   7.008  0.5226 -0.4554  0.2046
 8260SOL    HW127412   9.301   6.708   7.035  0.8547 -1.5738 -2.3627
 8260SOL    HW227413   9.250   6.806   6.932 -0.7168  1.0285  0.7089
 8261SOL     OW27414   2.091   9.684  10.087 -0.0673 -0.0127 -0.2304
 8261SOL    HW127415   2.041   9.604  10.072 -1.6406  0.7005  0.9733
 8261SOL    HW227416   2.128   9.673  10.174  0.9918 -0.0364 -0.6578
 8262SOL     OW27417   9.713   0.561   0.425  0.0951 -0.1659 -0.5367
 8262SOL    HW127418   9.630   0.599   0.454 -0.8032 -1.9126 -0.6634
 8262SOL    HW227419   9.696   0.533   0.335  0.7523 -0.7487 -0.4829
 8263SOL     OW27420   8.147   4.890   5.523 -0.0077 -0.0898  0.1864
 8263SOL    HW127421   8.183   4.900   5.435  2.2261  0.1334  1.0695
 8263SOL    HW227422   8.132   4.980   5.552  2.3309  0.0428  1.1779
 8264SOL     OW27423   0.641   2.101   3.698  0.2928 -0.4609 -0.0782
 8264SOL    HW127424   0.625   2.006   3.692 -1.4227 -0.1797 -0.4741
 8264SOL    HW227425   0.554   2.140   3.688  0.9366  1.1546  0.4073
 8265SOL     OW27426   7.485   4.494   7.064 -0.5978  0.0556 -0.3952
 8265SOL    HW127427   7.405   4.542   7.084 -0.2987  0.2434  0.3701
 8265SOL    HW227428   7.458   4.402   7.061 -0.8709  0.1333 -0.3400
 8266SOL     OW27429   1.004   4.903   5.669  0.3023  0.6253  0.2525
 8266SOL    HW127430   0.967   4.834   5.724 -0.7155  0.6712 -0.3504
 8266SOL    HW227431   0.985   4.874   5.579  0.5987  1.2863 -0.0272
 8267SOL     OW27432   0.671   9.955   0.335  0.1195  0.5260  0.1012
 8267SOL    HW127433   0.624  10.030   0.299  0.9952  0.9648 -0.1545
 8267SOL    HW227434   0.684   9.897   0.260 -0.0873  0.3641  0.1895
 8268SOL     OW27435   3.330   3.069   8.453 -0.1208 -0.0926 -0.0923
 8268SOL    HW127436   3.414   3.024   8.466  0.3886  0.4484 -1.3149
 8268SOL    HW227437   3.289   3.069   8.539  1.0398 -0.5599  0.4844
 8269SOL     OW27438   8.689   0.654   3.114 -0.4098 -0.0570  0.0053
 8269SOL    HW127439   8.668   0.562   3.132 -0.4129 -0.4934 -2.0209
 8269SOL    HW227440   8.615   0.703   3.152 -1.0317 -0.9830  0.0134
 8270SOL     OW27441   2.761   7.083   7.759  0.3821 -0.5694  0.4472
 8270SOL    HW127442   2.789   7.142   7.829 -3.0447 -0.0028  1.5107
 8270SOL    HW227443   2.746   6.999   7.803 -2.6930  0.0292  0.7128
 8271SOL     OW27444   6.871   0.050   8.487  0.9980 -0.1032  0.5560
 8271SOL    HW127445   6.832   0.049   8.574  1.5613 -0.5534  0.8119
 8271SOL    HW227446   6.943  -0.013   8.493  0.0360 -1.3763 -0.7013
 8272SOL     OW27447   1.982   0.403   2.992  0.0710 -0.3387  0.0795
 8272SOL    HW127448   2.024   0.464   2.931  0.6063 -0.0888  0.6888
 8272SOL    HW227449   1.905   0.450   3.024  0.2170 -0.1672  0.1812
 8273SOL     OW27450   5.264   7.453   9.191  0.1076 -0.1714 -0.6142
 8273SOL    HW127451   5.247   7.489   9.104 -0.2804 -0.1966 -0.5491
 8273SOL    HW227452   5.178   7.426   9.223 -0.3867  3.1777  1.2919
 8274SOL     OW27453   1.970   1.470   0.310 -0.0717 -0.0105 -0.1214
 8274SOL    HW127454   1.967   1.470   0.215 -0.3499 -0.8852 -0.1183
 8274SOL    HW227455   1.892   1.421   0.337  0.1409  0.0039  0.5513
 8275SOL     OW27456  10.225   4.331   0.086  0.5741  0.1751 -0.0446
 8275SOL    HW127457  10.249   4.422   0.100 -0.6407  0.3008  1.6223
 8275SOL    HW227458  10.200   4.325  -0.006  1.3917  1.3426 -0.3463
 8276SOL     OW27459   5.165   0.903   0.733 -0.0812 -0.0825 -0.0522
 8276SOL    HW127460   5.165   0.949   0.649 -0.2661 -2.5824 -1.5177
 8276SOL    HW227461   5.072   0.891   0.755 -0.0358  0.3646  0.3960
 8277SOL     OW27462   5.577   2.796   2.244 -0.1591 -0.1883 -0.0985
 8277SOL    HW127463   5.571   2.891   2.255 -3.0990 -0.2706 -0.1966
 8277SOL    HW227464   5.669   2.776   2.258  0.8558  2.8422 -1.6011
 8278SOL     OW27465   0.895   3.823   8.396  0.5090  0.6449 -0.1311
 8278SOL    HW127466   0.919   3.894   8.456 -1.2418  1.8593 -0.7797
 8278SOL    HW227467   0.958   3.831   8.324  0.8847  0.9552  0.2270
 8279SOL     OW27468   1.557   7.578   8.929 -0.5332  0.0554 -0.3179
 8279SOL    HW127469   1.569   7.589   8.835 -1.0931 -0.9806 -0.5320
 8279SOL    HW227470   1.634   7.528   8.956 -1.6840 -2.1009 -0.7664
 8280SOL     OW27471   4.216   1.059   2.206 -1.2676 -0.1158  0.1734
 8280SOL    HW127472   4.206   1.102   2.121  2.2533 -1.5294 -1.1046
 8280SOL    HW227473   4.156   0.984   2.202 -1.5193  0.1235 -0.8285
 8281SOL     OW27474   0.167   3.356   8.822 -0.2635  0.1479 -0.4777
 8281SOL    HW127475   0.214   3.421   8.770 -0.2800  0.7752  0.2637
 8281SOL    HW227476   0.226   3.336   8.895  0.2448 -1.5747 -1.3097
 8282SOL     OW27477   6.447   3.727  10.039 -0.4943  0.5494 -0.1391
 8282SOL    HW127478   6.538   3.704  10.020 -0.5873 -1.1550  1.2148
 8282SOL    HW227479   6.432   3.808   9.991  1.7315  0.8572 -0.4217
 8283SOL     OW27480   9.055   8.716   9.767  0.2399  0.1642  0.0127
 8283SOL    HW127481   9.125   8.766   9.809  0.5549  0.5887 -0.9985
 8283SOL    HW227482   9.030   8.769   9.691 -0.3978 -0.5374 -0.2759
 8284SOL     OW27483   8.484   5.407   3.512 -0.0893 -0.3238 -0.0495
 8284SOL    HW127484   8.487   5.348   3.587  2.6844  1.4614  1.4006
 8284SOL    HW227485   8.463   5.492   3.550 -1.1031  0.1799 -1.6786
 8285SOL     OW27486   2.785   6.805   7.820  0.8106  0.0889  0.0111
 8285SOL    HW127487   2.880   6.804   7.814  0.7909  0.4587 -0.4495
 8285SOL    HW227488   2.755   6.781   7.733  0.4838  0.6517 -0.0355
 8286SOL     OW27489   4.554   2.410   0.330 -0.0406  0.1783  0.0102
 8286SOL    HW127490   4.614   2.351   0.284  0.8232 -1.1425  2.6555
 8286SOL    HW227491   4.609   2.457   0.392 -0.9412  2.9061 -1.1160
 8287SOL     OW27492   0.455   1.044   5.216  0.5019  0.1651  0.1502
 8287SOL    HW127493   0.394   1.089   5.158  0.3449 -0.1625  0.0582
 8287SOL    HW227494   0.435   0.951   5.205 -0.9887  0.1474  2.2664
 8288SOL     OW27495   1.440   5.423   2.371  0.5133 -0.6317  0.4600
 8288SOL    HW127496   1.512   5.477   2.338 -0.5550  0.2226 -0.5936
 8288SOL    HW227497   1.433   5.352   2.308 -0.8708  0.4390 -0.6646
 8289SOL     OW27498   3.336   2.163   5.079  0.0114  0.3461 -0.1722
 8289SOL    HW127499   3.276   2.112   5.025  1.4542 -1.0115 -0.5670
 8289SOL    HW227500   3.395   2.204   5.016 -0.1965  1.2788  0.2305
 8290SOL     OW27501   5.197   5.323   7.251 -0.6146 -0.1344 -0.5321
 8290SOL    HW127502   5.202   5.419   7.245 -3.1733  0.1423  0.4273
 8290SOL    HW227503   5.263   5.292   7.189  1.3733  2.2091  0.2422
 8291SOL     OW27504   9.457   7.539   8.842 -0.4787  0.4815 -0.4311
 8291SOL    HW127505   9.395   7.565   8.773  0.5586  1.2222 -1.1110
 8291SOL    HW227506   9.432   7.591   8.918 -3.0814 -1.9467  0.5529
 8292SOL     OW27507   2.917   4.863   9.534 -0.6750  0.2676 -0.3862
 8292SOL    HW127508   2.973   4.878   9.458  0.4033 -0.6747  0.2016
 8292SOL    HW227509   2.929   4.770   9.555 -1.1536  0.4493  0.7869
 8293SOL     OW27510   8.796   9.129   2.326 -0.6302  0.0384 -0.1628
 8293SOL    HW127511   8.850   9.152   2.402 -1.1248 -0.9596  0.5161
 8293SOL    HW227512   8.799   9.207   2.270  1.5933 -0.0093 -0.2074
 8294SOL     OW27513   8.478   6.561   2.181  0.2502  0.4144  0.5414
 8294SOL    HW127514   8.529   6.522   2.110  0.8589  0.5602  0.8894
 8294SOL    HW227515   8.533   6.552   2.259 -0.5212  0.0205  1.0557
 8295SOL     OW27516   5.581   4.539   8.721 -0.2088 -0.2070  0.2495
 8295SOL    HW127517   5.667   4.500   8.703  0.8730  2.6670 -1.4704
 8295SOL    HW227518   5.519   4.469   8.700  1.5930 -1.1714 -2.4558
 8296SOL     OW27519   1.377   7.255   6.438  0.1019 -0.1165 -0.2565
 8296SOL    HW127520   1.308   7.191   6.417  1.3214 -1.8091  0.6486
 8296SOL    HW227521   1.330   7.327   6.480 -1.2930 -0.5267 -1.0400
 8297SOL     OW27522   6.426   2.745   7.620 -0.0357  0.4805  0.2327
 8297SOL    HW127523   6.427   2.712   7.530 -1.0542 -0.1857  0.4447
 8297SOL    HW227524   6.337   2.727   7.651  0.5540 -0.1605  1.6794
 8298SOL     OW27525   7.295   5.617   5.049 -0.5848  0.0367  0.2550
 8298SOL    HW127526   7.275   5.698   5.097  0.2545  0.0294  0.6230
 8298SOL    HW227527   7.351   5.567   5.107 -0.0360 -0.2371 -0.4927
 8299SOL     OW27528   9.544   1.758   5.715  0.5360  0.3499 -0.5453
 8299SOL    HW127529   9.589   1.842   5.721 -0.1350  0.8494 -2.0668
 8299SOL    HW227530   9.472   1.773   5.654  0.0969 -1.1972 -0.4533
 8300SOL     OW27531   6.689   2.233   7.646 -0.0569  0.2009 -0.3278
 8300SOL    HW127532   6.651   2.189   7.722 -1.2317 -0.4273 -1.2455
 8300SOL    HW227533   6.691   2.326   7.670  0.5729 -0.0990  0.8579
 8301SOL     OW27534  10.161   3.618   1.237 -0.1706 -0.0922 -0.2540
 8301SOL    HW127535  10.124   3.535   1.208 -0.1626 -0.3863  0.5588
 8301SOL    HW227536  10.099   3.651   1.302 -0.5576  0.9141 -1.1094
 8302SOL     OW27537   2.374   8.730   8.422  0.0508 -0.3007  0.3007
 8302SOL    HW127538   2.302   8.689   8.373 -0.1861 -0.0078  0.3953
 8302SOL    HW227539   2.450   8.675   8.404  0.0450 -0.0157 -0.6606
 8303SOL     OW27540   9.549   6.975   7.863  0.1840 -0.1139 -0.0018
 8303SOL    HW127541   9.633   7.004   7.899  0.1201 -0.8696  0.7572
 8303SOL    HW227542   9.547   7.014   7.775  0.7311  1.0005  0.4593
 8304SOL     OW27543   4.286   6.303   7.990  0.3804  0.8218 -0.3952
 8304SOL    HW127544   4.320   6.349   8.066  1.5446 -1.5677  0.6483
 8304SOL    HW227545   4.193   6.323   7.989  0.4473  1.3744  1.3230
 8305SOL     OW27546   0.933   3.070   7.863 -0.3402 -0.2734 -0.3463
 8305SOL    HW127547   0.964   3.160   7.852 -2.4919  1.0946  3.2592
 8305SOL    HW227548   0.972   3.041   7.945 -0.4094 -2.3451 -1.0033
 8306SOL     OW27549   9.233   4.183   1.401  0.7213  0.2948 -0.0283
 8306SOL    HW127550   9.253   4.256   1.458  0.7165  1.3207 -1.2932
 8306SOL    HW227551   9.283   4.110   1.437 -0.1153  0.6056  1.8987
 8307SOL     OW27552   3.559   6.127   9.891  0.8936 -0.3726  0.3618
 8307SOL    HW127553   3.519   6.044   9.865  2.1310 -1.2431  1.1381
 8307SOL    HW227554   3.485   6.186   9.904  0.0469 -0.9205 -1.5883
 8308SOL     OW27555   9.169   1.966   1.686  0.2273 -0.2751 -0.1492
 8308SOL    HW127556   9.125   2.005   1.610 -0.5029  0.1970  0.5055
 8308SOL    HW227557   9.244   1.919   1.648 -0.1074 -0.0296 -1.1575
 8309SOL     OW27558   8.609   3.601   6.981  0.0296  0.0312 -0.4176
 8309SOL    HW127559   8.573   3.673   6.929  0.5997  1.4984  1.1288
 8309SOL    HW227560   8.591   3.626   7.072  4.4221  0.6901  0.4887
 8310SOL     OW27561   7.512   2.005   7.342  0.7935  0.4469 -0.7087
 8310SOL    HW127562   7.485   1.988   7.433  1.2178  3.3214  0.0415
 8310SOL    HW227563   7.448   2.068   7.309  1.8980  1.1146 -1.6430
 8311SOL     OW27564   0.368   1.196   4.748 -0.5808  0.3460  0.3545
 8311SOL    HW127565   0.288   1.169   4.702  0.2623 -0.7584 -0.5063
 8311SOL    HW227566   0.418   1.245   4.683  0.1558 -0.3390  0.3962
 8312SOL     OW27567   9.965   1.172   8.453 -0.2234 -0.3114  0.6800
 8312SOL    HW127568   9.939   1.259   8.483  0.3792  0.2745 -0.4620
 8312SOL    HW227569  10.034   1.188   8.388 -0.6562 -1.5924 -0.1257
 8313SOL     OW27570   9.259   8.969   5.185 -0.1493  0.4476  0.0877
 8313SOL    HW127571   9.264   8.880   5.220  1.8451 -0.1860 -1.6751
 8313SOL    HW227572   9.347   8.988   5.153 -0.1408  3.5782  1.5340
 8314SOL     OW27573   1.942   4.105   8.066 -0.2343  0.1299 -0.0161
 8314SOL    HW127574   2.000   4.095   7.991  1.4144 -0.5841  1.2745
 8314SOL    HW227575   1.870   4.044   8.049 -0.0163  0.1511 -1.1052
 8315SOL     OW27576   7.985   6.838   8.634 -0.0757 -0.1523  0.0856
 8315SOL    HW127577   8.030   6.869   8.555  0.1608  0.6204  0.5067
 8315SOL    HW227578   7.908   6.791   8.602  0.3991 -0.4522 -0.6188
 8316SOL     OW27579   9.109   6.577   0.436  0.2318 -0.7633 -0.4054
 8316SOL    HW127580   9.050   6.559   0.509 -0.5952  1.2460 -0.5149
 8316SOL    HW227581   9.067   6.537   0.360 -0.9200  0.4303 -0.4349
 8317SOL     OW27582   7.211   1.129   9.437 -0.1412  0.4286  0.0437
 8317SOL    HW127583   7.119   1.109   9.457  0.2450 -0.7834  0.6933
 8317SOL    HW227584   7.210   1.152   9.344 -1.0843  0.2712  0.0058
 8318SOL     OW27585   1.953   1.406   2.091  0.9731 -0.1536  0.1225
 8318SOL    HW127586   1.895   1.428   2.164 -0.1499 -0.2990 -0.6986
 8318SOL    HW227587   1.975   1.491   2.051  3.4741  0.1835  1.9366
 8319SOL     OW27588   0.245   2.844   6.128  0.5259 -0.4964 -0.3754
 8319SOL    HW127589   0.323   2.893   6.100  1.4205 -0.8168  1.4282
 8319SOL    HW227590   0.175   2.910   6.129  0.9200 -0.0430 -1.3212
 8320SOL     OW27591   3.018   1.434   9.503  0.2047 -0.1947  0.3024
 8320SOL    HW127592   3.037   1.429   9.409 -2.3983  0.4489 -0.3479
 8320SOL    HW227593   3.002   1.343   9.529  4.9181 -1.0366  1.2530
 8321SOL     OW27594   4.580   4.636  10.291 -0.7501 -0.2803  0.2386
 8321SOL    HW127595   4.564   4.728  10.310 -1.3761 -0.2083 -0.6100
 8321SOL    HW227596   4.629   4.636  10.208 -0.9446 -0.7200  0.1203
 8322SOL     OW27597   9.961   9.481   8.268 -1.0812  0.3683  0.3249
 8322SOL    HW127598  10.042   9.514   8.229 -0.5072 -1.4254 -0.1269
 8322SOL    HW227599   9.969   9.500   8.361  0.3629 -0.7068  0.4474
 8323SOL     OW27600   1.933   4.322   1.598  0.0392 -0.0243 -0.2067
 8323SOL    HW127601   1.984   4.392   1.557  1.7263  0.2277  2.0943
 8323SOL    HW227602   1.907   4.357   1.683 -2.2953 -0.9252 -0.4706
 8324SOL     OW27603   4.153   1.106   8.693 -0.0327 -0.4019 -0.0207
 8324SOL    HW127604   4.201   1.028   8.718 -0.1117 -0.7960 -1.0492
 8324SOL    HW227605   4.220   1.172   8.676  0.0068  0.0675  1.7551
 8325SOL     OW27606   5.767   5.287   1.342 -1.1189 -0.0979  0.0173
 8325SOL    HW127607   5.806   5.374   1.337 -3.0727  0.7413 -2.4252
 8325SOL    HW227608   5.840   5.227   1.327 -0.0276  1.1749  0.0931
 8326SOL     OW27609   3.800  10.003   6.655  0.3058 -0.8494 -0.5994
 8326SOL    HW127610   3.726   9.952   6.688 -1.0648  1.2488 -0.1689
 8326SOL    HW227611   3.867   9.994   6.722  0.3341 -2.5194 -0.8275
 8327SOL     OW27612   2.593  10.174   3.056 -0.2016  0.1450  0.1547
 8327SOL    HW127613   2.661  10.194   2.992  0.5912 -0.3314  0.8339
 8327SOL    HW227614   2.534  10.114   3.010 -0.0515  0.3898 -0.3663
 8328SOL     OW27615   1.947   6.196   7.110 -0.5710 -0.6165  0.4530
 8328SOL    HW127616   2.041   6.191   7.099 -0.2713  2.8435  0.4236
 8328SOL    HW227617   1.932   6.277   7.160 -3.5170 -1.0773  0.5454
 8329SOL     OW27618   2.732   3.079   2.886  0.3850  0.5780  0.1379
 8329SOL    HW127619   2.685   3.128   2.818 -0.3884  2.2829  1.8233
 8329SOL    HW227620   2.758   3.145   2.950  2.1796 -0.8067  0.9333
 8330SOL     OW27621   6.181   8.832   4.916  0.2142 -0.2055  1.0523
 8330SOL    HW127622   6.151   8.751   4.957  0.0204 -0.7969 -0.2231
 8330SOL    HW227623   6.115   8.852   4.851  0.3555  0.8957  1.2318
 8331SOL     OW27624  10.269   8.367   6.153  0.1748  0.2832  0.2923
 8331SOL    HW127625  10.207   8.411   6.095  1.1464  1.1249 -0.1515
 8331SOL    HW227626  10.346   8.424   6.153  2.8339 -2.8203 -2.8822
 8332SOL     OW27627   0.318   7.730   7.952 -0.2050  0.1425  0.0249
 8332SOL    HW127628   0.386   7.688   8.004  1.6453  0.2411 -2.1965
 8332SOL    HW227629   0.241   7.673   7.963  0.5166 -0.5740  1.6861
 8333SOL     OW27630   9.374   4.731   3.718  0.1834  0.1497 -0.0032
 8333SOL    HW127631   9.392   4.637   3.716  1.4084  0.2816  1.7163
 8333SOL    HW227632   9.295   4.739   3.771  0.9640  0.1253  1.2297
 8334SOL     OW27633   0.873   8.349   0.421  0.6011  0.0200 -0.1948
 8334SOL    HW127634   0.954   8.352   0.371  0.6795  1.0929 -0.0340
 8334SOL    HW227635   0.895   8.300   0.501  0.9116 -0.2535 -0.4455
 8335SOL     OW27636   0.736   0.739   9.495  0.4566  0.0384 -0.0959
 8335SOL    HW127637   0.706   0.759   9.584 -1.0501  1.6664 -0.9249
 8335SOL    HW227638   0.688   0.659   9.472  0.4575 -0.0957  0.3475
 8336SOL     OW27639  10.226  10.058   6.203  0.2744  0.6106  0.5594
 8336SOL    HW127640  10.184  10.021   6.281 -2.2795 -1.3422 -1.5584
 8336SOL    HW227641  10.318  10.034   6.213 -0.3055 -1.3788  2.0691
 8337SOL     OW27642   5.149   3.914   2.315 -0.2440  0.3257 -0.1525
 8337SOL    HW127643   5.056   3.897   2.330 -0.4724  0.9314 -0.8198
 8337SOL    HW227644   5.191   3.829   2.331 -1.0413 -0.2310 -0.8932
 8338SOL     OW27645   3.302   2.660   7.765  0.6235  0.2541  0.0499
 8338SOL    HW127646   3.245   2.703   7.701 -0.4037  0.0345  0.7728
 8338SOL    HW227647   3.378   2.717   7.772 -0.4440  1.6709  0.5546
 8339SOL     OW27648   0.605   9.504   6.875 -0.2900  0.2499 -0.1989
 8339SOL    HW127649   0.621   9.417   6.837  0.6019  0.8029 -1.1449
 8339SOL    HW227650   0.560   9.552   6.806  0.2409  0.8875 -0.1107
 8340SOL     OW27651   9.452   5.966   6.957  0.1011 -0.1164 -0.0800
 8340SOL    HW127652   9.412   5.989   6.873 -0.6032  1.5355  0.6527
 8340SOL    HW227653   9.542   6.000   6.951 -0.9465  3.3178  1.0163
 8341SOL     OW27654   8.764   4.328   4.735  0.2216 -0.5088  0.5724
 8341SOL    HW127655   8.683   4.366   4.769 -0.9767  1.2186 -3.5893
 8341SOL    HW227656   8.833   4.389   4.762 -0.3043 -0.3606  1.6093
 8342SOL     OW27657   6.244   4.976   9.324 -0.3494  0.4443 -0.0477
 8342SOL    HW127658   6.264   5.041   9.256 -0.5318  0.1159 -0.4192
 8342SOL    HW227659   6.155   4.996   9.350  0.0089  1.1043  0.7028
 8343SOL     OW27660  10.020   3.980   2.492 -0.4917 -0.1011  0.5802
 8343SOL    HW127661   9.934   3.946   2.514 -0.5516  1.0103  2.1664
 8343SOL    HW227662  10.052   4.022   2.572  0.7972  1.0053 -0.4486
 8344SOL     OW27663   6.678   2.709   8.484 -0.1584  0.1756 -0.1769
 8344SOL    HW127664   6.635   2.654   8.419 -0.0351 -0.5473  0.3478
 8344SOL    HW227665   6.671   2.661   8.566  1.4546  0.1221 -0.0272
 8345SOL     OW27666   7.562   7.988   1.987  0.1984 -0.4447 -0.4073
 8345SOL    HW127667   7.521   7.958   2.068  1.8096 -2.0717 -0.1092
 8345SOL    HW227668   7.495   7.977   1.920 -0.5777 -0.8026  0.4104
 8346SOL     OW27669   1.799   5.563   4.670 -0.2109  0.4591  0.1098
 8346SOL    HW127670   1.711   5.584   4.637 -0.4246  0.7485  0.8472
 8346SOL    HW227671   1.784   5.516   4.752  0.3257  0.4011  0.1801
 8347SOL     OW27672   1.714   6.596   3.781  0.1497  0.5290  0.3221
 8347SOL    HW127673   1.696   6.614   3.873  0.4356  1.1705  0.2571
 8347SOL    HW227674   1.778   6.524   3.782  0.9120  1.2023  0.6510
 8348SOL     OW27675   6.790   6.383   5.531  0.2552 -0.1889 -0.3106
 8348SOL    HW127676   6.825   6.393   5.619 -1.0330 -1.4866  0.3927
 8348SOL    HW227677   6.844   6.440   5.477  2.1085 -0.6036  1.0319
 8349SOL     OW27678   6.242   9.452   7.017 -0.4478  0.1159 -0.7708
 8349SOL    HW127679   6.197   9.411   7.090 -1.1744  1.3909 -0.4695
 8349SOL    HW227680   6.334   9.457   7.045 -0.2171 -1.8283 -1.0874
 8350SOL     OW27681   9.321   6.420   5.425  0.1716  0.2002  0.3466
 8350SOL    HW127682   9.370   6.471   5.360 -1.0797  1.2109  0.1427
 8350SOL    HW227683   9.387   6.390   5.487  1.2846 -0.1319 -0.9761
 8351SOL     OW27684   6.556   2.094   9.479  0.4209  0.6551 -0.1833
 8351SOL    HW127685   6.616   2.108   9.552  0.5618  1.5280 -0.4485
 8351SOL    HW227686   6.487   2.160   9.491  0.3779  0.7262 -0.7559
 8352SOL     OW27687   0.053   0.198   2.868 -0.6025  0.4726 -0.4526
 8352SOL    HW127688   0.137   0.153   2.868 -0.6895  0.2973 -1.1398
 8352SOL    HW227689  -0.003   0.145   2.811 -0.8902  1.1039 -0.7769
 8353SOL     OW27690   8.008   7.101   5.711 -0.2837 -0.0126 -0.2240
 8353SOL    HW127691   8.084   7.093   5.768  1.0996 -0.5614 -2.0533
 8353SOL    HW227692   7.978   7.192   5.723 -0.4650 -0.3073  1.8143
 8354SOL     OW27693   0.653   0.299  10.157 -0.3560 -0.1493 -0.2516
 8354SOL    HW127694   0.657   0.206  10.136 -0.5350 -0.1611 -0.2361
 8354SOL    HW227695   0.745   0.327  10.161 -0.2562 -0.6081  1.0149
 8355SOL     OW27696   4.879   4.629   5.997  0.2725  0.2163  0.3675
 8355SOL    HW127697   4.926   4.712   6.004  1.3378 -0.2076 -1.3266
 8355SOL    HW227698   4.804   4.648   5.941  0.1399  0.1728  0.5272
 8356SOL     OW27699   6.112   0.126   4.652  0.1095 -0.1064 -0.7707
 8356SOL    HW127700   6.148   0.210   4.625 -0.0972 -0.1436 -1.1606
 8356SOL    HW227701   6.085   0.140   4.743 -2.1379  0.9841 -1.5337
 8357SOL     OW27702   8.712  10.140   4.421 -0.1637  0.0183 -0.1932
 8357SOL    HW127703   8.766  10.136   4.499  1.0838 -2.4883 -1.0838
 8357SOL    HW227704   8.773  10.162   4.350 -0.6821 -0.7032 -0.8876
 8358SOL     OW27705   3.198   4.887   3.991 -0.2333  0.0733  0.4492
 8358SOL    HW127706   3.111   4.874   3.953  0.7937 -1.3534 -1.5905
 8358SOL    HW227707   3.182   4.931   4.074 -2.9295 -0.6527  0.3827
 8359SOL     OW27708   9.164   1.531   7.776 -0.3185 -0.1365  0.3884
 8359SOL    HW127709   9.146   1.592   7.704  0.1986 -1.6184 -1.0579
 8359SOL    HW227710   9.256   1.507   7.764  1.1742  2.7254  4.0741
 8360SOL     OW27711   6.095   7.292   5.779 -0.3105 -0.1208 -0.4195
 8360SOL    HW127712   6.074   7.227   5.846 -0.5811  2.1508  1.8817
 8360SOL    HW227713   6.031   7.362   5.794  0.3276  0.9458 -2.3917
 8361SOL     OW27714   9.401   6.820   6.534  0.1486  0.0799 -0.3893
 8361SOL    HW127715   9.476   6.828   6.475  0.8350  0.4259  0.5058
 8361SOL    HW227716   9.403   6.728   6.563  1.5911  0.6120  1.3528
 8362SOL     OW27717   3.293   2.402   1.542 -0.2899 -0.1943  0.6501
 8362SOL    HW127718   3.203   2.433   1.552 -0.5605 -0.9753  0.6711
 8362SOL    HW227719   3.326   2.396   1.632 -0.5936 -0.9821  0.7185
 8363SOL     OW27720   6.654   6.128   5.525 -0.9040  0.0426  0.0507
 8363SOL    HW127721   6.704   6.048   5.539 -0.2373  0.4524  0.0509
 8363SOL    HW227722   6.719   6.198   5.528 -1.4450  0.5672 -0.1812
 8364SOL     OW27723   4.182   6.071   2.614  0.5847  0.3235  0.3759
 8364SOL    HW127724   4.142   6.008   2.554  0.3477 -1.6893  2.5408
 8364SOL    HW227725   4.264   6.096   2.570 -0.3337  0.1848 -1.5081
 8365SOL     OW27726   1.235   7.290   2.701  0.4727 -0.6395  0.2495
 8365SOL    HW127727   1.324   7.268   2.728  1.7430  1.5907 -1.7106
 8365SOL    HW227728   1.227   7.252   2.614  0.4801  1.2111 -0.6090
 8366SOL     OW27729   3.417   6.071   1.326  0.0602 -0.2877  0.1968
 8366SOL    HW127730   3.365   6.140   1.366 -0.4028 -0.0084 -0.8675
 8366SOL    HW227731   3.358   5.996   1.322  0.1208 -0.3285  0.0723
 8367SOL     OW27732   6.950   6.869   7.056 -0.2209 -0.4168  0.3301
 8367SOL    HW127733   6.914   6.841   6.972 -0.1533  0.6091 -0.0464
 8367SOL    HW227734   6.907   6.813   7.121 -1.3770 -0.2107 -0.2482
 8368SOL     OW27735   0.163   0.864   4.522 -0.1669 -0.0638  0.4053
 8368SOL    HW127736   0.165   0.820   4.438  0.9320  0.1121  0.3183
 8368SOL    HW227737   0.146   0.795   4.586 -1.2010 -0.1654  0.0358
 8369SOL     OW27738   4.167   0.031  10.219 -0.1905  0.1689  0.4361
 8369SOL    HW127739   4.181   0.079  10.301 -2.4982  0.9747  0.4243
 8369SOL    HW227740   4.165  -0.061  10.245  4.6999 -0.1955  0.4083
 8370SOL     OW27741   5.845   5.366  10.233  0.2609  0.8217 -0.1415
 8370SOL    HW127742   5.906   5.433  10.264 -1.5112  2.5101 -0.1508
 8370SOL    HW227743   5.847   5.375  10.137  0.9719 -0.0445 -0.2200
 8371SOL     OW27744   4.158   8.462   5.137 -0.2311  0.1963  0.8891
 8371SOL    HW127745   4.226   8.512   5.182  0.1099  1.4124 -0.8630
 8371SOL    HW227746   4.076   8.498   5.169 -0.0125  0.4008  1.2234
 8372SOL     OW27747   7.799   1.595   3.724 -0.4489  0.0979  0.0435
 8372SOL    HW127748   7.779   1.555   3.809 -0.6027 -0.1026 -0.0856
 8372SOL    HW227749   7.770   1.686   3.733  2.9839  1.2075  1.5236
 8373SOL     OW27750   4.888   3.480   6.430 -0.2260  0.2121  0.4155
 8373SOL    HW127751   4.916   3.504   6.342 -0.0687 -1.1930  0.0536
 8373SOL    HW227752   4.942   3.403   6.452 -1.7045 -0.7246  0.8904
 8374SOL     OW27753   3.963   5.629   9.777  0.3273  0.7395  0.7260
 8374SOL    HW127754   4.026   5.701   9.768 -0.2008  1.2987  1.3765
 8374SOL    HW227755   3.902   5.641   9.704  2.0767 -1.0007 -1.1597
 8375SOL     OW27756   1.725   3.922   6.699 -0.2580 -0.1445 -0.0687
 8375SOL    HW127757   1.645   3.886   6.737 -0.3145  0.3821  0.3267
 8375SOL    HW227758   1.696   4.004   6.657  0.1347  0.2244  0.3812
 8376SOL     OW27759   7.423   0.912   1.105  0.1479 -0.6896  0.3886
 8376SOL    HW127760   7.397   0.992   1.149  0.1550 -0.9361  0.8401
 8376SOL    HW227761   7.429   0.846   1.174  0.1835 -1.0718  0.0298
 8377SOL     OW27762   0.051   7.481   8.425  0.1398  1.2367  0.6207
 8377SOL    HW127763   0.106   7.426   8.480  0.1435  1.1660  0.5462
 8377SOL    HW227764   0.036   7.560   8.477  0.1384  1.1672  0.7258
 8378SOL     OW27765   0.933   8.895   6.714  0.4060 -0.2032 -0.5058
 8378SOL    HW127766   0.945   8.847   6.796  1.8824  0.9083 -0.0321
 8378SOL    HW227767   0.929   8.987   6.740 -0.9415  0.0570 -1.5322
 8379SOL     OW27768   1.584   2.733   6.428  0.2947  0.1048  0.6099
 8379SOL    HW127769   1.585   2.688   6.512 -0.5108 -1.1289 -0.0047
 8379SOL    HW227770   1.674   2.726   6.396  0.1946 -1.0662  0.5422
 8380SOL     OW27771   5.349   6.861   7.040 -0.1109 -0.0710 -0.1165
 8380SOL    HW127772   5.261   6.858   7.077 -0.5376  0.4239 -1.0634
 8380SOL    HW227773   5.338   6.832   6.949  0.9860 -1.6903  0.2300
 8381SOL     OW27774   7.838   2.035   9.939 -0.2594 -0.1509 -0.2427
 8381SOL    HW127775   7.798   2.057   9.854  0.8879  1.3193 -0.4544
 8381SOL    HW227776   7.871   2.119   9.971 -2.1396 -0.3188  2.5039
 8382SOL     OW27777   1.142   0.585   8.394  0.3060 -0.2764 -0.1179
 8382SOL    HW127778   1.166   0.519   8.329  0.6038 -0.0735 -0.2119
 8382SOL    HW227779   1.224   0.627   8.418  0.1008  0.1410 -0.1419
 8383SOL     OW27780   3.763   4.789   3.031  0.2607  0.1041  0.6107
 8383SOL    HW127781   3.815   4.863   3.061  1.4770 -0.2824 -0.4682
 8383SOL    HW227782   3.714   4.761   3.108  0.8077  1.1829  1.3649
 8384SOL     OW27783   0.476   6.884   5.434  0.0273 -0.0835 -0.5591
 8384SOL    HW127784   0.384   6.902   5.414  0.0729  0.5110 -0.2532
 8384SOL    HW227785   0.482   6.896   5.529  0.2768 -0.7860 -0.4793
 8385SOL     OW27786   9.112   5.888   6.448  0.6933 -0.0694  0.0380
 8385SOL    HW127787   9.038   5.828   6.456 -0.2346  1.2017  1.4388
 8385SOL    HW227788   9.089   5.946   6.376  0.8525 -0.3951 -0.2743
 8386SOL     OW27789   5.132   2.831   4.674 -0.0019  0.0259 -0.8136
 8386SOL    HW127790   5.202   2.864   4.730  1.6885 -0.9077 -2.2855
 8386SOL    HW227791   5.057   2.886   4.695  0.8258  0.3671  1.6064
 8387SOL     OW27792   3.106   3.978   9.562 -0.1549 -0.3293  0.2721
 8387SOL    HW127793   3.083   3.987   9.470  0.3944  2.2171  0.3271
 8387SOL    HW227794   3.039   4.027   9.609  0.7688  0.2101  1.0515
 8388SOL     OW27795   6.026   4.546   0.852  0.3051  0.2757 -0.3795
 8388SOL    HW127796   5.984   4.602   0.918  1.0652  0.2579  0.1341
 8388SOL    HW227797   5.954   4.512   0.799 -0.2132  1.2907 -0.3415
 8389SOL     OW27798   9.064   5.622   5.548 -0.3187  0.0785 -0.6038
 8389SOL    HW127799   8.988   5.566   5.529 -0.5978  0.6313 -1.1593
 8389SOL    HW227800   9.118   5.570   5.607 -0.7838 -0.6083 -0.7727
 8390SOL     OW27801   9.923   7.736   5.021  0.3099  0.5799  0.0004
 8390SOL    HW127802   9.840   7.697   5.050  1.0488 -1.6281 -0.5988
 8390SOL    HW227803   9.910   7.753   4.928  0.3296  0.8314  0.0430
 8391SOL     OW27804   9.684   2.119   8.475 -0.2305 -0.5134 -0.0792
 8391SOL    HW127805   9.778   2.108   8.491 -0.4528 -0.1682  1.7282
 8391SOL    HW227806   9.650   2.030   8.469  0.2940 -0.6430 -1.4911
 8392SOL     OW27807   1.472   8.934   1.339  0.1609  0.4150  0.1170
 8392SOL    HW127808   1.432   8.849   1.356  0.7573  0.1673  0.3084
 8392SOL    HW227809   1.399   8.995   1.335 -0.1238  0.2257  1.9479
 8393SOL     OW27810   4.803   6.545   9.222  0.8972 -0.7446  0.0230
 8393SOL    HW127811   4.714   6.547   9.257  0.4503  0.0361 -1.0984
 8393SOL    HW227812   4.820   6.453   9.204 -0.1707 -0.7718 -0.9150
 8394SOL     OW27813   6.585   6.780   9.795  0.5842 -0.0556 -0.8630
 8394SOL    HW127814   6.638   6.847   9.837  0.9434 -0.6013 -0.4349
 8394SOL    HW227815   6.646   6.708   9.778  0.4403  0.1330 -2.2851
 8395SOL     OW27816   2.920   8.611   6.192  0.4683 -0.3029  0.2023
 8395SOL    HW127817   2.967   8.685   6.230  1.3640 -0.3143 -0.8267
 8395SOL    HW227818   2.827   8.634   6.202  0.6829  0.0793  1.5621
 8396SOL     OW27819   9.066   9.823  10.142 -0.1255 -0.3773 -0.1781
 8396SOL    HW127820   9.083   9.752  10.080  0.4587  0.8412 -1.4945
 8396SOL    HW227821   8.971   9.823  10.153 -0.1818 -1.0128 -0.6231
 8397SOL     OW27822   0.929   9.144   7.945  0.4092  1.1511  0.0328
 8397SOL    HW127823   0.985   9.215   7.976  0.6620  0.6399  0.7687
 8397SOL    HW227824   0.946   9.072   8.005 -0.3870  0.7026 -0.2651
 8398SOL     OW27825   7.606   8.448   4.903  0.2710  0.0332 -0.1758
 8398SOL    HW127826   7.548   8.390   4.951  0.4177 -0.0078 -0.0485
 8398SOL    HW227827   7.572   8.536   4.920 -0.8972 -0.0965 -1.6282
 8399SOL     OW27828   1.769   3.667   6.190  0.1134  0.5237 -0.1992
 8399SOL    HW127829   1.824   3.719   6.248 -0.7265  0.1328  1.0069
 8399SOL    HW227830   1.746   3.726   6.119  0.8614  1.1413  0.0595
 8400SOL     OW27831   2.115   7.543   9.207 -0.0515  0.1273  0.9437
 8400SOL    HW127832   2.182   7.607   9.232 -0.4344  0.9451 -0.0372
 8400SOL    HW227833   2.163   7.476   9.159 -0.1546  1.8827 -1.8431
 8401SOL     OW27834   5.702   0.036  10.055 -0.1095  0.0086  0.4735
 8401SOL    HW127835   5.713   0.112  10.111  0.9889  1.3527 -1.4545
 8401SOL    HW227836   5.609   0.037  10.030  0.2642  1.9141 -1.0630
 8402SOL     OW27837   3.341   6.625   0.775 -0.1360  0.4312  0.5695
 8402SOL    HW127838   3.408   6.671   0.724 -1.0665  0.0872 -1.0307
 8402SOL    HW227839   3.391   6.569   0.834  0.9980  0.9929  0.1846
 8403SOL     OW27840   8.286   1.178   2.961  0.0065  0.3924  0.1689
 8403SOL    HW127841   8.308   1.244   3.027 -0.5652 -0.0442  0.8103
 8403SOL    HW227842   8.371   1.153   2.924  0.3119  0.8399  0.5445
 8404SOL     OW27843   0.094   0.486   0.304 -0.3035 -0.1903  0.0170
 8404SOL    HW127844   0.050   0.522   0.226  0.0932  0.1269 -0.0668
 8404SOL    HW227845   0.024   0.447   0.355 -0.5879 -0.2973 -0.4450
 8405SOL     OW27846   7.057   5.186   6.847 -0.1560 -0.2507 -0.1626
 8405SOL    HW127847   7.111   5.260   6.821 -1.0686 -0.0284 -1.5062
 8405SOL    HW227848   7.112   5.109   6.832  0.5751  0.0982  0.6564
 8406SOL     OW27849   7.757   6.659   9.178 -0.8821 -0.2940  0.0488
 8406SOL    HW127850   7.729   6.622   9.094 -1.0314 -1.5355  0.6287
 8406SOL    HW227851   7.726   6.597   9.244  0.9350 -0.3721  0.8897
 8407SOL     OW27852   0.783   7.378   6.607 -0.0265  0.2712  0.1775
 8407SOL    HW127853   0.790   7.295   6.561  1.8495 -0.0189  0.9160
 8407SOL    HW227854   0.722   7.430   6.554  1.0410 -0.5121 -1.9129
 8408SOL     OW27855  10.324   3.872   1.923  0.3998 -0.1226 -0.4173
 8408SOL    HW127856  10.381   3.942   1.954  1.5138 -1.4957  0.8170
 8408SOL    HW227857  10.382   3.815   1.873 -0.2902 -0.6004 -0.6888
 8409SOL     OW27858   5.160   9.399   6.435  0.0906  0.2151  0.2080
 8409SOL    HW127859   5.185   9.482   6.476  1.9204  0.0972 -0.5769
 8409SOL    HW227860   5.070   9.412   6.406  0.3854  1.9580  0.0060
 8410SOL     OW27861   4.205   3.288   9.492  0.5936  1.2619 -0.5906
 8410SOL    HW127862   4.239   3.200   9.511 -0.8111  1.3211  3.1080
 8410SOL    HW227863   4.191   3.288   9.398 -1.0905 -3.2385 -0.6131
 8411SOL     OW27864   4.102   8.780  10.021 -0.1397  0.1109  0.1930
 8411SOL    HW127865   4.138   8.772  10.110 -3.0860  2.4493  1.7826
 8411SOL    HW227866   4.010   8.754  10.030 -0.9159  1.8893 -1.8016
 8412SOL     OW27867   5.564   1.873   0.463  0.5007  0.0948 -0.2566
 8412SOL    HW127868   5.529   1.794   0.504 -0.8463  0.0510 -1.3970
 8412SOL    HW227869   5.543   1.943   0.525 -1.0763 -0.0343 -0.6053
 8413SOL     OW27870   0.452   2.102   4.370  0.3120 -1.0199  0.2374
 8413SOL    HW127871   0.497   2.095   4.454 -1.5254  0.8824  1.5003
 8413SOL    HW227872   0.522   2.113   4.306  1.7596 -2.4739  1.5038
 8414SOL     OW27873   0.353   5.564   4.541  0.2969  0.2011 -0.4941
 8414SOL    HW127874   0.320   5.547   4.629 -1.1947  0.4926 -0.9527
 8414SOL    HW227875   0.447   5.549   4.546  0.1813 -0.1259  1.0552
 8415SOL     OW27876   2.688   1.731   0.696  0.7616 -0.5418 -0.0330
 8415SOL    HW127877   2.612   1.715   0.753  0.4939  0.2949 -0.1502
 8415SOL    HW227878   2.650   1.745   0.609  1.0393 -0.0584 -0.0800
 8416SOL     OW27879   6.722  10.007   3.175  0.1759 -0.1141 -0.3011
 8416SOL    HW127880   6.675  10.088   3.157  2.3664  1.4955  0.7433
 8416SOL    HW227881   6.738  10.009   3.270  0.4087 -1.7063 -0.2789
 8417SOL     OW27882   3.139   1.550   7.090 -0.0565 -0.0034  0.2346
 8417SOL    HW127883   3.137   1.643   7.111  0.0427 -0.5799  3.1606
 8417SOL    HW227884   3.048   1.529   7.068 -0.1667  0.6544  0.0246
 8418SOL     OW27885   3.636   6.362   5.445  0.5779  0.1817 -0.2348
 8418SOL    HW127886   3.653   6.345   5.538 -0.1941 -1.4361 -0.3603
 8418SOL    HW227887   3.651   6.456   5.435  1.7585  0.1924  1.2842
 8419SOL     OW27888   7.248   3.011   6.373 -0.0024  0.1837 -0.7677
 8419SOL    HW127889   7.242   2.923   6.337  0.6094  0.1600 -0.8192
 8419SOL    HW227890   7.169   3.056   6.341 -1.0109 -0.7202  0.3369
 8420SOL     OW27891   8.698   0.614   4.263 -0.1077  0.1656  0.1776
 8420SOL    HW127892   8.680   0.557   4.187 -1.2508  0.2688  0.3545
 8420SOL    HW227893   8.785   0.587   4.293  0.4794  0.2694 -1.2977
 8421SOL     OW27894   8.355   7.981   6.752 -0.4028 -0.2155 -0.1509
 8421SOL    HW127895   8.263   8.000   6.766 -0.2654 -0.8343  1.9005
 8421SOL    HW227896   8.371   7.901   6.803  1.2093 -0.2509 -0.6468
 8422SOL     OW27897   1.940   3.490   4.342  0.2879  0.1190 -0.0729
 8422SOL    HW127898   1.900   3.478   4.428 -0.2571  2.0432 -0.0046
 8422SOL    HW227899   1.937   3.585   4.327  4.2301  0.3336 -0.3920
 8423SOL     OW27900   6.567   8.723   2.841 -0.4461  0.2415  0.0640
 8423SOL    HW127901   6.475   8.744   2.829  0.1901  2.2680 -1.9642
 8423SOL    HW227902   6.599   8.788   2.903 -0.1647  0.2502 -0.0852
 8424SOL     OW27903   5.418   0.189   9.944  0.0406  0.7365  0.4374
 8424SOL    HW127904   5.370   0.113   9.913  1.3818  0.2616 -0.5650
 8424SOL    HW227905   5.411   0.253   9.873  0.6529  0.7549  0.3860
 8425SOL     OW27906   3.578   6.003   5.657  0.7422  0.1375 -0.5307
 8425SOL    HW127907   3.495   5.961   5.680  1.2781 -0.5579  0.2062
 8425SOL    HW227908   3.633   5.990   5.734  0.9109  2.3105 -0.2386
 8426SOL     OW27909   2.457   4.459   0.407  0.1968 -0.1418  0.4807
 8426SOL    HW127910   2.390   4.395   0.385  0.5183 -0.4235  0.3185
 8426SOL    HW227911   2.539   4.418   0.381  0.4643  0.0593  0.9843
 8427SOL     OW27912   4.918   3.020   9.216  0.0819  0.1118  0.7452
 8427SOL    HW127913   4.854   2.961   9.176  1.0276  0.9611 -2.2484
 8427SOL    HW227914   4.866   3.092   9.252 -0.7402  0.7462 -1.5742
 8428SOL     OW27915   5.827   6.849   0.041  0.7158  0.4024  0.2775
 8428SOL    HW127916   5.789   6.800   0.113  2.1418  0.0017  0.7911
 8428SOL    HW227917   5.867   6.782  -0.015 -0.3874  0.7077 -0.9000
 8429SOL     OW27918   1.344   1.542   8.792  0.4111 -0.5943 -0.0920
 8429SOL    HW127919   1.266   1.590   8.821  0.4452 -0.7856  0.3162
 8429SOL    HW227920   1.311   1.460   8.758  0.5456 -1.4046  1.6180
 8430SOL     OW27921   0.180   7.016   2.767 -0.3910  0.2275  0.1603
 8430SOL    HW127922   0.239   6.959   2.817 -1.1119  1.1652  2.1939
 8430SOL    HW227923   0.238   7.066   2.709  0.5028 -0.8013  0.1339
 8431SOL     OW27924   4.412   2.233   3.113 -0.1752  0.7331  0.2366
 8431SOL    HW127925   4.392   2.247   3.206  0.3918  2.5731  0.1267
 8431SOL    HW227926   4.417   2.138   3.103  0.4946  0.5118  2.2518
 8432SOL     OW27927   2.896   3.191   6.870 -0.6287 -0.0502  0.0095
 8432SOL    HW127928   2.886   3.255   6.800  0.5237 -0.1802 -0.2948
 8432SOL    HW227929   2.807   3.176   6.902 -1.0702  0.6392 -0.8600
 8433SOL     OW27930   4.542   8.369   8.639 -0.0460  0.2059  0.1527
 8433SOL    HW127931   4.537   8.373   8.735  0.0727  0.4299  0.1499
 8433SOL    HW227932   4.450   8.366   8.611 -0.0871 -1.4107  0.3262
 8434SOL     OW27933   2.070   1.194   3.602 -0.8564  0.2351  0.3959
 8434SOL    HW127934   2.072   1.283   3.566  1.7567  0.9547  2.0582
 8434SOL    HW227935   2.048   1.207   3.694 -1.8534 -1.0168  0.3500
 8435SOL     OW27936   6.667   9.465   1.704  0.1012 -0.1402 -0.0722
 8435SOL    HW127937   6.726   9.407   1.752  0.9841  0.6320 -0.1998
 8435SOL    HW227938   6.627   9.519   1.773  1.4097  1.0052 -0.1729
 8436SOL     OW27939   6.710   2.449   0.283  0.0791 -0.2488 -0.2946
 8436SOL    HW127940   6.759   2.430   0.363  3.6361  1.3635 -1.8993
 8436SOL    HW227941   6.694   2.363   0.245  1.8795 -0.8708  0.2361
 8437SOL     OW27942   9.127   3.540   8.782 -1.2291 -0.0212  0.0315
 8437SOL    HW127943   9.149   3.561   8.691 -1.2530  1.5099  0.3459
 8437SOL    HW227944   9.126   3.445   8.786  2.4550 -0.2274 -0.6952
 8438SOL     OW27945   1.891   5.594   9.850  0.4262 -0.0155 -0.1648
 8438SOL    HW127946   1.964   5.534   9.834 -0.0007 -0.7046  0.4051
 8438SOL    HW227947   1.817   5.537   9.870 -0.0400  0.7034  0.2127
 8439SOL     OW27948   7.578   4.626   1.852 -0.1322  0.4150 -0.0678
 8439SOL    HW127949   7.519   4.701   1.851 -1.1429 -0.3062  1.4655
 8439SOL    HW227950   7.548   4.571   1.780  0.9043  1.6342 -1.4988
 8440SOL     OW27951   8.111   7.896  10.208 -0.0484  0.2761 -1.1267
 8440SOL    HW127952   8.119   7.848  10.291  1.8414  2.1763 -0.0987
 8440SOL    HW227953   8.025   7.939  10.214 -0.7265 -1.0570 -1.0057
 8441SOL     OW27954   3.142   4.921   2.893 -0.0947  0.7260 -0.2670
 8441SOL    HW127955   3.232   4.903   2.922  0.2124  0.0439 -1.6115
 8441SOL    HW227956   3.152   4.974   2.814 -0.7335 -2.0557 -2.3556
 8442SOL     OW27957   1.722   8.276   8.772 -0.5264 -0.7393  0.2765
 8442SOL    HW127958   1.730   8.357   8.723  0.8584 -1.1672 -0.2647
 8442SOL    HW227959   1.638   8.283   8.817 -0.3901  1.0355  0.3287
 8443SOL     OW27960  10.295   8.920   9.651  0.1901  0.1827 -0.7223
 8443SOL    HW127961  10.315   8.969   9.571 -0.1527  0.0077 -0.9212
 8443SOL    HW227962  10.235   8.850   9.621 -0.7148  0.6963 -0.1577
 8444SOL     OW27963   0.953   2.134   8.347 -0.0746 -0.7662  0.1259
 8444SOL    HW127964   0.978   2.043   8.330 -0.2888 -0.9087  0.5680
 8444SOL    HW227965   0.865   2.129   8.382  0.1916 -0.4479  0.8726
 8445SOL     OW27966   4.235   5.852   2.411 -0.0039 -0.4352 -0.1136
 8445SOL    HW127967   4.307   5.877   2.353  0.1879  0.2755  0.4219
 8445SOL    HW227968   4.277   5.813   2.487 -0.2969 -2.6887 -1.0073
 8446SOL     OW27969   2.911   7.172   3.374  0.9373  0.1742  0.6869
 8446SOL    HW127970   2.826   7.164   3.330  0.6091  2.7034  0.7190
 8446SOL    HW227971   2.898   7.131   3.459 -0.0610 -0.0163  0.4570
 8447SOL     OW27972   6.799   6.213   7.827  0.2002 -0.1272  0.4393
 8447SOL    HW127973   6.754   6.214   7.742  1.0603  1.6301 -0.0353
 8447SOL    HW227974   6.738   6.167   7.885 -0.7807 -0.6218 -0.9242
 8448SOL     OW27975  10.328   0.002   6.326 -0.0426 -0.4568  0.0932
 8448SOL    HW127976  10.317  -0.093   6.331  2.0391 -0.9307 -2.3371
 8448SOL    HW227977  10.422   0.015   6.324 -0.2954  1.6519 -0.2217
 8449SOL     OW27978   2.078   9.727   7.357  0.2029  0.5036  0.0237
 8449SOL    HW127979   2.104   9.639   7.330  2.0031  1.1327 -0.4350
 8449SOL    HW227980   2.022   9.759   7.286 -0.4306 -0.2301  0.1744
 8450SOL     OW27981   7.869   1.572   6.441 -0.1109  0.0770  0.0591
 8450SOL    HW127982   7.797   1.634   6.449  0.6982  1.0762 -0.2631
 8450SOL    HW227983   7.946   1.618   6.476  0.3670 -1.0042  0.5125
 8451SOL     OW27984   6.180   8.874   7.883  0.4562  0.1315 -0.2033
 8451SOL    HW127985   6.121   8.869   7.808  1.3832 -0.4372 -0.9165
 8451SOL    HW227986   6.248   8.935   7.855 -0.5040  1.9259  1.1565
 8452SOL     OW27987   0.497   2.760   6.749 -0.1123  0.4044  0.1828
 8452SOL    HW127988   0.422   2.797   6.703  1.4586  1.6519 -1.4848
 8452SOL    HW227989   0.552   2.835   6.772  0.6726 -0.4810  1.3375
 8453SOL     OW27990   7.770   9.123   6.509  0.2128 -0.4406  0.3294
 8453SOL    HW127991   7.841   9.137   6.447 -1.6033 -0.8208 -1.9895
 8453SOL    HW227992   7.737   9.036   6.489 -2.8973  0.8582 -1.0136
 8454SOL     OW27993   9.359   3.395   1.729  0.9681  0.4137  0.4358
 8454SOL    HW127994   9.359   3.385   1.824  1.5249  0.1827  0.4136
 8454SOL    HW227995   9.339   3.487   1.714 -0.5012  0.1629  0.7381
 8455SOL     OW27996   1.327   6.049   6.689  0.3173 -0.4457 -0.7647
 8455SOL    HW127997   1.394   5.983   6.704  0.0337 -0.8884 -1.4121
 8455SOL    HW227998   1.271   6.012   6.621 -1.4745 -0.7337  0.7760
 8456SOL     OW27999   7.953   5.408   0.781  0.5032  0.4796  0.3075
 8456SOL    HW128000   7.925   5.425   0.871 -0.3251 -0.4851  0.2514
 8456SOL    HW228001   7.909   5.475   0.729  0.1101  0.3813  0.5037
 8457SOL     OW28002   8.798   3.775   6.558  0.1346  0.6500 -0.1893
 8457SOL    HW128003   8.822   3.835   6.488  1.9210 -1.7012 -1.7529
 8457SOL    HW228004   8.867   3.787   6.624  0.4837  0.3538 -0.4952
 8458SOL     OW28005   3.858   9.286   8.451  0.0611  0.6159 -0.2893
 8458SOL    HW128006   3.844   9.277   8.545  2.4407  0.5680  0.0995
 8458SOL    HW228007   3.847   9.197   8.417 -2.3538  0.8726 -0.3510
 8459SOL     OW28008   8.165   7.524   9.457 -0.1633  0.3589 -0.7587
 8459SOL    HW128009   8.231   7.517   9.388 -1.4130  1.3373 -2.1197
 8459SOL    HW228010   8.091   7.474   9.423  0.5660 -2.8006  1.7733
 8460SOL     OW28011   3.696   8.189   1.459 -0.7443  0.3702 -0.1421
 8460SOL    HW128012   3.672   8.252   1.528  2.0905  0.5133  0.8657
 8460SOL    HW228013   3.785   8.214   1.435 -1.3148 -0.2761 -3.2802
 8461SOL     OW28014   4.220   3.676   1.964 -0.5118 -0.6438  0.0606
 8461SOL    HW128015   4.314   3.665   1.980 -0.5815 -0.8281  0.3560
 8461SOL    HW228016   4.215   3.712   1.876 -0.2217 -1.9617 -0.5225
 8462SOL     OW28017   0.209   2.498  10.323 -0.1216 -0.0239 -0.2413
 8462SOL    HW128018   0.172   2.549  10.250 -0.4816 -0.6352 -0.4964
 8462SOL    HW228019   0.147   2.426  10.334  0.4183 -0.4372  0.0727
 8463SOL     OW28020   5.880   5.104   9.815 -0.0901 -0.2288  0.2964
 8463SOL    HW128021   5.937   5.054   9.875 -0.9694 -1.0917  0.4433
 8463SOL    HW228022   5.792   5.095   9.852 -0.5523 -0.1970 -0.7449
 8464SOL     OW28023   3.593   2.486   8.034 -0.0794 -0.1009  0.2344
 8464SOL    HW128024   3.596   2.438   7.951  0.7993 -0.6100  0.5467
 8464SOL    HW228025   3.659   2.443   8.088  2.2004  2.6961 -0.1294
 8465SOL     OW28026   0.144   1.445   6.500  0.0791  0.0433  0.4909
 8465SOL    HW128027   0.168   1.535   6.523  0.3621 -0.1685  1.0522
 8465SOL    HW228028   0.116   1.407   6.583  0.1485 -0.4461  0.2893
 8466SOL     OW28029   1.185   0.278  10.064 -0.1994  0.4627  0.2412
 8466SOL    HW128030   1.091   0.297  10.058 -0.8505 -2.7064 -2.0258
 8466SOL    HW228031   1.191   0.214  10.135  0.0886  0.0330 -0.1647
 8467SOL     OW28032   0.035   4.144   8.554 -0.6362 -0.3122  0.2687
 8467SOL    HW128033   0.129   4.162   8.556 -0.2161 -2.2152 -0.7218
 8467SOL    HW228034   0.024   4.066   8.609 -1.5218 -0.5455 -0.2165
 8468SOL     OW28035   6.891   8.097   6.935  0.1758 -0.0789 -0.4300
 8468SOL    HW128036   6.942   8.157   6.990 -2.0785 -0.0164  1.7813
 8468SOL    HW228037   6.863   8.151   6.861 -0.1903  1.1184  0.5318
 8469SOL     OW28038   4.115   4.687   5.815  0.2813 -0.7033  0.2696
 8469SOL    HW128039   4.036   4.652   5.773  1.1224 -1.7478 -0.4875
 8469SOL    HW228040   4.166   4.725   5.743  1.4351 -1.9112  0.4226
 8470SOL     OW28041   8.122   8.079   3.130 -0.3390 -0.5932  0.3990
 8470SOL    HW128042   8.212   8.071   3.162  0.9013 -0.7197 -2.7586
 8470SOL    HW228043   8.083   7.993   3.147  0.1699 -0.6077  1.6021
 8471SOL     OW28044   4.858   9.161   3.936 -0.9798 -0.1900 -0.4617
 8471SOL    HW128045   4.892   9.243   3.971 -0.6988 -0.0465 -1.0607
 8471SOL    HW228046   4.936   9.110   3.914 -1.0786 -1.6816  2.2571
 8472SOL     OW28047   4.531   8.314   0.946 -0.2180  0.0088  0.5975
 8472SOL    HW128048   4.495   8.403   0.945  0.0666  0.1262  0.0580
 8472SOL    HW228049   4.455   8.257   0.957 -0.3615  0.3336  1.3324
 8473SOL     OW28050   4.161   9.215   4.790 -0.2946 -0.2872  0.1862
 8473SOL    HW128051   4.206   9.143   4.745 -0.9922 -0.5927 -0.0444
 8473SOL    HW228052   4.156   9.285   4.725  1.5110  0.4671  0.8063
 8474SOL     OW28053   8.904  10.128   7.742 -0.4021 -0.4090  0.5887
 8474SOL    HW128054   8.826  10.072   7.742 -0.1096 -0.8382 -0.2366
 8474SOL    HW228055   8.890  10.189   7.814 -2.3921  0.7244 -0.6569
 8475SOL     OW28056   6.510   2.664   0.291 -0.2243  0.2027 -0.3547
 8475SOL    HW128057   6.493   2.648   0.384  2.8813  0.0939  0.2969
 8475SOL    HW228058   6.585   2.608   0.270  0.1709  1.4118 -2.5142
 8476SOL     OW28059   2.441   5.729   6.189  0.3247 -0.3276  0.1099
 8476SOL    HW128060   2.380   5.799   6.215  0.1623  0.4826 -2.1719
 8476SOL    HW228061   2.524   5.754   6.229 -0.1747  0.1461  0.8846
 8477SOL     OW28062   0.296   8.727   7.317 -0.2978 -0.3673 -0.3986
 8477SOL    HW128063   0.340   8.747   7.400 -1.1919  0.8776 -0.2083
 8477SOL    HW228064   0.230   8.662   7.340 -0.4583 -0.1222 -0.1618
 8478SOL     OW28065   4.996   2.261   4.481  0.0684 -0.1604  0.0228
 8478SOL    HW128066   4.965   2.351   4.483  0.6752  0.0679 -0.5130
 8478SOL    HW228067   5.005   2.241   4.388 -0.0959 -0.7878  0.1380
 8479SOL     OW28068   8.983   7.392   6.836 -0.8062 -0.1375  0.0940
 8479SOL    HW128069   9.034   7.436   6.768 -0.8809 -0.2564 -0.0391
 8479SOL    HW228070   9.024   7.306   6.845 -1.7732 -0.7323 -0.9338
 8480SOL     OW28071   2.755   5.875   1.530  0.9937  0.4299 -0.0240
 8480SOL    HW128072   2.832   5.892   1.476  1.8915  0.7097  1.3024
 8480SOL    HW228073   2.790   5.843   1.613 -0.3820 -0.6287  0.1843
 8481SOL     OW28074   9.377   9.998   0.575  0.2266 -0.0294 -0.6141
 8481SOL    HW128075   9.320   9.938   0.527  0.5811 -0.3265 -0.6677
 8481SOL    HW228076   9.371   9.968   0.666 -0.4689  0.5501 -0.4589
 8482SOL     OW28077   2.379   3.032   0.120 -0.0603 -0.0052 -0.1826
 8482SOL    HW128078   2.300   2.995   0.079  0.4095 -4.7900  2.5196
 8482SOL    HW228079   2.357   3.038   0.213  1.5108  2.7988  0.1397
 8483SOL     OW28080   5.635   1.626   6.430 -0.3443  0.2034 -0.2672
 8483SOL    HW128081   5.618   1.608   6.523 -0.4024  0.6571 -0.1862
 8483SOL    HW228082   5.658   1.719   6.428  0.0547  0.0990 -0.6569
 8484SOL     OW28083   5.865   7.257   1.403 -0.1777  0.4868 -0.2369
 8484SOL    HW128084   5.779   7.236   1.440 -0.0864  0.7071  0.1093
 8484SOL    HW228085   5.847   7.330   1.343 -0.5640 -0.8319 -1.7843
 8485SOL     OW28086   3.967   3.777   2.153 -0.2008 -0.4882  0.2746
 8485SOL    HW128087   3.901   3.722   2.110 -0.7487 -0.6039  1.2333
 8485SOL    HW228088   4.019   3.812   2.081 -0.2801 -1.6970 -0.4042
 8486SOL     OW28089   3.923   7.020   4.322  0.5480 -0.3008 -0.2314
 8486SOL    HW128090   3.844   7.009   4.376  0.7907 -0.2549  0.1321
 8486SOL    HW228091   3.985   7.064   4.379  0.4416  0.7253 -0.8902
 8487SOL     OW28092   7.622   5.762   4.904 -0.6625  0.1725 -0.0421
 8487SOL    HW128093   7.705   5.794   4.940 -0.7658  1.4228 -0.8493
 8487SOL    HW228094   7.625   5.668   4.917  0.1333  0.3796  1.4931
 8488SOL     OW28095   5.556   4.196   9.416 -0.5225 -0.3507 -0.5612
 8488SOL    HW128096   5.522   4.243   9.340 -1.2234 -0.3579 -0.2587
 8488SOL    HW228097   5.647   4.177   9.394  0.0662  1.9268 -0.3266
 8489SOL     OW28098   2.006   7.557   3.898 -0.0605 -0.0386  0.1381
 8489SOL    HW128099   1.933   7.604   3.857 -0.4606 -1.7138 -1.2115
 8489SOL    HW228100   2.021   7.482   3.840  0.9385 -1.2319  1.8629
 8490SOL     OW28101   3.197   7.439   0.232  0.0824 -0.3878  0.0474
 8490SOL    HW128102   3.233   7.354   0.257 -0.9390 -1.0882 -0.7573
 8490SOL    HW228103   3.187   7.434   0.137  1.2315  1.1415 -0.2026
 8491SOL     OW28104   9.322  10.335   3.578 -1.1363 -0.0722 -0.1759
 8491SOL    HW128105   9.237  10.377   3.562 -1.9086 -1.7603 -0.6963
 8491SOL    HW228106   9.307  10.279   3.654 -0.5334 -0.5190 -0.3834
 8492SOL     OW28107   3.090   6.054   5.981 -0.1400  1.0154 -0.2678
 8492SOL    HW128108   3.103   5.977   5.925 -1.4964  0.6507 -0.1194
 8492SOL    HW228109   3.179   6.079   6.008  0.3143 -0.8875  0.1837
 8493SOL     OW28110  10.009   5.829   6.529 -0.2606 -0.0411  0.3285
 8493SOL    HW128111   9.990   5.811   6.437  0.8697 -0.9157  0.2385
 8493SOL    HW228112  10.041   5.919   6.530  1.0410 -0.4667 -0.3647
 8494SOL     OW28113   4.400   6.935   8.262  0.6828 -0.4036  0.5915
 8494SOL    HW128114   4.391   7.016   8.312  2.5219  1.9356 -2.4767
 8494SOL    HW228115   4.313   6.918   8.227  0.1066 -0.2363  1.9060
 8495SOL     OW28116   3.154   6.558   4.846  0.2446  0.2336 -0.0154
 8495SOL    HW128117   3.088   6.620   4.817  2.8603  2.6498 -1.2838
 8495SOL    HW228118   3.119   6.472   4.822 -1.7144  1.5085 -2.0750
 8496SOL     OW28119   7.530   9.023   7.329  0.0109 -0.1320  0.2704
 8496SOL    HW128120   7.490   8.937   7.340 -0.6927 -0.0794 -1.4996
 8496SOL    HW228121   7.545   9.031   7.234 -0.4572  1.9057  0.3095
 8497SOL     OW28122   5.452   6.320   8.084 -0.1080 -0.6001 -0.4335
 8497SOL    HW128123   5.374   6.342   8.135 -1.0054 -1.5838 -1.3211
 8497SOL    HW228124   5.516   6.291   8.149 -0.9390 -1.0071  0.2205
 8498SOL     OW28125   1.513   7.421   1.663 -0.6267 -0.0341  0.0424
 8498SOL    HW128126   1.488   7.503   1.707 -0.5305  0.7994 -1.3690
 8498SOL    HW228127   1.430   7.385   1.631 -0.5343  0.2534 -0.5383
 8499SOL     OW28128   1.049   9.045   0.331  0.3777 -0.0698  0.1286
 8499SOL    HW128129   1.061   8.962   0.283 -0.0142  1.1115 -2.1626
 8499SOL    HW228130   1.130   9.093   0.316 -0.1639  0.7398 -0.2567
 8500SOL     OW28131   2.810   1.177   2.862 -0.4002  0.0090  0.1613
 8500SOL    HW128132   2.869   1.107   2.834  0.0227 -0.1899  1.4756
 8500SOL    HW228133   2.748   1.186   2.790  2.8346  2.1959 -2.6068
 8501SOL     OW28134   0.104   2.206   3.990  0.6252 -0.1354 -0.0326
 8501SOL    HW128135   0.166   2.274   4.016  0.4521 -0.7333  2.0924
 8501SOL    HW228136   0.135   2.127   4.034 -0.3831 -0.9595 -0.7596
 8502SOL     OW28137   2.243   3.897   6.889  0.3867 -0.0394  0.0519
 8502SOL    HW128138   2.181   3.964   6.915  0.9214 -0.2312  1.9689
 8502SOL    HW228139   2.225   3.881   6.796 -0.3953  2.0273 -0.1843
 8503SOL     OW28140  10.265   5.438   5.230 -0.2142 -0.0603 -0.1339
 8503SOL    HW128141  10.337   5.434   5.168  0.3772 -0.5436  0.5636
 8503SOL    HW228142  10.222   5.522   5.212 -0.7168 -0.6551 -1.8888
 8504SOL     OW28143  10.131   2.789   3.058 -0.3152 -0.0136 -0.1394
 8504SOL    HW128144  10.163   2.772   2.970 -3.4712 -1.5476 -1.1284
 8504SOL    HW228145  10.199   2.753   3.116  1.4422  0.3202 -1.8999
 8505SOL     OW28146   8.171   9.586   1.355 -0.5317  0.0740  0.4051
 8505SOL    HW128147   8.214   9.517   1.305 -0.4735  0.7465 -0.4942
 8505SOL    HW228148   8.179   9.664   1.300 -1.0161  0.6916  1.1903
 8506SOL     OW28149   1.050   2.781   2.795  0.0069 -0.0281 -0.5696
 8506SOL    HW128150   1.103   2.861   2.787 -1.7677  1.4526  1.3345
 8506SOL    HW228151   0.961   2.811   2.779 -0.9230 -1.2237  1.9106
 8507SOL     OW28152   8.199   4.147   7.984 -0.0552 -0.0864  0.4072
 8507SOL    HW128153   8.188   4.118   8.074 -0.8801 -0.4304  0.1995
 8507SOL    HW228154   8.117   4.126   7.941 -0.9448  2.9857  0.3659
 8508SOL     OW28155   5.612   8.722   2.587 -0.2590  0.8416 -0.2799
 8508SOL    HW128156   5.628   8.811   2.557  0.0412  1.3253  1.2186
 8508SOL    HW228157   5.532   8.695   2.543 -1.5624  2.6640  0.8412
 8509SOL     OW28158   6.359   9.082   4.014  0.4206 -1.0594  0.6581
 8509SOL    HW128159   6.435   9.136   4.037  0.3388 -1.1554  1.1800
 8509SOL    HW228160   6.305   9.083   4.093 -0.6498 -0.1198 -0.0437
 8510SOL     OW28161   3.968   2.462   5.727 -0.1129  0.5804 -0.1178
 8510SOL    HW128162   3.946   2.551   5.700  1.9704  1.3523  0.5163
 8510SOL    HW228163   3.904   2.442   5.796 -0.5689  1.6174 -0.2106
 8511SOL     OW28164   7.240   4.628   1.796 -0.4575  0.3024 -0.1132
 8511SOL    HW128165   7.198   4.547   1.768 -1.4223  0.5517  0.5339
 8511SOL    HW228166   7.291   4.657   1.720 -0.7172 -0.5028 -0.6065
 8512SOL     OW28167   4.117   3.589   3.840 -0.4827  0.3177  0.3114
 8512SOL    HW128168   4.133   3.684   3.843 -1.1481  0.4100  2.5195
 8512SOL    HW228169   4.144   3.563   3.752  1.4973  2.2321  0.2637
 8513SOL     OW28170   1.074   8.644   8.595  0.9278  0.1332  0.1466
 8513SOL    HW128171   1.133   8.695   8.539 -0.1071  1.4234  0.1986
 8513SOL    HW228172   0.988   8.655   8.556  0.5692 -0.9823  0.6010
 8514SOL     OW28173   0.609  10.165   6.689  0.2305  0.1465 -0.1925
 8514SOL    HW128174   0.647  10.135   6.772  0.6678 -0.0580 -0.4641
 8514SOL    HW228175   0.564  10.247   6.712 -0.8012 -0.5942  0.5167
 8515SOL     OW28176  10.007   2.551   0.347  0.6007  0.0759 -0.4926
 8515SOL    HW128177   9.985   2.509   0.264 -2.4736  0.5353 -0.0611
 8515SOL    HW228178   9.948   2.627   0.351  1.4896  0.7197  1.5785
 8516SOL     OW28179   4.226   6.213   6.854  0.0870  0.0132 -0.0184
 8516SOL    HW128180   4.258   6.299   6.829 -1.9972  0.8834  0.1330
 8516SOL    HW228181   4.198   6.173   6.771  0.7104 -0.3927 -0.0417
 8517SOL     OW28182   8.178   9.992   0.583 -0.4229 -0.3769 -0.5761
 8517SOL    HW128183   8.191  10.030   0.497 -2.0347  0.0367 -0.6690
 8517SOL    HW228184   8.193   9.898   0.571  2.8422  0.0253 -0.5065
 8518SOL     OW28185   4.107   2.375   4.740  0.0172 -0.1744  0.3907
 8518SOL    HW128186   4.074   2.296   4.697 -0.7059 -0.0346  0.6761
 8518SOL    HW228187   4.033   2.407   4.792  0.8661 -0.3368  1.7396
 8519SOL     OW28188   3.869   1.187   5.918 -0.2604 -0.2972 -0.5064
 8519SOL    HW128189   3.857   1.168   6.011 -0.7839  0.3366 -0.4360
 8519SOL    HW228190   3.791   1.238   5.894  1.1413  1.9187 -0.6269
 8520SOL     OW28191   9.612   1.750   6.635 -0.2883 -0.9112 -0.3860
 8520SOL    HW128192   9.573   1.738   6.549 -0.3889 -2.7208 -0.1260
 8520SOL    HW228193   9.577   1.834   6.666 -2.1641 -1.3925 -1.0886
 8521SOL     OW28194   2.481   4.184   9.922  0.2088 -0.1233 -0.2183
 8521SOL    HW128195   2.466   4.238   9.999  2.0383  1.5160 -0.9372
 8521SOL    HW228196   2.554   4.127   9.945  1.0779  0.7030 -0.8641
 8522SOL     OW28197   3.685   5.951   8.128  0.5176 -0.1255  0.5173
 8522SOL    HW128198   3.735   5.978   8.205  2.7170 -0.7189 -0.6028
 8522SOL    HW228199   3.688   6.027   8.070 -1.7174  0.5709  1.1932
 8523SOL     OW28200   4.540   1.102   0.717  0.7432 -0.4554  0.4789
 8523SOL    HW128201   4.478   1.171   0.695  2.2577  1.6179  2.3226
 8523SOL    HW228202   4.577   1.075   0.633  0.8199  1.6965 -0.2289
 8524SOL     OW28203   7.796   5.593   3.857  0.0606 -0.2428  0.1622
 8524SOL    HW128204   7.777   5.639   3.776  1.5479 -0.7519 -0.5100
 8524SOL    HW228205   7.711   5.581   3.899 -0.6419  0.6710 -0.9630
 8525SOL     OW28206   1.102   7.946   8.152 -0.4004 -0.1611 -0.1101
 8525SOL    HW128207   1.108   8.041   8.141  2.3218 -0.1317  0.9626
 8525SOL    HW228208   1.077   7.934   8.244 -1.9414 -0.5406 -0.5399
 8526SOL     OW28209   2.976   2.923   9.682 -0.2956 -0.7597  0.3761
 8526SOL    HW128210   2.981   2.962   9.594 -0.4634 -1.2320  0.1574
 8526SOL    HW228211   2.890   2.949   9.715  0.6839  1.4716  1.3764
 8527SOL     OW28212   1.061   7.963   8.416  0.0550  0.2411  0.2287
 8527SOL    HW128213   0.974   7.998   8.436  0.1904  0.7187  0.0123
 8527SOL    HW228214   1.071   7.887   8.474 -1.2798 -1.0055 -1.0911
 8528SOL     OW28215   2.426   6.565   3.109  0.6920 -0.2569  0.4479
 8528SOL    HW128216   2.335   6.564   3.138  1.5780  0.5941  3.5808
 8528SOL    HW228217   2.441   6.477   3.075 -1.4368 -0.1962 -0.8774
 8529SOL     OW28218   0.185   2.840   2.813 -0.0739  0.3870  0.1788
 8529SOL    HW128219   0.167   2.746   2.806  0.9360  0.1196  0.9993
 8529SOL    HW228220   0.099   2.880   2.827 -0.2529 -0.6819  2.4430
 8530SOL     OW28221   9.335   8.429   6.072 -0.0092 -0.2277 -0.6445
 8530SOL    HW128222   9.270   8.419   6.002  0.8346  2.9518 -2.0523
 8530SOL    HW228223   9.319   8.515   6.109  2.5353  0.1193 -0.1355
 8531SOL     OW28224   8.549   7.007   6.876 -0.3898  0.0618  0.1625
 8531SOL    HW128225   8.494   6.933   6.903 -0.4942 -0.0148 -0.2540
 8531SOL    HW228226   8.628   6.965   6.841 -0.2428  0.1608  0.3754
 8532SOL     OW28227   7.252   1.842   8.734  0.3276 -0.2505 -0.0212
 8532SOL    HW128228   7.200   1.826   8.655  1.0443 -0.1516 -0.5135
 8532SOL    HW228229   7.343   1.833   8.706  0.6396  1.0740  0.5019
 8533SOL     OW28230   2.420   4.594   6.648 -0.4450 -0.2644  0.5027
 8533SOL    HW128231   2.447   4.682   6.672  0.1052 -0.3329  0.1536
 8533SOL    HW228232   2.498   4.540   6.662 -1.0438 -0.8819  1.6630
 8534SOL     OW28233   9.319   5.313   5.115  0.1017  0.0521  0.4485
 8534SOL    HW128234   9.393   5.271   5.073 -1.7293 -0.9774 -2.0282
 8534SOL    HW228235   9.317   5.402   5.079 -0.2330 -0.1488 -0.0478
 8535SOL     OW28236   1.392   7.714   2.776  0.1976 -0.2175  0.2290
 8535SOL    HW128237   1.467   7.662   2.804  0.0430 -0.9655 -0.6952
 8535SOL    HW228238   1.428   7.775   2.712  0.3143  0.6004  1.0544
 8536SOL     OW28239   3.097   3.993   7.270  0.0598  0.0657  0.5919
 8536SOL    HW128240   3.031   4.050   7.230  1.0083 -0.4279 -1.8342
 8536SOL    HW228241   3.175   4.048   7.278 -0.1247  0.1634  1.8520
 8537SOL     OW28242   8.023   3.431   6.973 -0.4132 -0.5951 -0.2753
 8537SOL    HW128243   8.033   3.448   7.067 -0.3651 -0.9565 -0.2117
 8537SOL    HW228244   7.944   3.480   6.948  0.8346  1.3763 -0.5439
 8538SOL     OW28245   0.891   6.064   9.161 -0.3352 -0.0290  0.4589
 8538SOL    HW128246   0.976   6.022   9.161 -0.3529 -0.0800 -0.4463
 8538SOL    HW228247   0.887   6.112   9.078 -1.7168 -1.1269 -0.1584
 8539SOL     OW28248   0.895   7.720   0.179 -0.3644 -0.2191  0.3195
 8539SOL    HW128249   0.955   7.743   0.251  0.5681  0.9241 -0.7603
 8539SOL    HW228250   0.942   7.654   0.129 -0.7365 -0.5537  0.4137
 8540SOL     OW28251  10.293   2.579   2.541 -0.7891  0.5733  0.4996
 8540SOL    HW128252  10.310   2.672   2.529  0.4854  0.5805  2.1479
 8540SOL    HW228253  10.372   2.536   2.508 -1.3760  0.0461 -0.2659
 8541SOL     OW28254   9.866   3.614   8.583  0.0343 -0.2223  0.8701
 8541SOL    HW128255   9.835   3.705   8.579 -2.8104 -1.0593  1.4198
 8541SOL    HW228256   9.849   3.579   8.496 -1.0962 -0.8427  1.3271
 8542SOL     OW28257   5.939   0.463   1.976 -1.2922  0.1441 -0.2512
 8542SOL    HW128258   6.023   0.462   2.023 -0.9532 -1.8161 -0.8069
 8542SOL    HW228259   5.938   0.548   1.931 -0.6494  1.1476  1.5154
 8543SOL     OW28260   3.802   9.074   3.654  0.1746 -0.2063 -0.1768
 8543SOL    HW128261   3.805   9.163   3.619  0.7023  0.1496  0.7199
 8543SOL    HW228262   3.826   9.084   3.746 -2.2613 -0.9467  0.6162
 8544SOL     OW28263   3.275   8.917   7.077  0.2445 -0.5245 -0.4361
 8544SOL    HW128264   3.286   9.011   7.066  0.2259 -0.4674  0.0024
 8544SOL    HW228265   3.342   8.878   7.021  0.6543 -0.2368 -0.1552
 8545SOL     OW28266   1.542   7.759   9.848 -0.1599 -0.6301 -0.0881
 8545SOL    HW128267   1.461   7.773   9.897  0.4294 -1.4168  1.1631
 8545SOL    HW228268   1.521   7.784   9.758 -1.1374  1.3566  0.6438
 8546SOL     OW28269   7.862   2.844   1.288 -0.3505  0.2663  0.4155
 8546SOL    HW128270   7.932   2.808   1.235 -1.0036 -0.9076  0.3220
 8546SOL    HW228271   7.859   2.937   1.264  0.5910  0.1448 -0.2102
 8547SOL     OW28272   7.369   4.142   6.654 -0.0356  1.0336  0.3181
 8547SOL    HW128273   7.401   4.205   6.719  2.3929 -0.6213  0.8582
 8547SOL    HW228274   7.337   4.068   6.706 -0.1840  0.6142 -0.3565
 8548SOL     OW28275   7.108   8.308   6.692 -0.0485  0.3712 -0.0805
 8548SOL    HW128276   7.137   8.217   6.697  1.9441  1.0209  2.7720
 8548SOL    HW228277   7.024   8.310   6.737  0.3696  0.0929  0.7186
 8549SOL     OW28278   8.716   6.724   0.699 -0.2503 -0.6204  0.2533
 8549SOL    HW128279   8.643   6.785   0.692  1.3515  1.4654  0.7097
 8549SOL    HW228280   8.679   6.647   0.743 -2.6910 -0.6459 -1.6533
 8550SOL     OW28281   5.579   6.691   3.755  0.3779 -0.3191  0.4447
 8550SOL    HW128282   5.600   6.682   3.662  1.3856  1.0889  0.5140
 8550SOL    HW228283   5.609   6.608   3.794  2.0212 -0.0308 -0.1415
 8551SOL     OW28284   3.043   1.284   0.889 -0.0793  0.3244 -0.0044
 8551SOL    HW128285   3.117   1.308   0.946 -0.1175 -0.9305  0.5954
 8551SOL    HW228286   3.061   1.194   0.862 -0.4226  0.6569 -1.4376
 8552SOL     OW28287   3.018   6.021   1.891 -0.4509  0.6712  0.4537
 8552SOL    HW128288   3.045   6.000   1.981  0.2461  2.3619  0.6651
 8552SOL    HW228289   2.935   6.068   1.902 -0.5994  0.4798  0.1695
 8553SOL     OW28290   4.424   8.224   3.140 -0.0800 -0.4190 -0.0631
 8553SOL    HW128291   4.475   8.147   3.115 -1.1963 -0.9629 -0.7573
 8553SOL    HW228292   4.432   8.227   3.236  0.4288 -1.0720 -0.0753
 8554SOL     OW28293   3.593   8.364   9.715 -0.5077  0.2251  0.2687
 8554SOL    HW128294   3.677   8.385   9.674  0.1704  1.9192  2.3195
 8554SOL    HW228295   3.606   8.278   9.755  0.5521  0.7865  1.1856
 8555SOL     OW28296   4.078   5.651   3.258 -0.2986 -0.0752 -0.1414
 8555SOL    HW128297   4.092   5.597   3.336 -1.7625  1.5008  1.3082
 8555SOL    HW228298   4.015   5.601   3.205 -0.6191 -0.3885  0.5259
 8556SOL     OW28299   8.144   8.620   5.110 -0.5171  0.1782  0.3927
 8556SOL    HW128300   8.152   8.527   5.134  1.3936  0.6094  1.7018
 8556SOL    HW228301   8.234   8.652   5.110 -1.0850  1.9178 -0.6554
 8557SOL     OW28302   9.461   3.870   7.328 -0.3243 -0.1176 -0.4443
 8557SOL    HW128303   9.372   3.893   7.352 -0.0750 -1.1175  1.7388
 8557SOL    HW228304   9.512   3.886   7.408  1.3335 -0.1248 -1.4593
 8558SOL     OW28305   7.284   9.065   4.515  0.2301  0.1389  0.0096
 8558SOL    HW128306   7.203   9.112   4.496 -1.2029 -1.1726  2.3512
 8558SOL    HW228307   7.266   8.975   4.488  0.4452 -0.3934  1.5237
 8559SOL     OW28308   3.048   8.090   7.179 -0.0408 -0.3883 -0.0064
 8559SOL    HW128309   2.989   8.127   7.246  0.8377 -0.2078  0.6868
 8559SOL    HW228310   2.991   8.034   7.126 -0.7676 -0.5176  0.8746
 8560SOL     OW28311   5.415   2.557   9.322  0.1287 -0.0606  0.3107
 8560SOL    HW128312   5.328   2.518   9.320  0.7815 -1.9344 -3.8691
 8560SOL    HW228313   5.431   2.584   9.231  3.5991  0.8645  1.0354
 8561SOL     OW28314   7.402   5.115   7.358 -0.1436  0.2438 -0.1077
 8561SOL    HW128315   7.367   5.087   7.442  1.1433  1.9810  1.0697
 8561SOL    HW228316   7.327   5.155   7.313 -1.1156 -1.6962 -0.3444
 8562SOL     OW28317   8.082   8.384   4.527  0.2656 -0.0712  0.1358
 8562SOL    HW128318   8.011   8.364   4.466  0.3802 -1.2774  0.3670
 8562SOL    HW228319   8.052   8.347   4.610  0.9254 -0.0888  0.3710
 8563SOL     OW28320   8.201   1.774   5.305  0.1864  0.5404  0.0513
 8563SOL    HW128321   8.189   1.863   5.273 -0.6291  0.7995  1.0402
 8563SOL    HW228322   8.157   1.719   5.239  1.1118  0.8064 -0.8164
 8564SOL     OW28323   6.173   7.954   4.427  0.1771 -0.3489  0.1441
 8564SOL    HW128324   6.092   7.944   4.376  0.1923 -0.3155  0.1134
 8564SOL    HW228325   6.143   7.958   4.517  0.0349  0.8701  0.0575
 8565SOL     OW28326   6.402   9.784   6.671 -0.2463 -0.1954  0.5215
 8565SOL    HW128327   6.421   9.714   6.609 -2.2247  1.4980 -2.1705
 8565SOL    HW228328   6.309   9.801   6.661  0.2138  3.0838  0.7630
 8566SOL     OW28329   9.005   7.564   5.505  0.3027  0.4671 -0.2179
 8566SOL    HW128330   9.072   7.524   5.560 -0.1110 -0.8690 -0.6392
 8566SOL    HW228331   9.054   7.614   5.439  0.9065 -0.5452 -0.5660
 8567SOL     OW28332   1.174   5.924   6.479  0.3434  0.2219 -0.4978
 8567SOL    HW128333   1.089   5.967   6.488  0.8166  0.8276  1.6191
 8567SOL    HW228334   1.153   5.831   6.474 -0.4727  0.3903 -0.3737
 8568SOL     OW28335   7.060   7.278   1.385  0.2278 -0.3123  0.4913
 8568SOL    HW128336   7.044   7.351   1.326 -2.5053 -1.6624 -0.6370
 8568SOL    HW228337   7.023   7.306   1.469 -0.4986 -0.2661  0.1570
 8569SOL     OW28338   7.419   8.193   4.262 -0.1173 -0.1632 -0.2503
 8569SOL    HW128339   7.340   8.151   4.229  0.1225 -2.0840  1.4223
 8569SOL    HW228340   7.488   8.168   4.200 -0.1260 -1.7205  0.3293
 8570SOL     OW28341   5.959   1.260   3.360 -0.2060 -0.4947 -0.3359
 8570SOL    HW128342   5.971   1.169   3.388  1.4858  0.0422  0.8677
 8570SOL    HW228343   5.879   1.289   3.403 -0.1983 -1.1154  0.1079
 8571SOL     OW28344   8.174   9.541   5.910  0.4280  0.2159 -0.0200
 8571SOL    HW128345   8.171   9.635   5.897  1.1761  0.2446 -0.0233
 8571SOL    HW228346   8.248   9.511   5.856  0.4960 -0.3037  0.3458
 8572SOL     OW28347   6.503   7.083   7.754 -0.1029  0.0535  1.0016
 8572SOL    HW128348   6.412   7.075   7.782 -0.8579 -2.8151 -1.7075
 8572SOL    HW228349   6.497   7.112   7.663  1.5602 -1.7521  0.2614
 8573SOL     OW28350   1.934   8.104   9.320 -0.9526 -0.1731  0.1496
 8573SOL    HW128351   1.977   8.019   9.326  1.7996  1.1763  1.5068
 8573SOL    HW228352   1.928   8.120   9.225  0.6772 -0.9115 -0.1277
 8574SOL     OW28353   7.882   6.907   4.935  0.4242 -0.4093  0.6432
 8574SOL    HW128354   7.833   6.825   4.937 -1.4277  0.6274  0.0945
 8574SOL    HW228355   7.948   6.897   5.004 -0.1931 -2.0654  1.0522
 8575SOL     OW28356   4.549   8.834   9.849  0.5604 -0.0929  0.2916
 8575SOL    HW128357   4.594   8.910   9.886  1.7435 -0.5642 -0.1224
 8575SOL    HW228358   4.594   8.759   9.888 -0.2341 -0.5916  0.2775
 8576SOL     OW28359   8.493   2.533   3.368 -0.2781 -0.2977  0.1550
 8576SOL    HW128360   8.534   2.452   3.339 -0.6922 -0.6704  0.5984
 8576SOL    HW228361   8.549   2.565   3.439  0.3414  0.2470 -0.5507
 8577SOL     OW28362  10.317   8.672   7.554 -0.7329  0.0003 -0.6418
 8577SOL    HW128363  10.347   8.759   7.527  0.7160 -0.4063 -0.4625
 8577SOL    HW228364  10.359   8.657   7.639 -0.2475 -1.1982 -1.0672
 8578SOL     OW28365   3.752   6.396   1.331  0.9785  0.5941 -0.0782
 8578SOL    HW128366   3.693   6.354   1.269  0.8948  0.8246 -0.1532
 8578SOL    HW228367   3.795   6.464   1.281 -0.8354  2.4003  0.6727
 8579SOL     OW28368   7.806  10.107   9.687  0.1065  0.4921  0.0167
 8579SOL    HW128369   7.890  10.082   9.648  2.0237  1.0641  3.3709
 8579SOL    HW228370   7.829  10.140   9.774 -3.6158  0.8660  1.0319
 8580SOL     OW28371   1.068   0.423   4.545 -0.4687  0.2116  0.4602
 8580SOL    HW128372   1.146   0.421   4.489 -1.5622  2.2186 -1.2414
 8580SOL    HW228373   1.018   0.498   4.515 -3.2482 -1.1738  1.3012
 8581SOL     OW28374   0.395   4.372   8.066  0.1873  0.1462 -0.3834
 8581SOL    HW128375   0.321   4.423   8.031  0.2332  0.1693 -0.4471
 8581SOL    HW228376   0.463   4.437   8.083 -0.8364  0.6015  2.5942
 8582SOL     OW28377   7.621   6.120   9.077  0.4055 -0.0753 -0.1745
 8582SOL    HW128378   7.538   6.160   9.104  0.8527  0.7510  0.0325
 8582SOL    HW228379   7.680   6.195   9.063  1.3499 -0.6804  0.4635
 8583SOL     OW28380   3.664   1.787   3.761  0.0463  0.2867 -0.6239
 8583SOL    HW128381   3.634   1.711   3.810  0.8080  1.5092  1.9244
 8583SOL    HW228382   3.651   1.764   3.669 -2.5583 -1.6933  0.1466
 8584SOL     OW28383   8.627   9.929   2.613 -0.0758  0.0351 -0.4270
 8584SOL    HW128384   8.648   9.886   2.530 -0.8118 -0.0096 -0.5990
 8584SOL    HW228385   8.707   9.975   2.637  1.0232 -2.0415  0.1590
 8585SOL     OW28386   1.770   1.413   4.486  0.2582 -0.1794 -0.0919
 8585SOL    HW128387   1.754   1.505   4.465 -0.3506 -0.4696 -0.9385
 8585SOL    HW228388   1.703   1.365   4.437  0.2559 -1.0435  0.7224
 8586SOL     OW28389   3.930   3.072   4.240  0.5699  0.1507 -0.0735
 8586SOL    HW128390   3.870   3.147   4.238  0.4842  0.0911 -1.7410
 8586SOL    HW228391   3.910   3.026   4.321 -0.0280  1.4085  0.5189
 8587SOL     OW28392   7.512   7.104   9.384 -0.4082  0.0829 -0.7778
 8587SOL    HW128393   7.506   7.087   9.478 -0.5599  1.6106 -0.4868
 8587SOL    HW228394   7.596   7.064   9.358  0.9336  1.8612  0.5449
 8588SOL     OW28395   3.308   9.006   3.508 -0.0541 -0.2623  0.0959
 8588SOL    HW128396   3.403   9.004   3.499  0.0840  3.1600 -0.6130
 8588SOL    HW228397   3.282   9.088   3.465 -3.2484 -0.7383  0.8934
 8589SOL     OW28398   0.326   8.307   4.735  0.5978  0.4405 -0.4742
 8589SOL    HW128399   0.272   8.386   4.736 -1.8849 -1.0359 -2.8788
 8589SOL    HW228400   0.351   8.296   4.643  1.8017 -1.0259 -0.0195
 8590SOL     OW28401   2.471   6.231   5.185 -0.2325  0.3288  0.1622
 8590SOL    HW128402   2.519   6.291   5.242 -1.2690  1.1562  0.2067
 8590SOL    HW228403   2.539   6.181   5.139  0.6282 -0.5527  2.2823
 8591SOL     OW28404   5.024   5.212   7.448 -0.7952  0.0648 -0.1521
 8591SOL    HW128405   5.049   5.286   7.504  0.5700  0.1145 -0.8012
 8591SOL    HW228406   5.063   5.232   7.363  0.3612 -1.8072 -0.1230
 8592SOL     OW28407   1.972   2.473   7.297 -0.1358 -0.2997 -0.1744
 8592SOL    HW128408   1.927   2.391   7.316 -0.3840 -0.7145 -2.3479
 8592SOL    HW228409   2.064   2.455   7.314 -0.4883  0.1154  2.8510
 8593SOL     OW28410   9.535  10.233   9.990  0.7935 -0.6210 -0.3658
 8593SOL    HW128411   9.519  10.234   9.896 -0.4490 -0.9224 -0.1728
 8593SOL    HW228412   9.455  10.196  10.028  1.4543 -0.9270  0.7763
 8594SOL     OW28413   7.748   7.035   6.463  0.3510 -0.4423 -0.1394
 8594SOL    HW128414   7.677   7.091   6.494  0.5497 -0.5620  0.5350
 8594SOL    HW228415   7.731   7.024   6.369  0.4456  0.9470 -0.3397
 8595SOL     OW28416   3.125   4.277   3.609  0.7495 -0.5069  0.1196
 8595SOL    HW128417   3.210   4.240   3.586 -0.4046 -2.8608 -0.6584
 8595SOL    HW228418   3.096   4.324   3.530  0.8768 -0.5723  0.0350
 8596SOL     OW28419   2.726   5.710   2.314 -0.0215  0.8352  0.2273
 8596SOL    HW128420   2.752   5.632   2.363  0.2488 -0.8528 -2.4163
 8596SOL    HW228421   2.805   5.763   2.309  0.4037  0.1968  0.1454
 8597SOL     OW28422   7.739   0.556   9.802 -0.0459  0.3703  0.3592
 8597SOL    HW128423   7.699   0.582   9.719 -0.3799 -0.2003  0.3370
 8597SOL    HW228424   7.690   0.605   9.869  0.0817  0.6651  0.2398
 8598SOL     OW28425  10.223   5.538   1.653  0.6063  0.3185  0.0163
 8598SOL    HW128426  10.308   5.518   1.613 -0.3289  0.6319 -2.2715
 8598SOL    HW228427  10.167   5.464   1.630 -0.1136  0.7743  0.2652
 8599SOL     OW28428   0.390   7.209   5.372 -0.2382  0.0684  0.5795
 8599SOL    HW128429   0.464   7.217   5.313  0.2656  2.7948  1.4297
 8599SOL    HW228430   0.348   7.127   5.347  1.4016 -0.1450 -1.8195
 8600SOL     OW28431   5.429   7.443   7.785 -0.5102  0.6833 -0.2166
 8600SOL    HW128432   5.489   7.431   7.859  0.3094  0.6971 -0.8678
 8600SOL    HW228433   5.363   7.374   7.796 -1.1261  1.4618  1.2206
 8601SOL     OW28434   0.432   7.059   7.875 -0.3386  0.0774  0.2212
 8601SOL    HW128435   0.411   7.015   7.792 -0.1723  1.1798 -0.4236
 8601SOL    HW228436   0.527   7.073   7.871 -0.1008 -1.0567  1.2161
 8602SOL     OW28437   7.244   4.703   1.022 -0.3078  0.3529 -0.2685
 8602SOL    HW128438   7.256   4.655   0.940 -0.8431  0.3565 -0.3547
 8602SOL    HW228439   7.196   4.643   1.079  0.7397  0.0628  0.3262
 8603SOL     OW28440   1.290   8.589   8.802 -0.3182  0.0160  0.6876
 8603SOL    HW128441   1.269   8.606   8.894 -1.2780 -0.1075  0.4958
 8603SOL    HW228442   1.215   8.622   8.754  0.2791  0.2843 -0.0824
 8604SOL     OW28443   7.052   1.620   8.090  0.2791 -0.0593  0.3615
 8604SOL    HW128444   7.104   1.638   8.169  2.4502 -1.8290 -0.5630
 8604SOL    HW228445   6.972   1.672   8.102  1.8057  2.0604  2.3282
 8605SOL     OW28446   4.554   7.831   1.899 -0.1551  0.1316 -0.3912
 8605SOL    HW128447   4.482   7.774   1.926  0.7004 -1.0031 -0.4285
 8605SOL    HW228448   4.600   7.851   1.981  0.5063 -0.5892 -0.5812
 8606SOL     OW28449   8.379   6.079   0.609 -0.0463 -0.0200  0.7281
 8606SOL    HW128450   8.470   6.065   0.585  0.3589  1.8821  0.9886
 8606SOL    HW228451   8.329   6.040   0.537  1.0463  1.3406 -0.8408
 8607SOL     OW28452   3.626   2.786   8.310  0.2648 -0.1714 -0.0695
 8607SOL    HW128453   3.558   2.752   8.253  0.0434 -0.7968  0.5578
 8607SOL    HW228454   3.703   2.796   8.254 -0.0076 -0.5766 -0.5139
 8608SOL     OW28455   1.584   7.006   0.342 -0.4401 -0.6701  0.2276
 8608SOL    HW128456   1.626   7.021   0.257  0.8930 -1.1281  0.7788
 8608SOL    HW228457   1.491   7.022   0.326 -0.2066 -0.6871 -1.2996
 8609SOL     OW28458   9.679   1.560   6.808 -0.3281 -0.1735  0.1555
 8609SOL    HW128459   9.757   1.578   6.861  1.7539 -1.2016 -2.3499
 8609SOL    HW228460   9.674   1.634   6.747  0.6261 -1.5633 -1.7242
 8610SOL     OW28461   0.081   4.855   4.257 -0.0984  0.5998 -0.3802
 8610SOL    HW128462   0.064   4.884   4.347  0.5370  0.3238 -0.1664
 8610SOL    HW228463   0.153   4.910   4.227  0.9357 -0.5278 -0.0665
 8611SOL     OW28464   8.729   3.512   0.976 -0.3783  0.5236 -1.1203
 8611SOL    HW128465   8.799   3.577   0.985 -0.7312  0.7290  0.4904
 8611SOL    HW228466   8.772   3.434   0.941  0.3577  1.1210 -1.5702
 8612SOL     OW28467   0.656   3.722   8.558 -0.3667 -0.7468 -0.4797
 8612SOL    HW128468   0.682   3.651   8.617 -0.4321  0.4549  1.0380
 8612SOL    HW228469   0.739   3.755   8.523 -0.3103 -1.2854 -0.8695
 8613SOL     OW28470   4.954   4.018   9.332 -0.4821 -1.0094 -0.1330
 8613SOL    HW128471   4.879   4.018   9.391  1.2700 -1.0498  2.2492
 8613SOL    HW228472   4.936   3.948   9.269 -2.7590 -0.4695 -0.1795
 8614SOL     OW28473   1.967   5.715   8.561 -0.4104  0.5113 -0.3787
 8614SOL    HW128474   2.013   5.649   8.612 -0.5111  2.0346  1.8459
 8614SOL    HW228475   2.033   5.781   8.542 -1.1841  1.9022  1.3872
 8615SOL     OW28476   9.196   0.560   0.811  0.0951 -0.4700  0.2521
 8615SOL    HW128477   9.288   0.559   0.786  0.0413 -0.5091  0.0538
 8615SOL    HW228478   9.162   0.642   0.773  0.2302 -0.0646  0.9865
 8616SOL     OW28479   7.802   1.086   6.458  0.5227 -0.9468  0.2248
 8616SOL    HW128480   7.766   1.173   6.477 -0.4614 -1.5881  1.4003
 8616SOL    HW228481   7.877   1.078   6.516  0.2981 -1.0927  0.4933
 8617SOL     OW28482   5.745   7.919   9.116 -0.0203 -0.3320 -0.0975
 8617SOL    HW128483   5.695   7.901   9.195 -1.0518 -0.8020 -0.8415
 8617SOL    HW228484   5.752   8.015   9.114  0.6785 -0.3348  0.9344
 8618SOL     OW28485   8.017   7.135   3.269  0.2857  0.1381  0.1049
 8618SOL    HW128486   7.994   7.204   3.331 -0.8298  0.3614 -0.5316
 8618SOL    HW228487   7.962   7.060   3.294 -1.5707  0.8107 -1.6937
 8619SOL     OW28488   6.029   7.957   9.513  0.1686 -0.1788 -0.2510
 8619SOL    HW128489   6.038   7.956   9.418  0.8929  3.2899 -0.3505
 8619SOL    HW228490   6.118   7.943   9.545  1.0969  4.1102 -0.3913
 8620SOL     OW28491   5.569   5.539   8.497  0.0512  0.2625  0.6707
 8620SOL    HW128492   5.519   5.565   8.574 -0.7794  0.3162  0.1283
 8620SOL    HW228493   5.570   5.443   8.500  1.5614  0.2871  1.6981
 8621SOL     OW28494   0.108   4.011   5.427  0.1175  0.1152 -0.1494
 8621SOL    HW128495   0.164   4.089   5.431  0.2809  0.1810 -2.6135
 8621SOL    HW228496   0.164   3.941   5.461  0.5573  0.7524  0.4785
 8622SOL     OW28497   9.077   5.351   4.266  0.2938 -0.3044  0.2949
 8622SOL    HW128498   9.040   5.271   4.301  1.1912 -1.3585 -1.0546
 8622SOL    HW228499   9.129   5.387   4.337  1.7573 -2.1737  0.2410
 8623SOL     OW28500   5.005   5.695   7.810 -0.4104  0.3948  0.5995
 8623SOL    HW128501   4.990   5.690   7.715 -0.7334  4.3152  0.3023
 8623SOL    HW228502   5.100   5.688   7.820 -0.4239 -0.7615  0.1182
 8624SOL     OW28503   0.668   8.396  10.067 -0.4057 -0.2778  0.1524
 8624SOL    HW128504   0.749   8.443  10.085 -0.2565 -0.0522 -1.0760
 8624SOL    HW228505   0.691   8.304  10.078  0.3501 -0.2930 -1.3832
 8625SOL     OW28506   1.008   0.781   1.938 -0.0725 -0.5718 -0.0781
 8625SOL    HW128507   1.039   0.791   2.028  0.0753  0.3638 -0.2222
 8625SOL    HW228508   1.068   0.719   1.898  0.8491  0.2344  0.0184
 8626SOL     OW28509   2.177   9.720   4.580  0.2137 -0.1204  0.1130
 8626SOL    HW128510   2.158   9.806   4.616 -1.4625 -0.7098  0.7109
 8626SOL    HW228511   2.165   9.660   4.653 -0.2824 -1.0268 -0.6953
 8627SOL     OW28512   6.876   5.527   9.010 -0.1776  0.0182  0.1759
 8627SOL    HW128513   6.786   5.524   8.978  0.1154 -1.0389 -0.6137
 8627SOL    HW228514   6.920   5.589   8.952 -0.0796 -0.5117 -0.3237
 8628SOL     OW28515   5.318   1.573   8.756 -0.5718 -0.2498 -0.2920
 8628SOL    HW128516   5.255   1.502   8.752 -0.3606 -0.7427  2.6581
 8628SOL    HW228517   5.288   1.627   8.829  1.6594  0.2031  0.3612
 8629SOL     OW28518   0.007   2.960   7.902  0.3110 -0.1404 -0.1468
 8629SOL    HW128519  -0.083   2.930   7.916 -0.6983  2.5552 -0.3088
 8629SOL    HW228520   0.011   3.046   7.945  2.2008  0.7164 -1.8610
 8630SOL     OW28521   2.654   8.399   1.915  0.2080 -0.8574  0.3478
 8630SOL    HW128522   2.704   8.476   1.892  0.5101 -0.3967  2.4130
 8630SOL    HW228523   2.713   8.325   1.899  0.0600 -0.6746 -1.2132
 8631SOL     OW28524   1.148   6.884   3.043  0.0932 -0.0641  0.3854
 8631SOL    HW128525   1.184   6.802   3.009  0.7138 -0.1154  1.1485
 8631SOL    HW228526   1.224   6.941   3.055 -0.2239  0.2712  0.8140
 8632SOL     OW28527   9.957   6.599   0.416 -0.3453  0.3530  0.8730
 8632SOL    HW128528   9.985   6.517   0.455 -0.8301  0.6603  1.9051
 8632SOL    HW228529  10.036   6.635   0.376  0.1245 -0.0665  1.4076
 8633SOL     OW28530   2.834   2.058   5.704 -0.0754  0.0138 -0.1034
 8633SOL    HW128531   2.908   2.118   5.718 -0.6399  0.6481  0.2253
 8633SOL    HW228532   2.859   2.008   5.626  1.0315 -0.3068  0.4342
 8634SOL     OW28533   9.216   5.715   3.681 -0.1888 -0.2533  0.5875
 8634SOL    HW128534   9.244   5.784   3.740 -0.0454 -0.3769  0.6647
 8634SOL    HW228535   9.290   5.703   3.621 -0.7404  0.6067 -0.2908
 8635SOL     OW28536   9.150   0.290  10.163 -0.2106  0.3005 -0.5645
 8635SOL    HW128537   9.131   0.265  10.253  0.3161 -1.0861 -0.8267
 8635SOL    HW228538   9.240   0.261  10.148 -0.2507  0.6305 -1.5038
 8636SOL     OW28539   4.862   5.543   0.740 -0.3532 -0.3289 -0.8728
 8636SOL    HW128540   4.911   5.512   0.816  0.5947 -0.7671 -1.6422
 8636SOL    HW228541   4.770   5.532   0.765 -0.0679 -2.2679 -0.4974
 8637SOL     OW28542   1.482   5.263   8.280 -0.3016 -0.5445 -0.6508
 8637SOL    HW128543   1.441   5.347   8.262 -0.1183 -0.5443 -1.0883
 8637SOL    HW228544   1.422   5.198   8.244 -1.4047 -0.7335  1.4012
 8638SOL     OW28545   1.297   1.315   4.949  0.7378 -0.2100 -0.3729
 8638SOL    HW128546   1.359   1.328   4.878  1.1613 -0.3058 -0.0239
 8638SOL    HW228547   1.211   1.326   4.908  1.0067  1.6006 -0.5322
 8639SOL     OW28548   2.594  10.008   6.983 -0.5825 -0.3410  0.0692
 8639SOL    HW128549   2.551   9.952   7.047 -1.1632 -0.6207 -0.5498
 8639SOL    HW228550   2.643  10.072   7.035 -1.5749 -0.1520  0.7897
 8640SOL     OW28551   7.984   1.638   5.172  0.0024  0.2513  0.1657
 8640SOL    HW128552   7.901   1.621   5.218  0.3350 -0.9416  0.3566
 8640SOL    HW228553   7.957   1.667   5.085 -0.6271  0.0884  0.2982
 8641SOL     OW28554   8.749   0.286   1.116 -0.1095  0.3946 -0.1646
 8641SOL    HW128555   8.797   0.354   1.163  0.8210  0.2371 -0.8562
 8641SOL    HW228556   8.742   0.318   1.027 -0.9123  0.2094 -0.1751
 8642SOL     OW28557   6.196   1.989   4.504  0.0007  0.7986 -0.0871
 8642SOL    HW128558   6.179   2.017   4.594 -1.1570  1.9479 -0.6264
 8642SOL    HW228559   6.251   1.911   4.513 -1.0966  0.1578  1.6585
 8643SOL     OW28560   8.251  10.166   5.486 -0.3082  0.6671 -0.3658
 8643SOL    HW128561   8.344  10.180   5.465 -0.2286 -1.0145 -1.4146
 8643SOL    HW228562   8.247  10.169   5.581  0.9031  0.4477 -0.2844
 8644SOL     OW28563   1.178   5.072   9.950  0.3984  0.1344  0.2466
 8644SOL    HW128564   1.225   5.051   9.869 -1.2029 -0.4798 -0.5624
 8644SOL    HW228565   1.231   5.140   9.992  1.8659 -0.3642 -0.7365
 8645SOL     OW28566   7.995   2.271   9.941  0.4267  0.0533 -0.0585
 8645SOL    HW128567   8.035   2.294  10.025 -0.4996  1.7336 -0.0341
 8645SOL    HW228568   8.069   2.252   9.884  1.0803 -0.8874  1.0527
 8646SOL     OW28569   3.873   5.887   9.173  0.5666  0.1061  0.6600
 8646SOL    HW128570   3.953   5.923   9.134 -0.1852  1.2750  0.1205
 8646SOL    HW228571   3.903   5.844   9.252  1.5163  2.5285  1.7390
 8647SOL     OW28572   6.722   3.705   5.861  0.1198 -0.1249  0.3687
 8647SOL    HW128573   6.643   3.668   5.822  0.7904 -0.0627 -1.1526
 8647SOL    HW228574   6.789   3.638   5.844  0.4214 -0.1436  1.5637
 8648SOL     OW28575   1.314   9.105   2.450  0.8255 -0.2164  0.0524
 8648SOL    HW128576   1.391   9.072   2.405  0.4852 -1.5547  0.4085
 8648SOL    HW228577   1.257   9.136   2.379  1.0717 -0.5892 -0.3150
 8649SOL     OW28578   5.018   5.360   6.947  0.3769  0.0581 -0.8060
 8649SOL    HW128579   5.017   5.272   6.985 -0.4716  0.1515 -0.5761
 8649SOL    HW228580   5.108   5.390   6.956  0.8944 -1.1635 -1.7609
 8650SOL     OW28581   7.701  10.249   1.506  0.3984 -0.2907  0.2808
 8650SOL    HW128582   7.656  10.305   1.442  1.9999 -0.8546 -1.4196
 8650SOL    HW228583   7.788  10.234   1.468  0.4932 -2.8533  1.3230
 8651SOL     OW28584   3.369   4.558   9.863  0.0793  0.2249 -0.4931
 8651SOL    HW128585   3.397   4.469   9.841 -0.3354 -0.2074  0.6348
 8651SOL    HW228586   3.276   4.549   9.883 -0.0053  0.9526 -0.5445
 8652SOL     OW28587   6.330   8.376   7.260 -0.2572  0.1794 -0.9889
 8652SOL    HW128588   6.400   8.404   7.318 -0.2441  0.6836 -1.2426
 8652SOL    HW228589   6.372   8.366   7.175  0.2363 -2.8244 -0.4817
 8653SOL     OW28590   7.097   2.200   6.484 -0.3218  0.1523 -0.4293
 8653SOL    HW128591   7.061   2.111   6.492 -2.6292  0.7936 -2.3719
 8653SOL    HW228592   7.149   2.197   6.404  2.5109 -0.2155  1.2868
 8654SOL     OW28593   9.291   6.436   4.291 -1.1733 -0.0289  0.3852
 8654SOL    HW128594   9.252   6.352   4.318 -2.7302  0.7876  0.8188
 8654SOL    HW228595   9.276   6.494   4.366 -2.1622  1.2428 -0.7467
 8655SOL     OW28596   1.400   7.097   9.946 -0.5431 -0.1875 -0.1111
 8655SOL    HW128597   1.389   7.072   9.854  0.6904  2.4008 -1.0406
 8655SOL    HW228598   1.310   7.101   9.981 -1.1393  0.3371 -1.6466
 8656SOL     OW28599   5.796   5.009   9.396  0.7764  0.4242 -0.9683
 8656SOL    HW128600   5.792   4.955   9.316 -1.4029 -0.3377 -0.4010
 8656SOL    HW228601   5.801   5.099   9.364  0.0793  0.1205 -1.9686
 8657SOL     OW28602   2.745   8.581   3.817 -0.4458  0.5234  0.4920
 8657SOL    HW128603   2.651   8.567   3.827 -0.8412  2.0048 -0.6986
 8657SOL    HW228604   2.772   8.625   3.898 -0.7621  0.0423  0.8592
 8658SOL     OW28605   6.885   2.722   9.756 -0.2803 -0.1218 -0.3343
 8658SOL    HW128606   6.928   2.805   9.736 -2.5236  1.5420  1.2326
 8658SOL    HW228607   6.793   2.736   9.731 -1.1496 -1.3324  1.8894
 8659SOL     OW28608   5.194   7.131  10.055  0.7291 -0.0185  0.1384
 8659SOL    HW128609   5.137   7.199  10.089  2.5144  1.9759 -0.6795
 8659SOL    HW228610   5.282   7.170  10.056  1.5425 -1.5662 -2.2324
 8660SOL     OW28611   5.073   0.920   7.216 -0.7353  0.5513 -0.6992
 8660SOL    HW128612   5.075   1.008   7.252 -0.5778 -0.4850  2.0589
 8660SOL    HW228613   5.164   0.903   7.189 -0.8799  1.3993 -1.7611
 8661SOL     OW28614   9.297   4.172   5.625  0.0403 -0.2974 -0.0732
 8661SOL    HW128615   9.214   4.124   5.632  0.2592 -0.6998 -0.1875
 8661SOL    HW228616   9.272   4.261   5.603 -0.3392 -0.5458 -0.6769
 8662SOL     OW28617   4.653   9.257   6.099 -0.0124 -0.1581  0.1759
 8662SOL    HW128618   4.723   9.220   6.153 -0.5731 -0.0824  0.9557
 8662SOL    HW228619   4.622   9.182   6.048  1.0062 -0.0804 -0.6039
 8663SOL     OW28620   5.772  10.009   2.397 -0.1077  0.4165 -0.1230
 8663SOL    HW128621   5.824  10.008   2.317 -0.6310  1.7684 -0.5035
 8663SOL    HW228622   5.689  10.048   2.372 -0.0410  1.5182  1.1937
 8664SOL     OW28623   1.509   8.987   6.486  0.0184 -0.3182  0.6162
 8664SOL    HW128624   1.444   9.010   6.553  0.0119 -0.6138  0.7124
 8664SOL    HW228625   1.545   8.904   6.516 -1.0319 -1.2133 -0.5009
 8665SOL     OW28626   5.805   2.983   7.488  0.3056  0.0059  0.1889
 8665SOL    HW128627   5.794   2.981   7.583 -0.5473  1.1085  0.1358
 8665SOL    HW228628   5.861   2.908   7.469  1.7212  0.6110  1.7013
 8666SOL     OW28629   8.426   6.737   0.822 -0.2900 -0.2338  0.1520
 8666SOL    HW128630   8.354   6.747   0.885 -0.3944  0.7566 -0.1141
 8666SOL    HW228631   8.480   6.667   0.859 -1.6603 -1.3698  0.0938
 8667SOL     OW28632   1.993   3.189   0.697 -0.3431 -0.1792 -0.1344
 8667SOL    HW128633   1.898   3.202   0.702 -0.2682 -0.0780  1.3435
 8667SOL    HW228634   2.005   3.096   0.717 -0.0415  0.1058  1.0574
 8668SOL     OW28635   1.397   7.633   9.511 -0.2294 -0.0457 -0.0355
 8668SOL    HW128636   1.410   7.605   9.602  0.6431 -0.4718 -0.2840
 8668SOL    HW228637   1.314   7.681   9.513  0.0759  0.4812  1.1060
 8669SOL     OW28638   2.719   7.181   0.551  0.0967  0.2118 -0.4176
 8669SOL    HW128639   2.717   7.102   0.499 -0.5774 -1.4100  1.9031
 8669SOL    HW228640   2.812   7.204   0.559  0.2138  0.4549 -2.1571
 8670SOL     OW28641   1.978   4.568   6.432 -0.2119 -0.2159 -0.4070
 8670SOL    HW128642   2.049   4.534   6.378  0.9086  0.4232  0.6069
 8670SOL    HW228643   1.979   4.513   6.510 -0.6523 -0.0230 -0.2634
 8671SOL     OW28644   9.301   5.342  10.230  0.2193  0.0493  0.0761
 8671SOL    HW128645   9.293   5.384  10.316 -1.3499  0.8978 -0.4514
 8671SOL    HW228646   9.233   5.275  10.230  1.3960 -1.2118  0.1375
 8672SOL     OW28647   3.889   4.206   6.376  0.1076 -0.1855  0.6281
 8672SOL    HW128648   3.830   4.238   6.307 -1.8755 -0.4151  2.1365
 8672SOL    HW228649   3.973   4.247   6.356 -0.7431  0.8280 -1.1355
 8673SOL     OW28650   9.297   7.890   1.023 -0.4027  0.3497  0.8495
 8673SOL    HW128651   9.223   7.895   1.084  0.7693 -1.2170  2.5042
 8673SOL    HW228652   9.342   7.809   1.047  2.3210  1.6484  0.4563
 8674SOL     OW28653   3.330   5.578   8.141 -0.7474  0.0890  0.2473
 8674SOL    HW128654   3.379   5.556   8.062 -1.5243 -1.1539  0.0891
 8674SOL    HW228655   3.239   5.558   8.120 -1.2237  1.4955  0.8419
 8675SOL     OW28656   1.105   6.958   1.397 -0.1017  0.2213  0.2195
 8675SOL    HW128657   1.020   6.933   1.361 -0.4209  0.9113  0.4836
 8675SOL    HW228658   1.090   6.965   1.491  0.3151  0.0733  0.2974
 8676SOL     OW28659   8.032   2.309   5.058  0.5968  0.1472 -0.0202
 8676SOL    HW128660   7.937   2.312   5.062  0.6023  0.1493  0.1094
 8676SOL    HW228661   8.055   2.365   4.984  0.3751 -1.7168 -1.5903
 8677SOL     OW28662   3.601   3.865   2.200 -0.6182  0.0451  0.2169
 8677SOL    HW128663   3.670   3.838   2.140 -0.3379 -1.9695  1.3456
 8677SOL    HW228664   3.520   3.845   2.154 -0.4182 -0.3064  0.0164
 8678SOL     OW28665   8.269   3.266   6.186 -0.2365 -0.1801  0.3399
 8678SOL    HW128666   8.248   3.318   6.264  0.2538 -0.0702  0.4003
 8678SOL    HW228667   8.185   3.230   6.158 -0.9192  1.9803 -0.6720
 8679SOL     OW28668   6.384   4.283   0.356  0.0144 -0.0858  0.3999
 8679SOL    HW128669   6.326   4.327   0.417  0.7500 -0.8523  1.6894
 8679SOL    HW228670   6.471   4.318   0.376  0.1729  0.2406 -0.7643
 8680SOL     OW28671   2.714   5.166   0.796 -0.4178 -0.0056  0.0302
 8680SOL    HW128672   2.626   5.198   0.776 -0.1450 -0.4062 -2.0390
 8680SOL    HW228673   2.699   5.088   0.849 -1.3531 -0.4484 -0.8440
 8681SOL     OW28674  10.043   0.190   9.664 -0.2893  0.0363 -0.0213
 8681SOL    HW128675  10.002   0.121   9.611  0.0961 -0.3692  0.2043
 8681SOL    HW228676  10.064   0.259   9.602  1.9104 -1.2071 -0.7572
 8682SOL     OW28677   2.734   6.489   9.533 -0.1169 -0.1669 -0.1154
 8682SOL    HW128678   2.743   6.579   9.504  0.3150 -0.1531  0.0469
 8682SOL    HW228679   2.805   6.477   9.596 -0.9488 -0.2444  0.8261
 8683SOL     OW28680   0.497   5.836   2.175  0.4104 -0.4683 -0.1922
 8683SOL    HW128681   0.566   5.863   2.237  1.7435 -1.7446 -1.0569
 8683SOL    HW228682   0.542   5.779   2.113 -1.5733 -1.8526 -0.4455
 8684SOL     OW28683   3.551   8.761   1.435 -0.0020  0.7028 -0.4646
 8684SOL    HW128684   3.644   8.783   1.443  0.2281 -0.1060 -0.8393
 8684SOL    HW228685   3.539   8.685   1.492 -0.2002  0.1585 -1.2118
 8685SOL     OW28686   5.789   1.017   2.073  0.1940 -0.0848 -0.5168
 8685SOL    HW128687   5.799   1.083   2.141  0.2700  0.2531 -0.8530
 8685SOL    HW228688   5.781   0.934   2.121 -0.0381  0.1815 -0.0909
 8686SOL     OW28689   6.703   1.572  10.135  0.2935 -0.0413 -0.2536
 8686SOL    HW128690   6.769   1.640  10.125 -0.1277  0.2526 -1.1835
 8686SOL    HW228691   6.631   1.615  10.182  0.8328 -0.4237  0.9594
 8687SOL     OW28692   3.253   6.977   5.825 -0.4052  0.0271  0.5166
 8687SOL    HW128693   3.327   6.986   5.765  0.6336 -0.3750  1.7025
 8687SOL    HW228694   3.290   6.991   5.912 -1.4497 -1.4840  1.2538
 8688SOL     OW28695   4.489   4.535   5.395  0.2440  0.3755  0.1182
 8688SOL    HW128696   4.438   4.511   5.317  0.2604 -0.6835  0.4195
 8688SOL    HW228697   4.475   4.629   5.405 -0.6860  0.3123 -0.4990
 8689SOL     OW28698   9.000   6.372   8.951  0.1248 -0.0059  0.1400
 8689SOL    HW128699   9.030   6.447   9.001  0.1480  0.4855 -0.5981
 8689SOL    HW228700   9.065   6.362   8.881 -0.4151 -0.0875 -0.3587
 8690SOL     OW28701   7.015   8.979   6.398 -0.1004  0.0842  0.0998
 8690SOL    HW128702   7.068   8.911   6.440 -0.4767  0.4639  1.2209
 8690SOL    HW228703   6.933   8.935   6.376  0.1637 -0.1609 -0.4060
 8691SOL     OW28704   8.192   4.085   7.653  0.2479 -0.2445 -0.2756
 8691SOL    HW128705   8.189   4.116   7.562  0.9995 -0.3272 -0.3332
 8691SOL    HW228706   8.238   4.154   7.700 -1.7555  0.6943  0.4375
 8692SOL     OW28707   6.212   3.339   5.928 -0.3357  0.5200 -0.1171
 8692SOL    HW128708   6.149   3.270   5.907 -0.7499  0.5701  0.9326
 8692SOL    HW228709   6.260   3.305   6.003 -0.1846  1.1589  0.0798
 8693SOL     OW28710   1.850  10.296   0.019 -0.0994  0.7681 -0.1873
 8693SOL    HW128711   1.756  10.315   0.023 -0.0756  0.7032  1.2030
 8693SOL    HW228712   1.867  10.246   0.099  1.4028  2.1548  0.4071
 8694SOL     OW28713   3.178   2.431   6.157  0.3560  0.0162 -0.2252
 8694SOL    HW128714   3.169   2.524   6.140  2.0681  0.2692  0.0827
 8694SOL    HW228715   3.128   2.416   6.237  2.1468  1.2193  1.1972
 8695SOL     OW28716   0.956   5.770   1.267 -0.6826  0.1225 -0.1156
 8695SOL    HW128717   0.938   5.832   1.196  0.5672 -0.0308 -0.5869
 8695SOL    HW228718   1.026   5.811   1.318 -1.0291 -0.1277  0.5779
 8696SOL     OW28719   6.271   1.847   1.750 -0.2842 -0.2058  0.0686
 8696SOL    HW128720   6.269   1.896   1.667 -2.6807  0.6937  0.5903
 8696SOL    HW228721   6.270   1.915   1.818  0.0572 -0.9638  0.8480
 8697SOL     OW28722   8.726   0.407   2.242  0.4986  0.0382 -0.0114
 8697SOL    HW128723   8.723   0.492   2.286  1.4540  0.3474 -0.4936
 8697SOL    HW228724   8.797   0.360   2.285 -0.5947 -0.8809  0.8379
 8698SOL     OW28725  10.358   2.157   4.855 -0.3967  0.3661 -0.1744
 8698SOL    HW128726  10.429   2.155   4.791 -0.1038 -0.6527  0.1522
 8698SOL    HW228727  10.401   2.178   4.937 -0.8815  2.4249 -0.4152
 8699SOL     OW28728   2.655   5.339   2.912 -0.2598  0.0748 -0.5458
 8699SOL    HW128729   2.636   5.256   2.868 -0.2623 -0.3006  0.1414
 8699SOL    HW228730   2.577   5.393   2.897  0.2904  0.4879 -2.1705
 8700SOL     OW28731   7.936   6.424   2.509 -0.5012 -0.1889  0.1885
 8700SOL    HW128732   7.910   6.482   2.580  1.1039 -1.5659  2.0537
 8700SOL    HW228733   8.032   6.429   2.508 -0.4294 -1.1470 -1.0580
 8701SOL     OW28734   9.682   9.228   6.537 -0.7369 -0.2346  0.1123
 8701SOL    HW128735   9.593   9.196   6.552 -1.4286  1.2534 -0.5741
 8701SOL    HW228736   9.672   9.323   6.527  0.7853 -0.1476 -1.0141
 8702SOL     OW28737   6.140   0.371   1.351 -0.4367  0.4027 -0.5385
 8702SOL    HW128738   6.179   0.455   1.328 -0.4501  0.7197  0.5438
 8702SOL    HW228739   6.216   0.314   1.367 -0.4135  0.4901 -0.3203
 8703SOL     OW28740   8.216   5.705   1.095  0.0728 -0.0156 -0.0824
 8703SOL    HW128741   8.214   5.752   1.179 -0.0120  0.1242 -0.1618
 8703SOL    HW228742   8.171   5.622   1.112 -0.2844  0.1752 -0.0867
 8704SOL     OW28743   1.516   4.171   8.108 -0.2385  0.0925 -0.3866
 8704SOL    HW128744   1.575   4.099   8.088 -0.2306 -0.6479  2.0026
 8704SOL    HW228745   1.564   4.249   8.080  1.3910 -0.5689  0.4511
 8705SOL     OW28746   5.591   1.838   9.699 -0.0540 -0.1553  0.6977
 8705SOL    HW128747   5.578   1.848   9.605 -0.9103 -0.7298  0.7385
 8705SOL    HW228748   5.637   1.918   9.726 -0.0209  0.1246 -0.1661
 8706SOL     OW28749   0.976   9.804  10.312 -0.5967 -0.7270  0.4672
 8706SOL    HW128750   1.041   9.736  10.328 -0.7461 -0.8911  0.3938
 8706SOL    HW228751   1.026   9.882  10.291 -0.4266 -1.1896 -0.9573
 8707SOL     OW28752   3.682   9.630   8.794 -0.1494  0.0764  0.2405
 8707SOL    HW128753   3.680   9.712   8.745  0.2576 -0.6197 -0.9733
 8707SOL    HW228754   3.595   9.624   8.834 -0.6378  0.4816 -0.7250
 8708SOL     OW28755   1.218   1.800   3.600 -0.3148 -0.0464  0.2294
 8708SOL    HW128756   1.124   1.789   3.586 -0.1381  0.1386 -1.3156
 8708SOL    HW228757   1.232   1.895   3.595  0.0338 -0.1180 -0.2807
 8709SOL     OW28758   3.601   8.951   3.541 -0.0477  0.0514  0.3480
 8709SOL    HW128759   3.617   8.858   3.557  1.1962 -0.2920 -2.3568
 8709SOL    HW228760   3.677   8.995   3.579  0.7802 -0.3276 -0.8356
 8710SOL     OW28761   5.217   1.247   5.012  0.2167 -0.2165 -0.4446
 8710SOL    HW128762   5.267   1.169   4.987 -0.8938 -0.3789 -2.3578
 8710SOL    HW228763   5.164   1.219   5.086 -0.7435 -1.5605 -1.5908
 8711SOL     OW28764   7.130   0.890   8.404  0.0892  0.3763  0.4070
 8711SOL    HW128765   7.100   0.980   8.412 -1.4854 -0.2162  1.5047
 8711SOL    HW228766   7.185   0.876   8.482 -1.4039 -0.2259  1.3902
 8712SOL     OW28767   2.153   7.847   3.293 -0.0175 -0.5780  0.0864
 8712SOL    HW128768   2.090   7.901   3.245 -1.5816 -0.8039  1.7805
 8712SOL    HW228769   2.204   7.803   3.225  0.2505  1.7935 -1.3463
 8713SOL     OW28770   7.344   6.744   9.379 -0.5872 -0.3465  0.5454
 8713SOL    HW128771   7.430   6.778   9.402 -1.0744  1.2451  0.1338
 8713SOL    HW228772   7.325   6.782   9.293 -1.6844 -0.7238  0.5997
 8714SOL     OW28773   4.994   2.471   4.189  0.4265  0.4191  0.2335
 8714SOL    HW128774   4.921   2.434   4.237  0.8954 -0.6886  0.1276
 8714SOL    HW228775   5.057   2.498   4.256 -1.0829  3.7582  0.4801
 8715SOL     OW28776   1.778   2.012   7.764  0.9070 -0.1837 -0.5274
 8715SOL    HW128777   1.866   2.020   7.803  1.5706 -0.1107 -1.9880
 8715SOL    HW228778   1.794   2.004   7.670 -0.7171  1.3604 -0.9941
 8716SOL     OW28779   2.652   1.789   1.605 -0.2847 -0.3835  0.3327
 8716SOL    HW128780   2.561   1.766   1.619 -0.8177  1.4357  0.1407
 8716SOL    HW228781   2.652   1.884   1.599  1.6968 -0.3115  0.7802
 8717SOL     OW28782   7.317   9.523   1.585 -0.5108  0.1775  0.0607
 8717SOL    HW128783   7.355   9.470   1.515  0.2971 -0.0066  0.6190
 8717SOL    HW228784   7.223   9.521   1.568 -0.4706 -1.1464 -0.1430
 8718SOL     OW28785   8.107   4.853   8.482  0.4753 -0.4351  0.2276
 8718SOL    HW128786   8.049   4.923   8.511  0.0931 -1.3789  1.9053
 8718SOL    HW228787   8.113   4.864   8.387  0.1645  1.6253  0.4034
 8719SOL     OW28788   8.991   7.093   0.365 -0.2718  0.2775 -0.1138
 8719SOL    HW128789   9.055   7.164   0.367  1.8423 -1.5583  0.6141
 8719SOL    HW228790   8.971   7.082   0.272 -0.4218  1.5880 -0.2633
 8720SOL     OW28791   3.524   5.398   1.312 -0.8646 -0.3805 -0.8493
 8720SOL    HW128792   3.607   5.370   1.351 -1.4482 -0.2228  0.5516
 8720SOL    HW228793   3.540   5.397   1.217  1.1704  1.0111 -0.5791
 8721SOL     OW28794   5.369   4.838   0.385 -0.5426 -0.1296 -0.3000
 8721SOL    HW128795   5.389   4.914   0.331 -0.0853 -0.8327 -1.1465
 8721SOL    HW228796   5.288   4.802   0.348  0.8530 -1.8126 -1.9107
 8722SOL     OW28797   6.279   6.546   6.290 -0.1406  0.3996  0.1799
 8722SOL    HW128798   6.298   6.637   6.267  1.9436 -0.1544 -0.5666
 8722SOL    HW228799   6.311   6.496   6.216 -1.8026 -0.9370  0.3190
 8723SOL     OW28800   1.054   2.417   4.657  0.0925 -0.4863 -0.5899
 8723SOL    HW128801   1.022   2.490   4.709 -0.6312  0.3414 -2.1024
 8723SOL    HW228802   1.146   2.437   4.641 -0.3445  0.6886 -1.8564
 8724SOL     OW28803   5.588   3.892   4.121 -0.3550  0.0340 -0.3886
 8724SOL    HW128804   5.528   3.889   4.047 -1.8230  0.2489  0.7398
 8724SOL    HW228805   5.578   3.980   4.157 -0.0625 -0.2356  0.3748
 8725SOL     OW28806   1.112   6.457   9.388  0.1479 -0.1932 -0.4591
 8725SOL    HW128807   1.088   6.493   9.303  2.1071  2.7758  0.0920
 8725SOL    HW228808   1.055   6.502   9.450  1.6115  0.9365  0.1156
 8726SOL     OW28809   6.853   0.501   8.648  0.3728  0.3372 -0.6837
 8726SOL    HW128810   6.876   0.544   8.730  1.5195 -0.5310 -0.5299
 8726SOL    HW228811   6.840   0.409   8.672 -0.6837  0.3267 -1.2394
 8727SOL     OW28812   7.610   0.057   2.844  0.5507  0.1334  0.6131
 8727SOL    HW128813   7.675   0.114   2.884  0.9819 -0.3577  0.6207
 8727SOL    HW228814   7.654   0.019   2.768  0.1215  0.1531  0.3490
 8728SOL     OW28815   5.157   9.451   9.471  0.1801  0.1208 -0.1273
 8728SOL    HW128816   5.128   9.414   9.554  1.1446 -0.3996 -0.0065
 8728SOL    HW228817   5.243   9.487   9.489 -0.2054  1.3210 -0.5645
 8729SOL     OW28818   6.115   9.948   3.634 -0.2895  0.6734  0.3060
 8729SOL    HW128819   6.072   9.900   3.563  1.1086  0.1237 -0.2040
 8729SOL    HW228820   6.197   9.978   3.595  1.1741 -0.8243  2.0500
 8730SOL     OW28821   9.736   0.730   3.219 -0.4268 -0.2408 -0.4266
 8730SOL    HW128822   9.684   0.684   3.285  0.6760 -2.8188 -1.2206
 8730SOL    HW228823   9.688   0.716   3.137  0.4072 -0.7639 -0.8260
 8731SOL     OW28824  10.223   0.004   7.416  0.0116 -0.3135 -0.1736
 8731SOL    HW128825  10.173  -0.042   7.483  0.5306 -0.8022 -0.1150
 8731SOL    HW228826  10.292   0.049   7.464  0.0583 -0.2167 -0.3306
 8732SOL     OW28827   1.887   3.515   7.964  0.4994 -0.3492 -0.1993
 8732SOL    HW128828   1.885   3.504   8.059  0.6493 -0.8418 -0.2504
 8732SOL    HW228829   1.959   3.458   7.934  0.4506 -0.2037 -0.6065
 8733SOL     OW28830   6.008   2.452   1.785  0.2343  0.2299  0.4143
 8733SOL    HW128831   5.924   2.426   1.822 -0.6667  1.2865 -0.7970
 8733SOL    HW228832   6.043   2.373   1.745 -0.9977  0.1283 -0.5195
 8734SOL     OW28833   2.264   2.557   1.743  0.2194 -0.2012  0.1476
 8734SOL    HW128834   2.326   2.496   1.702  0.7971  0.8069 -0.5427
 8734SOL    HW228835   2.276   2.544   1.837  0.9326 -0.5602  0.0154
 8735SOL     OW28836   7.260   1.671   4.559  0.1008  0.1018  0.1941
 8735SOL    HW128837   7.226   1.618   4.631 -1.0496 -0.4236 -0.6999
 8735SOL    HW228838   7.355   1.674   4.574 -0.1908  0.7420  2.1876
 8736SOL     OW28839   6.870   2.496   3.275 -0.0936  0.5496  0.1227
 8736SOL    HW128840   6.781   2.460   3.274  0.0736  0.1400  0.1109
 8736SOL    HW228841   6.862   2.577   3.225 -0.2916  0.1108 -0.5659
 8737SOL     OW28842   4.249   1.929   0.639  0.0196 -0.3571  0.5002
 8737SOL    HW128843   4.287   1.843   0.621 -0.2065 -0.1536 -1.0780
 8737SOL    HW228844   4.257   1.976   0.556 -0.7501  0.8120  1.0694
 8738SOL     OW28845   0.154   8.886   2.902 -0.1287 -0.3931 -0.9613
 8738SOL    HW128846   0.140   8.811   2.844 -1.1718  1.2449 -2.9687
 8738SOL    HW228847   0.249   8.893   2.911 -0.0091 -1.8359 -0.8278
 8739SOL     OW28848  10.006   2.800   1.833 -0.2499  0.3230 -0.1571
 8739SOL    HW128849   9.931   2.741   1.832  0.8983 -1.2223 -1.7370
 8739SOL    HW228850   9.967   2.888   1.836 -2.0268 -0.4445  1.2092
 8740SOL     OW28851   8.443   5.983   5.886  1.1383 -0.0589  0.2498
 8740SOL    HW128852   8.384   5.909   5.875  1.6561 -0.4214 -0.1556
 8740SOL    HW228853   8.386   6.057   5.908  0.6946 -0.7600  1.5763
 8741SOL     OW28854   3.868   4.013   4.791 -0.3774 -0.1694  0.2285
 8741SOL    HW128855   3.870   3.957   4.869 -1.6754  2.6852  2.5012
 8741SOL    HW228856   3.957   4.048   4.785  0.5588 -2.5683 -1.4451
 8742SOL     OW28857   9.682   3.384   1.253  0.2067  0.1801 -0.4926
 8742SOL    HW128858   9.590   3.406   1.271  0.3687  0.3990  0.0917
 8742SOL    HW228859   9.700   3.308   1.309  0.2669 -0.1157 -0.9100
 8743SOL     OW28860   9.903   2.507   5.996 -0.2842 -0.2940 -0.4324
 8743SOL    HW128861   9.826   2.535   6.045  0.9797  0.1883  1.4012
 8743SOL    HW228862   9.889   2.413   5.981 -1.6821 -0.0042 -1.0742
 8744SOL     OW28863   3.449   4.742   6.219 -0.5638  0.2065 -0.1620
 8744SOL    HW128864   3.412   4.719   6.304 -0.1250 -0.9601 -0.2611
 8744SOL    HW228865   3.541   4.761   6.238 -0.2151 -1.0489 -0.4916
 8745SOL     OW28866   3.651   8.660   8.802 -0.4896  0.9354  0.0111
 8745SOL    HW128867   3.635   8.678   8.709 -0.4603  0.6611 -0.0502
 8745SOL    HW228868   3.677   8.568   8.804 -0.5241  0.9308  0.2953
 8746SOL     OW28869   5.320   0.625   9.534  0.2183  0.1944  0.9756
 8746SOL    HW128870   5.232   0.655   9.553 -0.3790  0.3223 -1.6165
 8746SOL    HW228871   5.377   0.682   9.585 -1.0899  2.5286 -0.0261
 8747SOL     OW28872   5.683   4.502   3.478 -0.1846 -0.2790  0.3199
 8747SOL    HW128873   5.634   4.463   3.405  0.4939 -0.8375  0.1401
 8747SOL    HW228874   5.617   4.524   3.543 -0.8796  0.8316 -0.7219
 8748SOL     OW28875   8.322   5.422   2.146 -0.3212 -0.2710 -0.0922
 8748SOL    HW128876   8.298   5.515   2.151 -0.8681 -0.3714 -0.6749
 8748SOL    HW228877   8.418   5.422   2.144 -0.1548  0.1069  2.9658
 8749SOL     OW28878   4.021   7.300   0.435 -0.0771  0.6013 -0.3804
 8749SOL    HW128879   4.076   7.313   0.357  1.4296  0.8069  0.6825
 8749SOL    HW228880   4.050   7.216   0.471  0.9511  1.6056  1.2659
 8750SOL     OW28881   8.054   9.996   0.993 -0.5194 -0.5012  0.0190
 8750SOL    HW128882   8.134   9.955   0.960  0.6781  2.4569 -1.1236
 8750SOL    HW228883   8.019  10.044   0.918 -2.0036  0.2684  1.1552
 8751SOL     OW28884   0.613   7.123   7.558  0.0550  0.0648  0.0338
 8751SOL    HW128885   0.529   7.169   7.558  0.3820  0.7793 -1.9626
 8751SOL    HW228886   0.675   7.186   7.521  0.7191 -1.5899 -1.9125
 8752SOL     OW28887   8.117   3.846   2.959 -0.5227 -0.0502 -0.2120
 8752SOL    HW128888   8.120   3.822   2.867 -1.9641  1.2478 -0.6478
 8752SOL    HW228889   8.175   3.922   2.966 -1.3862  0.6404 -0.3458
 8753SOL     OW28890   6.732   6.999   9.837  0.2184 -0.6699  0.1239
 8753SOL    HW128891   6.809   6.966   9.884  0.3041  0.2752  0.6636
 8753SOL    HW228892   6.759   6.999   9.745  0.2882 -1.8759  0.1372
 8754SOL     OW28893   1.481   9.576   1.106 -0.0242  0.1255 -0.1871
 8754SOL    HW128894   1.538   9.632   1.158  0.5301 -0.3768 -0.2454
 8754SOL    HW228895   1.509   9.589   1.015 -0.9499  0.9542 -0.3671
 8755SOL     OW28896   9.194   4.399   3.613  0.6339 -0.3748  0.4726
 8755SOL    HW128897   9.242   4.453   3.675  0.7602  1.5338 -1.1462
 8755SOL    HW228898   9.260   4.370   3.550 -0.0218  1.3897 -1.1670
 8756SOL     OW28899   8.714   7.679   9.679 -0.1395  0.3963  0.0546
 8756SOL    HW128900   8.773   7.752   9.696  1.5191 -1.2665  1.9472
 8756SOL    HW228901   8.768   7.615   9.632 -0.6637 -0.7660  0.9848
 8757SOL     OW28902   3.444   4.487   6.613 -0.2918 -0.0318 -0.3650
 8757SOL    HW128903   3.353   4.460   6.599 -1.3772  3.3436 -0.6876
 8757SOL    HW228904   3.492   4.449   6.539 -1.5861 -1.1078 -0.6921
 8758SOL     OW28905   7.026   5.861   9.662 -0.6459 -0.0220  0.4203
 8758SOL    HW128906   6.970   5.814   9.601 -0.8635  1.2572 -0.4141
 8758SOL    HW228907   7.107   5.810   9.665 -1.6022 -1.5565  1.1723
 8759SOL     OW28908   7.536   8.132   7.396 -0.2664  0.2173 -0.1651
 8759SOL    HW128909   7.478   8.077   7.449  0.0087 -0.2875 -0.3806
 8759SOL    HW228910   7.548   8.211   7.448 -0.5501  0.0145  0.2177
 8760SOL     OW28911   1.928   8.974   3.547  0.4062 -0.5154 -0.3115
 8760SOL    HW128912   2.000   8.912   3.562  0.5498 -0.3681 -0.3842
 8760SOL    HW228913   1.857   8.920   3.512 -0.7046 -1.2901  2.8028
 8761SOL     OW28914   4.037   6.745   5.838 -0.2666 -0.1461  0.1519
 8761SOL    HW128915   4.020   6.839   5.845 -1.7208 -0.4458  1.2594
 8761SOL    HW228916   3.968   6.714   5.779  0.9039 -0.3822 -1.1441
 8762SOL     OW28917   8.611   7.401   8.911 -0.3466 -0.1113  0.1630
 8762SOL    HW128918   8.574   7.437   8.991 -1.1080  1.6148 -0.9097
 8762SOL    HW228919   8.561   7.320   8.895 -1.5885  0.5916  0.3713
 8763SOL     OW28920   8.930   0.715   3.974 -0.0135 -0.1797  0.5302
 8763SOL    HW128921   8.977   0.638   3.943  0.0800 -0.8788  2.3013
 8763SOL    HW228922   8.850   0.680   4.013 -0.3051  0.6884  0.7417
 8764SOL     OW28923   0.322   2.903   2.559  0.0494  0.4064 -0.8769
 8764SOL    HW128924   0.365   2.987   2.575  2.1806 -0.8194  0.2605
 8764SOL    HW228925   0.304   2.868   2.646  2.1798 -1.6960 -1.1708
 8765SOL     OW28926   2.397   1.493   5.459 -0.0791  0.0300 -0.1516
 8765SOL    HW128927   2.352   1.447   5.530 -0.2091 -0.0567 -0.2908
 8765SOL    HW228928   2.400   1.431   5.387 -1.9937  0.8669 -1.0162
 8766SOL     OW28929   1.468   1.710   7.674 -0.6347  0.3934 -0.1264
 8766SOL    HW128930   1.475   1.679   7.764  2.4121 -1.6170 -0.8960
 8766SOL    HW228931   1.487   1.804   7.680  0.2901  0.1497  1.2758
 8767SOL     OW28932   0.469   5.797   7.198 -0.2753  0.0932 -0.0315
 8767SOL    HW128933   0.436   5.707   7.206 -0.9979  0.0939 -2.3621
 8767SOL    HW228934   0.563   5.790   7.215 -0.3582 -1.0611  0.0138
 8768SOL     OW28935   7.543   7.648   1.948  0.3682 -0.7776 -0.0737
 8768SOL    HW128936   7.527   7.730   1.902  0.6831 -1.1455 -0.8537
 8768SOL    HW228937   7.570   7.675   2.036 -0.9124 -0.0751  0.1330
 8769SOL     OW28938   9.123   6.274   7.012  0.3218 -0.2496  0.4371
 8769SOL    HW128939   9.117   6.240   7.102 -1.7903  2.8189  1.6295
 8769SOL    HW228940   9.096   6.201   6.957  0.0332 -1.7337  2.4351
 8770SOL     OW28941   9.501   1.496   9.894  0.4328 -0.3539  0.3952
 8770SOL    HW128942   9.467   1.446   9.969  0.0316  0.5206  0.8179
 8770SOL    HW228943   9.517   1.583   9.930 -0.0104  0.1480 -0.6045
 8771SOL     OW28944   5.687   0.061   4.308  0.8319 -0.1873 -0.8097
 8771SOL    HW128945   5.721   0.069   4.397 -1.5047 -0.6698  0.2026
 8771SOL    HW228946   5.691   0.149   4.272  0.8314  0.2107  0.1566
 8772SOL     OW28947   4.642   7.815   4.420  0.3269  0.0544  0.3961
 8772SOL    HW128948   4.688   7.892   4.387 -1.2805 -0.1215 -2.6515
 8772SOL    HW228949   4.708   7.746   4.422  1.1268  0.8064  0.3054
 8773SOL     OW28950   0.477   0.516   2.475  0.2235 -0.0901 -0.3526
 8773SOL    HW128951   0.495   0.610   2.470  0.6588 -0.1798 -0.4627
 8773SOL    HW228952   0.413   0.501   2.405 -0.7527  0.3300  0.4224
 8774SOL     OW28953   1.008   2.806   3.155  1.1549 -0.1845  0.3947
 8774SOL    HW128954   1.089   2.761   3.177  1.5199 -0.2514 -0.9575
 8774SOL    HW228955   1.037   2.886   3.111  0.5150 -0.9813 -1.5739
 8775SOL     OW28956   5.421   2.695   0.724  0.2047  0.3079 -0.0117
 8775SOL    HW128957   5.440   2.771   0.669 -1.3931  0.4393 -0.4334
 8775SOL    HW228958   5.502   2.644   0.724  0.2897  0.3075 -2.4820
 8776SOL     OW28959   8.388   3.205   4.318 -0.0627 -0.1429 -0.1756
 8776SOL    HW128960   8.449   3.206   4.245  0.9710 -1.1815  0.6380
 8776SOL    HW228961   8.410   3.283   4.368  0.5670 -0.4714  0.0723
 8777SOL     OW28962   4.186   4.395   6.177  0.4452  0.1794  0.1166
 8777SOL    HW128963   4.163   4.305   6.156  2.5477 -0.6047  0.9590
 8777SOL    HW228964   4.204   4.435   6.092 -1.6195  0.1717 -0.3571
 8778SOL     OW28965   2.058   0.768   8.582  0.7813  0.2782 -0.4943
 8778SOL    HW128966   2.070   0.681   8.619 -0.0372  0.3694  0.0246
 8778SOL    HW228967   1.964   0.773   8.563  0.9800  0.7085 -1.3812
 8779SOL     OW28968   4.824   8.224   7.469 -0.6658 -0.1526 -0.2058
 8779SOL    HW128969   4.744   8.227   7.417 -2.4240 -0.9510  2.3077
 8779SOL    HW228970   4.893   8.209   7.405 -2.1606  2.7893 -2.7558
 8780SOL     OW28971  10.351   7.130   2.942 -0.3522 -0.3173 -0.1095
 8780SOL    HW128972  10.411   7.142   3.015  0.0204 -1.3281 -0.2279
 8780SOL    HW228973  10.397   7.070   2.883 -1.5885 -1.3742 -0.0618
 8781SOL     OW28974   9.414   3.191   7.523 -0.1193 -0.3849 -0.1675
 8781SOL    HW128975   9.352   3.118   7.510  0.1325 -0.8122  0.9433
 8781SOL    HW228976   9.498   3.157   7.493 -0.2352 -0.1218 -0.8041
 8782SOL     OW28977   8.868   9.450   6.619 -0.1131  0.0099  0.4729
 8782SOL    HW128978   8.781   9.485   6.637  0.4970  1.9839 -0.1400
 8782SOL    HW228979   8.904   9.428   6.705 -1.7732 -2.4493  0.6470
 8783SOL     OW28980   6.616   1.494   5.257  0.1032  0.2969 -0.2230
 8783SOL    HW128981   6.655   1.496   5.345  0.0256  2.4623 -0.1771
 8783SOL    HW228982   6.688   1.468   5.200  1.0594  1.9479  0.1518
 8784SOL     OW28983   8.659   3.010   6.653 -0.5254 -0.3447  0.1321
 8784SOL    HW128984   8.679   3.052   6.736 -0.4930  1.2272 -0.6251
 8784SOL    HW228985   8.618   2.927   6.677  1.0862 -0.7374  1.6931
 8785SOL     OW28986   7.725   9.575   0.625  0.3526  0.4953  0.4080
 8785SOL    HW128987   7.752   9.489   0.595  0.7156  0.5297  0.6321
 8785SOL    HW228988   7.629   9.569   0.632  0.2217  0.5744 -0.9911
 8786SOL     OW28989   6.208   0.152   9.000  0.1864  0.0207  0.3850
 8786SOL    HW128990   6.169   0.238   8.985 -0.1857  0.2284  2.2764
 8786SOL    HW228991   6.156   0.093   8.946 -1.4570  0.5877  1.2704
 8787SOL     OW28992   1.866   2.500   2.507 -0.3816  0.3145  0.0240
 8787SOL    HW128993   1.823   2.420   2.537  2.2333 -0.8434  0.9799
 8787SOL    HW228994   1.898   2.478   2.420  1.8145 -0.3484  0.9500
 8788SOL     OW28995  10.017   2.766   9.860 -0.6547  0.4245  0.0835
 8788SOL    HW128996   9.922   2.758   9.849 -0.5201 -0.3035 -0.6453
 8788SOL    HW228997  10.031   2.762   9.955 -1.1717 -1.9648  0.1152
 8789SOL     OW28998   6.894   3.088   3.218  0.0565 -0.3432 -0.5110
 8789SOL    HW128999   6.803   3.059   3.204 -0.3330 -0.4219  1.7538
 8789SOL    HW229000   6.891   3.183   3.209 -0.3800 -0.2945  0.1089
 8790SOL     OW29001   0.135   9.089   9.536 -0.0289 -0.1971 -0.2339
 8790SOL    HW129002   0.112   9.149   9.607  1.0341 -0.7862  0.6331
 8790SOL    HW229003   0.125   9.141   9.456  1.7134  1.4321  0.5413
 8791SOL     OW29004   1.052   5.471   9.667 -0.0942  0.0447 -0.3659
 8791SOL    HW129005   1.004   5.548   9.636 -0.4889  0.2578  0.7088
 8791SOL    HW229006   1.144   5.497   9.662 -0.1663  0.1794 -1.0525
 8792SOL     OW29007   9.353   7.065   9.822 -0.2000 -0.0086  0.0349
 8792SOL    HW129008   9.294   7.054   9.747 -0.4704 -0.2013  0.2739
 8792SOL    HW229009   9.376   7.158   9.820  1.2575 -0.3398 -1.3612
 8793SOL     OW29010   0.686   7.438   7.854 -0.1814  0.1427 -0.5960
 8793SOL    HW129011   0.770   7.418   7.896 -0.1116  1.0179 -0.3119
 8793SOL    HW229012   0.709   7.493   7.779 -0.4946  0.2765 -0.5939
 8794SOL     OW29013   0.122   7.034   9.827 -0.2093  0.0243 -0.3498
 8794SOL    HW129014   0.085   6.990   9.751 -2.5296  2.8205 -0.9846
 8794SOL    HW229015   0.047   7.074   9.871  1.6624  3.8160 -0.2020
 8795SOL     OW29016   1.271   1.336   8.331 -0.7469  0.4832  0.3965
 8795SOL    HW129017   1.187   1.382   8.338 -0.7918  0.5350 -0.3335
 8795SOL    HW229018   1.258   1.274   8.259 -0.7449 -0.8123  1.4689
 8796SOL     OW29019   5.165   4.558   5.169  0.4907 -0.4972 -0.1424
 8796SOL    HW129020   5.169   4.626   5.236  0.5350 -0.3936 -0.2505
 8796SOL    HW229021   5.144   4.478   5.217 -0.4523 -0.2468 -0.1181
 8797SOL     OW29022   6.807   8.373   1.295 -0.3844  0.2158 -0.1235
 8797SOL    HW129023   6.724   8.419   1.309 -0.2720  0.0167  1.4433
 8797SOL    HW229024   6.835   8.347   1.383 -0.6471 -3.1836 -0.8928
 8798SOL     OW29025   6.825   1.767   7.505  0.2866  0.2193 -0.6773
 8798SOL    HW129026   6.909   1.735   7.537  0.1955  0.0563 -0.6004
 8798SOL    HW229027   6.834   1.771   7.410  0.1266 -0.5150 -0.7235
 8799SOL     OW29028   7.990   2.499   6.057  0.2418 -0.3256  0.0167
 8799SOL    HW129029   7.974   2.559   5.984  0.8164  0.8555  0.8261
 8799SOL    HW229030   7.930   2.528   6.126  1.0419 -0.1722  0.6790
 8800SOL     OW29031   3.768   7.524  10.330  0.3170 -0.1804  0.0482
 8800SOL    HW129032   3.780   7.429  10.328 -1.9251 -0.5531  0.9773
 8800SOL    HW229033   3.680   7.539  10.297 -0.1325  1.3795  1.7357
 8801SOL     OW29034   0.512   3.626   7.208 -0.2648  0.5726  0.6244
 8801SOL    HW129035   0.606   3.619   7.222 -0.3095 -0.2994  0.5434
 8801SOL    HW229036   0.473   3.611   7.295 -0.4158 -1.7399  0.2185
 8802SOL     OW29037   6.678   7.205   1.365  0.0827 -0.9301 -0.6625
 8802SOL    HW129038   6.676   7.298   1.383  0.6557 -1.0055 -0.2007
 8802SOL    HW229039   6.725   7.197   1.282  0.2809 -0.8275 -0.5605
 8803SOL     OW29040   2.197   2.620   9.510 -0.3997  0.0218 -0.2700
 8803SOL    HW129041   2.270   2.632   9.449 -1.0407 -2.3327 -1.6052
 8803SOL    HW229042   2.120   2.614   9.454 -1.5198  1.3192  1.0496
 8804SOL     OW29043   0.214   1.113   4.140 -0.3180 -0.1823  0.6628
 8804SOL    HW129044   0.247   1.152   4.060  0.1591 -1.6397  0.1125
 8804SOL    HW229045   0.278   1.135   4.207 -0.5152  0.7048  0.5662
 8805SOL     OW29046   4.755   2.642   9.395  0.4472 -0.2479  0.2267
 8805SOL    HW129047   4.809   2.563   9.392  2.6043  1.1647 -1.9396
 8805SOL    HW229048   4.706   2.641   9.313 -1.1392 -0.3360  1.1388
 8806SOL     OW29049   5.674   7.836   9.726 -0.1791 -0.2182  0.0617
 8806SOL    HW129050   5.665   7.779   9.803 -1.0736  0.5137  0.5167
 8806SOL    HW229051   5.744   7.796   9.674 -0.2522 -1.2850  0.7627
 8807SOL     OW29052   9.918   3.040   1.805 -0.2573  0.6748 -0.1692
 8807SOL    HW129053   9.903   3.048   1.711 -0.0186 -3.1140 -0.6922
 8807SOL    HW229054   9.831   3.051   1.844 -1.0563 -1.2092 -1.2587
 8808SOL     OW29055   4.378   8.261   4.754 -0.2107 -0.4284  0.1644
 8808SOL    HW129056   4.335   8.195   4.808 -2.0580 -0.0573 -0.7589
 8808SOL    HW229057   4.408   8.213   4.677  0.8571 -0.6378  0.6885
 8809SOL     OW29058   3.974   8.752   0.572  0.2029  0.2148 -0.4577
 8809SOL    HW129059   3.955   8.749   0.478  1.1122  1.9123 -0.7282
 8809SOL    HW229060   4.068   8.764   0.577  0.3685 -1.2722  0.7405
 8810SOL     OW29061   2.243   5.671   4.495  0.1704 -0.7168  0.8436
 8810SOL    HW129062   2.319   5.693   4.441 -1.7446  2.9751 -0.6658
 8810SOL    HW229063   2.269   5.696   4.584  1.0524 -0.4104  0.5139
 8811SOL     OW29064   5.634   3.378   6.702 -0.0436  0.3805  0.6516
 8811SOL    HW129065   5.688   3.456   6.687  1.5295 -1.0729 -2.4320
 8811SOL    HW229066   5.549   3.400   6.666  0.5585  0.5709 -0.7356
 8812SOL     OW29067   0.658   1.325   4.255  0.3760  0.1268 -0.2417
 8812SOL    HW129068   0.692   1.396   4.199 -1.5721  0.6630 -0.8355
 8812SOL    HW229069   0.705   1.335   4.338  2.4646  0.0743 -1.3434
 8813SOL     OW29070   9.340   7.327   8.611  0.0962 -0.1009 -0.0426
 8813SOL    HW129071   9.351   7.247   8.560 -3.8764 -0.7056 -0.2519
 8813SOL    HW229072   9.375   7.306   8.698  1.0256 -1.2650 -0.6698
 8814SOL     OW29073   2.320   6.343   4.254  0.1776  0.0227 -0.7672
 8814SOL    HW129074   2.238   6.307   4.219  0.4245  0.0905 -1.4339
 8814SOL    HW229075   2.364   6.379   4.177  1.6147 -1.5137 -0.7110
 8815SOL     OW29076   7.810   4.126   0.570  0.5432 -0.4885  0.6606
 8815SOL    HW129077   7.748   4.076   0.517 -0.3131  0.4009  0.7913
 8815SOL    HW229078   7.864   4.172   0.506 -1.8290  2.2469  0.4136
 8816SOL     OW29079   3.725   4.309   1.739  0.0011  0.6415  0.2442
 8816SOL    HW129080   3.775   4.279   1.815 -0.3942  0.2922  0.3719
 8816SOL    HW229081   3.634   4.307   1.769 -0.0591  1.6304  0.1356
 8817SOL     OW29082   1.176   6.175   7.012  0.0099  0.4487 -0.3912
 8817SOL    HW129083   1.244   6.109   7.002 -0.2236  0.0691  0.4306
 8817SOL    HW229084   1.216   6.243   7.067  0.3823  1.1992 -1.5563
 8818SOL     OW29085   2.564   8.105   0.596 -0.1673 -0.6206  0.1534
 8818SOL    HW129086   2.479   8.074   0.624 -0.7623  2.0270  1.6649
 8818SOL    HW229087   2.608   8.132   0.677  1.4735 -0.4421 -0.7377
 8819SOL     OW29088   6.602   9.681   6.856 -0.0943 -0.2952  0.9904
 8819SOL    HW129089   6.531   9.715   6.801 -1.6532 -3.2201  1.0148
 8819SOL    HW229090   6.567   9.681   6.945 -0.1173 -1.7533  1.0091
 8820SOL     OW29091   2.667  10.153   9.850 -0.5217  0.3291  0.0408
 8820SOL    HW129092   2.698  10.062   9.850 -0.9116  0.1827  0.9487
 8820SOL    HW229093   2.669  10.178   9.943 -1.7482  0.7883 -0.0472
 8821SOL     OW29094   3.953   1.565   6.000 -0.3307 -0.9026  0.8348
 8821SOL    HW129095   4.030   1.522   6.037 -0.4043 -1.9212 -0.1398
 8821SOL    HW229096   3.882   1.501   6.009 -0.5689 -0.8000 -0.1293
 8822SOL     OW29097   8.819   8.809   9.320 -0.5904 -0.3913  0.3072
 8822SOL    HW129098   8.792   8.848   9.403 -0.6790 -0.4566  0.3095
 8822SOL    HW229099   8.823   8.715   9.338  0.1530 -0.3412  0.4504
 8823SOL     OW29100   0.209   0.497   9.796 -0.1252 -0.4688  0.0582
 8823SOL    HW129101   0.202   0.421   9.737  0.4514  0.2420 -0.9654
 8823SOL    HW229102   0.194   0.461   9.883 -2.4367 -1.3476 -0.6009
 8824SOL     OW29103   6.182   1.214   6.026  0.0073 -0.5683 -0.7349
 8824SOL    HW129104   6.243   1.141   6.040 -1.1646 -1.9031 -2.2406
 8824SOL    HW229105   6.153   1.238   6.114  1.8902 -0.5746 -0.0642
 8825SOL     OW29106   6.939   5.023   1.149 -0.3288  0.0519 -0.1886
 8825SOL    HW129107   6.889   5.095   1.109 -0.5185  0.2422  0.3770
 8825SOL    HW229108   7.029   5.037   1.120 -0.5751 -0.2571 -1.1728
 8826SOL     OW29109   3.121   2.091   3.083 -0.0239 -0.1042  0.0319
 8826SOL    HW129110   3.090   2.153   3.148 -1.1014 -0.6286  0.0516
 8826SOL    HW229111   3.129   2.008   3.130 -2.4187 -0.8867 -0.7883
 8827SOL     OW29112   6.506   6.546   4.978 -0.0975 -0.1232  0.0067
 8827SOL    HW129113   6.578   6.609   4.975 -0.9824  0.9260 -0.3897
 8827SOL    HW229114   6.548   6.460   4.976  1.1561  0.4526  0.6501
 8828SOL     OW29115   8.870   6.946   8.078 -0.4282  0.3298  0.4655
 8828SOL    HW129116   8.833   6.938   8.166  0.6845 -2.3945  0.8054
 8828SOL    HW229117   8.794   6.948   8.020 -1.1781 -0.6255  1.3759
 8829SOL     OW29118   1.471   9.338   9.694 -0.0144  0.3801  0.5965
 8829SOL    HW129119   1.393   9.393   9.686  0.1830  0.4985 -0.7343
 8829SOL    HW229120   1.437   9.250   9.710 -0.3998  0.5491  0.7006
 8830SOL     OW29121  10.303   4.307   1.744  0.4444  0.3057 -0.0607
 8830SOL    HW129122  10.217   4.341   1.718  0.4779  0.1686 -0.3480
 8830SOL    HW229123  10.361   4.383   1.741  0.3162  0.4166  0.2189
 8831SOL     OW29124   5.116   3.758   6.195  0.4468  0.1035  0.3571
 8831SOL    HW129125   5.211   3.755   6.190  0.3963 -0.1937 -1.0409
 8831SOL    HW229126   5.092   3.688   6.256  1.0367 -1.7698 -1.4403
 8832SOL     OW29127   3.896   6.637   2.069 -0.1179 -0.4209 -0.3323
 8832SOL    HW129128   3.816   6.633   2.016  0.9567 -1.2031 -1.9825
 8832SOL    HW229129   3.865   6.652   2.158 -2.1861 -1.7055 -0.7643
 8833SOL     OW29130   9.023   6.528   0.179  0.1070 -0.2693 -0.4291
 8833SOL    HW129131   9.117   6.532   0.163  0.2110  0.0831  0.2516
 8833SOL    HW229132   8.986   6.590   0.115  0.2626 -0.9416 -1.1905
 8834SOL     OW29133   6.024   0.445   0.103  0.0102 -0.5120 -0.0511
 8834SOL    HW129134   5.948   0.403   0.062  0.1295  0.4232 -1.2758
 8834SOL    HW229135   6.097   0.428   0.043  0.7358 -1.1645  0.9715
 8835SOL     OW29136   1.251   3.726   8.937  0.5307  0.6610 -0.7616
 8835SOL    HW129137   1.304   3.801   8.961 -1.2506  1.8728 -0.4041
 8835SOL    HW229138   1.251   3.670   9.014 -0.2466  1.5867 -0.0753
 8836SOL     OW29139   0.599   5.157   1.323  0.7724  0.4941 -0.0882
 8836SOL    HW129140   0.522   5.168   1.379  0.6108  1.8212 -0.5278
 8836SOL    HW229141   0.655   5.231   1.345  1.5511 -0.0009 -0.3671
 8837SOL     OW29142   1.136   8.520   3.083  1.0707  0.1814  0.1387
 8837SOL    HW129143   1.226   8.530   3.051  1.6709  0.2927  1.7470
 8837SOL    HW229144   1.146   8.474   3.167 -0.4972 -0.9722 -0.2709
 8838SOL     OW29145   1.513   9.021   5.651 -1.2422 -0.3244  0.1187
 8838SOL    HW129146   1.501   9.103   5.699 -0.4117  0.5167 -1.0611
 8838SOL    HW229147   1.607   9.004   5.655 -1.4458 -1.3599  0.5735
 8839SOL     OW29148   9.523   4.887   2.242 -0.1668  0.8730 -0.0964
 8839SOL    HW129149   9.458   4.941   2.195 -1.3992  0.3316  0.9139
 8839SOL    HW229150   9.482   4.870   2.327  0.0427 -1.8547 -0.4454
 8840SOL     OW29151   0.484   5.651   9.755 -0.5284  0.2662 -0.5162
 8840SOL    HW129152   0.497   5.568   9.711 -2.0622 -0.1774 -0.1958
 8840SOL    HW229153   0.478   5.629   9.848 -1.4695  0.6388 -0.4715
 8841SOL     OW29154   2.386   0.189   5.020  0.3719  0.0108  0.6341
 8841SOL    HW129155   2.448   0.194   4.947  0.1175 -1.8154  0.2605
 8841SOL    HW229156   2.386   0.278   5.057  2.8160  0.1985  0.3433
 8842SOL     OW29157   8.625   9.422   6.116 -0.2042  0.3530  0.6546
 8842SOL    HW129158   8.668   9.383   6.192  1.1753 -1.2508 -0.8542
 8842SOL    HW229159   8.532   9.410   6.132  0.1159 -3.4212  0.4546
 8843SOL     OW29160   7.087   0.651   6.255  0.3941 -0.2428 -0.2815
 8843SOL    HW129161   7.053   0.569   6.292 -1.1811  0.4691 -0.0763
 8843SOL    HW229162   7.175   0.658   6.292 -0.2384 -0.7710  1.4546
 8844SOL     OW29163  10.032   2.737   3.334  0.0025 -0.0993 -0.2471
 8844SOL    HW129164  10.121   2.772   3.336 -0.4248  0.9656  1.2382
 8844SOL    HW229165  10.035   2.669   3.266  2.5170 -1.5845  1.1824
 8845SOL     OW29166   0.668   1.963   8.160 -0.5528 -0.4128 -0.3057
 8845SOL    HW129167   0.709   1.933   8.241 -0.7876  1.4874  0.5856
 8845SOL    HW229168   0.717   1.919   8.091  1.2573 -0.2572  0.7947
 8846SOL     OW29169   5.570   7.842   5.068  0.0234 -0.0438  0.0620
 8846SOL    HW129170   5.509   7.772   5.091 -0.1892  0.2640  0.4353
 8846SOL    HW229171   5.600   7.877   5.152  1.3273 -0.7095 -0.1054
 8847SOL     OW29172   6.700   4.244   1.136 -0.1484  0.1597  0.0742
 8847SOL    HW129173   6.681   4.338   1.130  1.1918  0.5141  0.8903
 8847SOL    HW229174   6.686   4.223   1.228 -0.7073 -0.5161 -0.1610
 8848SOL     OW29175   2.568   8.547   8.103  0.0423 -0.1309  0.0817
 8848SOL    HW129176   2.577   8.551   8.198 -1.3985 -0.2841  0.2499
 8848SOL    HW229177   2.523   8.628   8.079  2.1480  0.8674 -0.7377
 8849SOL     OW29178   8.383   1.170   6.814 -0.7201  0.0730  0.4857
 8849SOL    HW129179   8.403   1.225   6.890  0.8367  0.5962 -0.2624
 8849SOL    HW229180   8.430   1.088   6.832 -0.1693  0.2790 -0.0127
 8850SOL     OW29181   6.250   8.938   3.754 -0.2745 -0.0060 -0.5738
 8850SOL    HW129182   6.161   8.939   3.718  0.0994  2.6377 -1.7141
 8850SOL    HW229183   6.238   8.946   3.849 -1.2383 -1.8370 -0.5095
 8851SOL     OW29184   6.298   5.378   3.402 -0.1510 -0.6252  0.4150
 8851SOL    HW129185   6.236   5.450   3.408  1.1136  0.4172  1.6415
 8851SOL    HW229186   6.294   5.351   3.310  1.0139  2.6030 -0.7464
 8852SOL     OW29187   3.219   5.866   6.281  0.7517  0.3114  0.4520
 8852SOL    HW129188   3.134   5.827   6.301  1.5278 -1.0116  1.3207
 8852SOL    HW229189   3.236   5.926   6.355  0.0588  1.4983 -0.3247
 8853SOL     OW29190   5.101   1.715   2.326  0.3395 -0.2800 -0.2406
 8853SOL    HW129191   5.121   1.766   2.247 -1.1008 -0.3701 -0.6907
 8853SOL    HW229192   5.022   1.665   2.303 -0.6032  0.3204  1.5268
 8854SOL     OW29193   6.258   9.542   5.799 -0.0203 -0.1759  1.1145
 8854SOL    HW129194   6.274   9.483   5.725  0.8516  0.6721  0.5951
 8854SOL    HW229195   6.172   9.580   5.781  0.5612  0.7071  0.0179
 8855SOL     OW29196   6.567   8.132   8.415  0.1862 -0.5520  0.2650
 8855SOL    HW129197   6.636   8.104   8.354 -0.8428 -0.3478 -1.0211
 8855SOL    HW229198   6.574   8.070   8.488  1.5710 -0.6854  0.0553
 8856SOL     OW29199   6.724   2.579   7.719  0.1152 -0.2169  0.8861
 8856SOL    HW129200   6.726   2.661   7.768 -1.4806  0.8208 -0.6793
 8856SOL    HW229201   6.641   2.538   7.744 -0.6084  0.2122 -0.6757
 8857SOL     OW29202   7.231   9.449   1.861 -0.1526  0.1567  1.0207
 8857SOL    HW129203   7.227   9.362   1.901  0.6779 -0.8973 -1.0552
 8857SOL    HW229204   7.325   9.464   1.846 -0.4349  0.4055 -0.6769
 8858SOL     OW29205   7.670   4.341   8.698 -0.2222 -0.5522  0.1191
 8858SOL    HW129206   7.634   4.380   8.618  0.7432  1.0921  0.4456
 8858SOL    HW229207   7.758   4.313   8.673  0.4358  0.8225  0.8177
 8859SOL     OW29208   3.359   7.691   5.370 -0.4838 -0.5017 -0.6030
 8859SOL    HW129209   3.354   7.599   5.396  1.1774 -0.2971  0.6199
 8859SOL    HW229210   3.340   7.740   5.450 -2.5735  0.2978 -1.5015
 8860SOL     OW29211   2.636   7.215   4.941  0.0456 -0.0323 -0.0313
 8860SOL    HW129212   2.686   7.292   4.966 -0.3941  0.3368 -0.2767
 8860SOL    HW229213   2.570   7.206   5.010  0.3193 -0.4059  0.1894
 8861SOL     OW29214   5.323   7.223   4.125 -0.0948 -0.1085  0.2468
 8861SOL    HW129215   5.299   7.130   4.128  1.1595 -0.4321  0.7328
 8861SOL    HW229216   5.341   7.240   4.032 -3.2205  0.4585 -0.3597
 8862SOL     OW29217   8.884   0.577   9.959  0.6505  0.3327  0.0420
 8862SOL    HW129218   8.847   0.489   9.965 -0.0071  0.6584  0.9542
 8862SOL    HW229219   8.941   0.584  10.035 -1.0894  1.4851  1.3214
 8863SOL     OW29220   6.908   4.616   1.179 -0.1371  0.3327  0.1525
 8863SOL    HW129221   6.984   4.579   1.224  0.4371  3.4453  2.0648
 8863SOL    HW229222   6.934   4.706   1.159 -2.9466  1.1904 -0.0532
 8864SOL     OW29223   0.466   3.503   4.187 -0.3214  0.3929  0.1971
 8864SOL    HW129224   0.490   3.451   4.264 -1.4728 -0.3224  0.0929
 8864SOL    HW229225   0.526   3.578   4.189  0.3799 -0.1708  1.1779
 8865SOL     OW29226   6.232   5.207   0.843  0.1328  0.6652  0.0716
 8865SOL    HW129227   6.185   5.290   0.851  0.4737  0.7497  1.4357
 8865SOL    HW229228   6.166   5.140   0.859  0.0659  0.7083 -0.0247
 8866SOL     OW29229   0.908   6.952   2.968 -0.5152 -0.2220 -0.1665
 8866SOL    HW129230   0.896   6.940   2.874 -1.1623 -0.5440 -0.0435
 8866SOL    HW229231   1.002   6.940   2.981 -0.6139 -1.5377 -0.5799
 8867SOL     OW29232  10.349   7.048   1.455 -0.5288 -0.1810 -0.5668
 8867SOL    HW129233  10.326   7.073   1.544 -0.8248  0.1296 -0.7273
 8867SOL    HW229234  10.313   6.960   1.444 -0.8580 -0.0543 -0.5169
 8868SOL     OW29235   3.625   3.901   9.092  0.5155  0.1114 -0.4303
 8868SOL    HW129236   3.546   3.874   9.140  1.3433 -0.5847  0.5778
 8868SOL    HW229237   3.602   3.888   9.000 -1.5870  2.7285 -0.4246
 8869SOL     OW29238   5.446   1.311   9.773  0.6323  0.2868 -0.2659
 8869SOL    HW129239   5.435   1.227   9.728 -1.6462 -0.3201  1.2402
 8869SOL    HW229240   5.469   1.288   9.863  2.0384  1.3758 -0.3137
 8870SOL     OW29241  10.102   3.288   9.773 -0.3263 -0.3717 -0.1253
 8870SOL    HW129242  10.147   3.204   9.766  1.7038  0.6016  0.6391
 8870SOL    HW229243  10.131   3.337   9.695 -2.4604 -0.7539 -1.2396
 8871SOL     OW29244   1.474   4.890   4.308  0.1768 -0.4066 -0.0175
 8871SOL    HW129245   1.379   4.888   4.301  0.0593 -1.0818  1.2953
 8871SOL    HW229246   1.503   4.805   4.274  0.1576 -0.8213  0.9406
 8872SOL     OW29247   2.906   0.861   5.780 -0.1549 -0.7308  0.6501
 8872SOL    HW129248   2.886   0.792   5.717  0.8876  1.9297 -2.8918
 8872SOL    HW229249   2.852   0.935   5.754  2.7907  1.6038  0.5825
 8873SOL     OW29250   5.411   5.068   8.695  0.1360  0.1696 -0.4395
 8873SOL    HW129251   5.320   5.064   8.666  0.2459  0.9377 -0.9104
 8873SOL    HW229252   5.453   4.993   8.652  0.5382  1.8419 -3.2706
 8874SOL     OW29253   9.884   2.180   0.372  0.0259  0.3272  0.4290
 8874SOL    HW129254   9.833   2.224   0.439 -1.1147  0.1221 -0.2776
 8874SOL    HW229255   9.885   2.088   0.399 -0.5531  0.2206  0.1122
 8875SOL     OW29256   8.154   5.822   4.374  0.3277 -0.3689 -0.1664
 8875SOL    HW129257   8.172   5.785   4.460 -0.1165  1.7525  0.9189
 8875SOL    HW229258   8.070   5.866   4.385  0.2639 -0.0617 -1.7056
 8876SOL     OW29259   8.431   7.257   5.786  0.0228 -0.4046  0.6183
 8876SOL    HW129260   8.527   7.260   5.787  0.0085  0.7187  0.5181
 8876SOL    HW229261   8.406   7.345   5.757 -1.0655 -0.1855  2.1413
 8877SOL     OW29262   4.177   1.477   2.935 -0.4730  0.2701 -0.7652
 8877SOL    HW129263   4.144   1.524   2.859  0.9216  0.7136 -1.1195
 8877SOL    HW229264   4.100   1.431   2.970 -1.0487 -0.3039 -2.6879
 8878SOL     OW29265   6.301   0.989   5.144  0.4368 -0.2117 -0.3650
 8878SOL    HW129266   6.391   1.014   5.163  0.0909  1.4313 -0.7979
 8878SOL    HW229267   6.285   1.018   5.054 -0.6174 -0.2161 -0.2025
 8879SOL     OW29268   1.708   0.456   4.161 -0.2330  0.4071 -0.2561
 8879SOL    HW129269   1.742   0.422   4.078  0.7398  1.7257 -0.4368
 8879SOL    HW229270   1.682   0.546   4.142  0.3128  0.8439  0.9278
 8880SOL     OW29271   4.496   2.420   6.724 -0.3752 -0.1063 -0.4707
 8880SOL    HW129272   4.457   2.479   6.660  0.4501  0.2809 -0.6300
 8880SOL    HW229273   4.443   2.432   6.803 -0.2133  0.8567 -0.4976
 8881SOL     OW29274   6.757   4.595   0.464 -0.5410 -0.5345  0.3467
 8881SOL    HW129275   6.848   4.606   0.437 -0.6016 -0.2599  0.2448
 8881SOL    HW229276   6.742   4.667   0.525 -0.9694  0.0148 -0.3794
 8882SOL     OW29277   6.532   6.712   1.026  0.4290  0.1589 -0.3622
 8882SOL    HW129278   6.608   6.653   1.027 -0.2823 -0.8042  0.9731
 8882SOL    HW229279   6.503   6.712   0.935  0.9618 -0.8858 -0.5497
 8883SOL     OW29280   3.552   5.097   9.320  0.0718 -0.8317 -0.0892
 8883SOL    HW129281   3.595   5.138   9.394  0.7344 -1.6010 -0.0281
 8883SOL    HW229282   3.623   5.058   9.269 -0.2603  0.5734 -1.7065
 8884SOL     OW29283   2.050   8.475   6.883  0.1380  0.1296  0.4545
 8884SOL    HW129284   2.130   8.454   6.834  0.9339  0.8932  1.3761
 8884SOL    HW229285   2.023   8.392   6.922  0.2094 -0.2279 -0.2444
 8885SOL     OW29286   2.731   3.862   8.068 -0.1411 -0.3892  0.3010
 8885SOL    HW129287   2.812   3.867   8.120  1.2536 -0.0523 -1.7841
 8885SOL    HW229288   2.692   3.949   8.075  0.2009 -0.2508  0.5209
 8886SOL     OW29289   4.316   2.711   1.068 -0.4727  0.3637 -0.1223
 8886SOL    HW129290   4.356   2.714   1.154  0.4292  1.3068 -0.5591
 8886SOL    HW229291   4.257   2.786   1.065 -1.3807 -0.3140  0.0642
 8887SOL     OW29292   9.497   1.943   2.793 -0.5049 -0.0798 -0.7566
 8887SOL    HW129293   9.441   1.994   2.851 -0.7679  1.6171 -2.3658
 8887SOL    HW229294   9.463   1.962   2.705  0.6888 -1.4713 -1.5613
 8888SOL     OW29295   0.537   8.282   7.228  0.5874  0.5569 -0.0862
 8888SOL    HW129296   0.498   8.368   7.210 -0.7231 -0.2735 -1.4490
 8888SOL    HW229297   0.547   8.279   7.323  1.1057  2.3899 -0.0481
 8889SOL     OW29298   7.361   8.693   7.759  0.0778 -0.3783  0.5613
 8889SOL    HW129299   7.296   8.661   7.821  0.6935 -0.9042  0.9469
 8889SOL    HW229300   7.380   8.618   7.702 -0.6977  0.1752 -0.4713
 8890SOL     OW29301   6.610   8.361   1.735 -0.1718  0.1070 -0.0922
 8890SOL    HW129302   6.557   8.332   1.662 -0.2853 -0.5551  0.2446
 8890SOL    HW229303   6.680   8.413   1.695 -0.9621  0.8384 -0.5505
 8891SOL     OW29304   1.896   8.383   0.089  0.0535  0.3522 -0.1538
 8891SOL    HW129305   1.879   8.365  -0.003 -0.8240  1.0001 -0.1260
 8891SOL    HW229306   1.899   8.479   0.095  0.0497  0.3173  0.4943
 8892SOL     OW29307   6.774   5.167   9.180 -0.0403 -0.2281 -0.1559
 8892SOL    HW129308   6.750   5.241   9.125 -0.2854 -0.5701 -0.5156
 8892SOL    HW229309   6.708   5.165   9.249  0.9762  0.9646  0.8981
 8893SOL     OW29310   6.489   6.388   4.178 -0.1354 -0.2605 -0.3387
 8893SOL    HW129311   6.447   6.354   4.099 -0.7207 -0.4987  0.0629
 8893SOL    HW229312   6.422   6.379   4.246  0.2904  0.1289  0.1396
 8894SOL     OW29313   2.137   7.331   0.968 -0.2197 -0.1337  1.0214
 8894SOL    HW129314   2.198   7.286   1.027  0.4900 -1.1090 -0.4019
 8894SOL    HW229315   2.056   7.280   0.974 -0.4689  0.3433  1.8623
 8895SOL     OW29316   1.161   1.724   6.612  0.2948  0.2529 -0.1107
 8895SOL    HW129317   1.198   1.753   6.696 -0.8029  1.1882  0.0821
 8895SOL    HW229318   1.098   1.657   6.636  1.1470 -0.6511 -0.3512
 8896SOL     OW29319   2.819   9.127   2.082  0.1291 -0.0579 -0.3639
 8896SOL    HW129320   2.849   9.213   2.054 -2.0707  0.4727 -1.3656
 8896SOL    HW229321   2.818   9.075   2.001  1.2062 -0.9816  0.1888
 8897SOL     OW29322   1.355   3.142   3.213  0.3821 -0.1691 -0.0090
 8897SOL    HW129323   1.347   3.101   3.127  1.1950 -0.1544 -0.0957
 8897SOL    HW229324   1.392   3.073   3.269  1.6004  0.3843 -0.1178
 8898SOL     OW29325   5.869   7.415   3.149  0.4611 -0.5894 -0.4468
 8898SOL    HW129326   5.847   7.322   3.147  1.0161 -0.7180 -1.1551
 8898SOL    HW229327   5.952   7.418   3.197  0.1946 -0.3935  0.0134
 8899SOL     OW29328   9.728   1.012   1.286 -0.1250 -0.5588  0.1235
 8899SOL    HW129329   9.694   0.924   1.270  0.4971 -0.6409 -0.8147
 8899SOL    HW229330   9.823   1.001   1.288 -0.0694 -0.0299  0.7910
 8900SOL     OW29331   9.066   3.594   4.138 -0.0421 -0.3071  0.2072
 8900SOL    HW129332   9.021   3.677   4.147  0.5799 -0.0113  0.6895
 8900SOL    HW229333   9.141   3.601   4.197  2.3216  0.3810 -2.6082
 8901SOL     OW29334   3.236   1.757   8.738 -0.0286 -0.1315  0.2141
 8901SOL    HW129335   3.301   1.828   8.742 -1.5214  1.3671 -0.6527
 8901SOL    HW229336   3.176   1.776   8.810 -0.1408 -0.8551  0.3164
 8902SOL     OW29337   7.328   1.506   3.245 -0.3248 -0.7130  0.6037
 8902SOL    HW129338   7.264   1.435   3.256 -0.3544 -0.7102  0.4416
 8902SOL    HW229339   7.340   1.540   3.334 -0.9694 -0.3463  0.5528
 8903SOL     OW29340   7.026   7.403  10.001  0.5010  0.1494  0.6866
 8903SOL    HW129341   7.096   7.406  10.066  0.9485 -0.3020  0.2381
 8903SOL    HW229342   6.994   7.312  10.004  0.9743 -0.0562 -0.1767
 8904SOL     OW29343   6.559   2.258   2.191  0.1654 -0.2431  0.3843
 8904SOL    HW129344   6.548   2.182   2.132  1.0587 -0.9305  1.0830
 8904SOL    HW229345   6.606   2.322   2.138 -0.3299 -0.2791 -0.1168
 8905SOL     OW29346   1.537   5.621   4.637  0.0356 -0.7198 -0.3412
 8905SOL    HW129347   1.526   5.715   4.623  0.5646 -0.6899 -0.5725
 8905SOL    HW229348   1.478   5.601   4.709 -0.8242 -0.3949 -0.9375
 8906SOL     OW29349   9.562   1.198   6.336 -0.7481 -0.1687 -0.5920
 8906SOL    HW129350   9.637   1.253   6.315 -1.9116  1.3783 -0.8287
 8906SOL    HW229351   9.599   1.111   6.349  0.9144  0.2806 -2.0039
 8907SOL     OW29352   3.590   8.394   8.846  0.3387  0.0904  0.1459
 8907SOL    HW129353   3.665   8.340   8.870 -0.7304 -0.4808  2.3847
 8907SOL    HW229354   3.518   8.333   8.835  0.2864  0.5215 -2.9195
 8908SOL     OW29355   4.871   6.719   9.044  0.4963  0.3786  0.5128
 8908SOL    HW129356   4.844   6.648   9.102  1.9031 -0.5900  0.0348
 8908SOL    HW229357   4.966   6.727   9.058  0.6581  0.9342 -0.7761
 8909SOL     OW29358  10.227   2.474   9.012  0.4443  0.0185 -0.2821
 8909SOL    HW129359  10.190   2.431   8.935  0.3840  0.4491 -0.4978
 8909SOL    HW229360  10.310   2.510   8.982  2.4996 -3.3806  0.9038
 8910SOL     OW29361   3.892   5.539   3.030 -0.4526 -0.0425 -0.1780
 8910SOL    HW129362   3.808   5.585   3.018 -0.6343 -0.4758 -0.5914
 8910SOL    HW229363   3.928   5.531   2.942  0.5832  1.1560  0.1110
 8911SOL     OW29364   5.897   9.871   1.001  0.1965  0.1656  0.2295
 8911SOL    HW129365   5.900   9.815   0.924  1.1245  1.2872 -0.5725
 8911SOL    HW229366   5.988   9.895   1.018 -0.2193  2.0475  0.0693
 8912SOL     OW29367   3.895   6.843   8.087  0.5820 -0.0622  1.3165
 8912SOL    HW129368   3.840   6.770   8.055  2.4675 -1.3424  0.8166
 8912SOL    HW229369   3.918   6.818   8.176  1.8136 -0.4866  0.9059
 8913SOL     OW29370   5.580   9.537   3.546  0.0028  0.2338 -0.3730
 8913SOL    HW129371   5.494   9.495   3.546  0.0046  0.2246  0.0306
 8913SOL    HW229372   5.637   9.475   3.592 -0.4430  1.5374  2.1662
 8914SOL     OW29373   1.470   6.363   6.743 -0.4116 -0.3041  0.0420
 8914SOL    HW129374   1.457   6.330   6.832 -0.5228 -0.8295 -0.1674
 8914SOL    HW229375   1.493   6.286   6.692  2.0197  0.3130  0.0848
 8915SOL     OW29376   6.695   7.020   6.214  0.0150  0.5300 -0.3807
 8915SOL    HW129377   6.736   6.935   6.197 -0.4924  0.7384 -3.0207
 8915SOL    HW229378   6.601   7.003   6.209 -0.0879  1.2334 -0.8673
 8916SOL     OW29379   4.267   1.777   3.228  0.1270 -0.4589  0.3524
 8916SOL    HW129380   4.260   1.792   3.133  0.2398  2.3348  0.6906
 8916SOL    HW229381   4.294   1.862   3.263  0.0301 -1.4125  2.9224
 8917SOL     OW29382   8.186   9.730   8.134  0.2668 -0.4332  0.0054
 8917SOL    HW129383   8.207   9.771   8.218 -2.1586 -1.3214  1.1696
 8917SOL    HW229384   8.166   9.639   8.157 -2.3759 -0.2326 -1.1468
 8918SOL     OW29385   8.502   8.072   8.228 -0.5182 -0.3357 -1.1019
 8918SOL    HW129386   8.517   7.979   8.244 -1.2513 -0.6280 -2.0125
 8918SOL    HW229387   8.432   8.096   8.289 -0.2586 -0.3558 -0.7965
 8919SOL     OW29388  10.190   9.131   8.958 -0.2649 -0.4751 -0.4575
 8919SOL    HW129389  10.113   9.162   9.006  0.3946  0.2068  0.1847
 8919SOL    HW229390  10.257   9.197   8.975  1.3385 -2.4368  1.2742
 8920SOL     OW29391   1.221   9.695   7.204 -0.4814  0.1421  0.4017
 8920SOL    HW129392   1.233   9.756   7.132  0.3116 -0.5440 -0.0608
 8920SOL    HW229393   1.132   9.712   7.235 -0.4036  1.2642  0.0451
 8921SOL     OW29394   6.654   5.071   9.435 -0.3302 -0.1397  0.1536
 8921SOL    HW129395   6.624   4.981   9.443  0.6742 -0.4590  0.4575
 8921SOL    HW229396   6.740   5.072   9.475 -0.1854  0.8892 -0.1352
 8922SOL     OW29397   1.721   9.771   1.907 -0.1822 -0.5939 -0.5828
 8922SOL    HW129398   1.753   9.721   1.981  0.4854  0.6213 -0.0178
 8922SOL    HW229399   1.797   9.820   1.876 -1.4071  2.6879  1.0303
 8923SOL     OW29400   2.925   7.550   8.999 -0.0193  0.3991  0.2461
 8923SOL    HW129401   3.001   7.547   9.056  0.8541  0.0787 -0.9061
 8923SOL    HW229402   2.898   7.641   8.999  0.3281  0.5077  0.6817
 8924SOL     OW29403   3.546   7.098   7.404 -0.3082  0.2277  0.3491
 8924SOL    HW129404   3.473   7.064   7.456  0.1073  0.0654  0.8409
 8924SOL    HW229405   3.579   7.022   7.357  1.4311 -0.3858  2.4235
 8925SOL     OW29406   3.416   8.608   2.698  0.5902  0.0743  0.1592
 8925SOL    HW129407   3.474   8.684   2.689  2.5030 -0.9765  2.3063
 8925SOL    HW229408   3.468   8.534   2.665  0.1663 -0.7556  1.2581
 8926SOL     OW29409  10.177  10.209   1.270 -0.2312 -0.9833  0.4104
 8926SOL    HW129410  10.150  10.204   1.178 -1.1849  1.0385  0.5301
 8926SOL    HW229411  10.253  10.268   1.269  1.9947 -3.6416  0.5586
 8927SOL     OW29412   5.869   2.564   4.045  0.8198  0.4085  0.2707
 8927SOL    HW129413   5.842   2.522   4.127  2.3529 -0.0398  0.5833
 8927SOL    HW229414   5.908   2.647   4.072  0.6056  0.6277 -0.0843
 8928SOL     OW29415   9.866   9.324   6.705 -0.1875 -0.1380  0.3085
 8928SOL    HW129416   9.827   9.308   6.792  0.6299  0.9702  0.9098
 8928SOL    HW229417   9.823   9.261   6.648  0.2280 -1.8471  1.7732
 8929SOL     OW29418   8.840   3.702   2.085 -0.3610 -0.0853  0.3017
 8929SOL    HW129419   8.772   3.746   2.034  0.5814 -0.0751 -1.0060
 8929SOL    HW229420   8.848   3.754   2.165  0.8802  2.3223 -1.2744
 8930SOL     OW29421   8.042   3.428   7.242 -0.1877  0.3987 -0.8063
 8930SOL    HW129422   8.004   3.429   7.330  0.4742 -0.8658 -0.4879
 8930SOL    HW229423   8.134   3.408   7.256 -0.1031  0.0527 -1.8011
 8931SOL     OW29424   6.727   9.483   5.054 -0.2742 -0.3249  0.3948
 8931SOL    HW129425   6.683   9.562   5.025  0.2109 -0.2719 -0.2230
 8931SOL    HW229426   6.776   9.510   5.132  0.9606  0.3292 -0.5784
 8932SOL     OW29427   2.526   9.642   9.048  0.4188 -0.2825  0.0703
 8932SOL    HW129428   2.493   9.687   9.126 -1.8460 -1.3343 -0.1894
 8932SOL    HW229429   2.515   9.549   9.068 -0.1457 -0.5669 -1.4445
 8933SOL     OW29430   0.874   1.458   9.622 -0.2694 -1.3522 -0.2137
 8933SOL    HW129431   0.882   1.410   9.540 -1.7176 -1.0063 -0.5894
 8933SOL    HW229432   0.779   1.464   9.638 -0.0873  0.1007  0.5706
 8934SOL     OW29433   1.484   6.908  10.182  0.1818 -0.7757  0.9123
 8934SOL    HW129434   1.559   6.860  10.146 -2.0134 -1.7224 -2.9628
 8934SOL    HW229435   1.490   6.995  10.144 -1.6939 -1.5143 -1.3166
 8935SOL     OW29436   7.698   8.369   3.160 -0.2837  0.1711 -0.0594
 8935SOL    HW129437   7.734   8.349   3.073 -0.6043  0.6673 -0.3132
 8935SOL    HW229438   7.611   8.330   3.160 -0.3299  0.2742 -0.0052
 8936SOL     OW29439   0.107   1.747   0.432  0.3539  0.0304  0.0595
 8936SOL    HW129440   0.089   1.754   0.526 -0.5077  0.0583 -0.1036
 8936SOL    HW229441   0.201   1.729   0.428  0.8822  2.2883  0.8273
 8937SOL     OW29442   1.906   1.680   2.913 -0.3097  0.1622  0.1775
 8937SOL    HW129443   1.916   1.705   2.821 -0.4191 -0.0543  0.1049
 8937SOL    HW229444   1.856   1.751   2.952  1.5860  1.3387  0.5880
 8938SOL     OW29445   5.897   4.215   8.434 -0.1408 -0.5707  0.0528
 8938SOL    HW129446   5.986   4.233   8.461  0.6114 -2.2130 -1.1441
 8938SOL    HW229447   5.888   4.257   8.349 -0.9476  0.5996  0.6779
 8939SOL     OW29448   9.957   3.331   1.440 -0.2625  0.1128  0.0963
 8939SOL    HW129449   9.911   3.404   1.480 -0.9144 -0.9715  1.3918
 8939SOL    HW229450  10.049   3.344   1.465 -0.1165  1.2434 -0.9090
 8940SOL     OW29451   5.844   6.144   0.867  0.0671 -0.3736 -0.2010
 8940SOL    HW129452   5.766   6.090   0.861 -0.1500 -0.2369  1.2262
 8940SOL    HW229453   5.836   6.189   0.951  2.7237 -2.0008  1.0525
 8941SOL     OW29454   2.822   8.554   2.926  0.5675 -0.1564 -1.0614
 8941SOL    HW129455   2.861   8.599   3.001  2.0973 -1.0339 -1.2869
 8941SOL    HW229456   2.749   8.505   2.963  0.0996  0.9521 -0.4910
 8942SOL     OW29457   5.248   7.374   9.908 -0.1145 -0.3079 -0.3362
 8942SOL    HW129458   5.154   7.360   9.917 -0.0788 -0.4207 -0.1370
 8942SOL    HW229459   5.255   7.462   9.871 -0.3673 -1.1027 -2.4243
 8943SOL     OW29460   2.507   3.176   9.015 -0.7838  0.0444  0.3072
 8943SOL    HW129461   2.568   3.227   9.067 -1.0098  0.8695 -0.2163
 8943SOL    HW229462   2.529   3.085   9.034  1.6767  0.2563 -1.0548
 8944SOL     OW29463   6.295  10.275   1.349 -0.5806 -0.1095 -0.2131
 8944SOL    HW129464   6.328  10.187   1.366 -0.6997 -0.3273 -1.0518
 8944SOL    HW229465   6.223  10.287   1.411 -0.9580 -0.8386 -0.5000
 8945SOL     OW29466   9.588   1.222   6.655 -0.2650 -0.2536 -0.0095
 8945SOL    HW129467   9.501   1.259   6.669  0.4690  0.9774  1.8344
 8945SOL    HW229468   9.602   1.227   6.561 -2.0330 -0.1382 -0.2994
 8946SOL     OW29469   3.819   7.722   0.533  0.4703 -0.1398 -0.1605
 8946SOL    HW129470   3.734   7.766   0.527  0.7563  0.3532 -0.6969
 8946SOL    HW229471   3.878   7.788   0.569  0.9981  0.0787 -1.3632
 8947SOL     OW29472   1.835   1.169   1.027 -0.2207  0.3934 -0.2386
 8947SOL    HW129473   1.867   1.105   0.963 -0.7071 -0.0310 -0.0680
 8947SOL    HW229474   1.904   1.173   1.093  0.7450  1.5950 -1.2917
 8948SOL     OW29475   0.293   8.187   2.490 -0.0192 -0.6128 -0.0708
 8948SOL    HW129476   0.206   8.174   2.454 -0.3509 -0.8716  0.8079
 8948SOL    HW229477   0.352   8.166   2.418 -0.6720  1.6831 -1.3878
 8949SOL     OW29478   1.273   4.799  10.064  0.3086  0.4256  0.7099
 8949SOL    HW129479   1.270   4.889  10.034 -2.4844  0.2236  0.1076
 8949SOL    HW229480   1.216   4.751  10.003 -0.0409 -1.3186  2.2980
 8950SOL     OW29481   6.366   7.738   6.928 -0.7636  0.9384  0.5025
 8950SOL    HW129482   6.396   7.826   6.905 -1.4340  0.6930 -1.5573
 8950SOL    HW229483   6.403   7.721   7.014  0.7051  2.6141  0.2538
 8951SOL     OW29484   4.427   1.858   2.389  0.2257 -0.4820  0.0439
 8951SOL    HW129485   4.483   1.913   2.443 -0.8681 -0.0634  0.7874
 8951SOL    HW229486   4.358   1.827   2.448 -0.0022 -1.4643 -0.7054
 8952SOL     OW29487   5.356   1.856   7.075 -0.2964 -0.8248  0.1623
 8952SOL    HW129488   5.273   1.810   7.080 -1.3026  0.9749  0.7039
 8952SOL    HW229489   5.334   1.944   7.044  1.7238 -1.0349 -2.2502
 8953SOL     OW29490   7.975   2.338   4.278  0.5385 -0.1404 -0.3989
 8953SOL    HW129491   7.971   2.361   4.185  1.5242 -1.0292 -0.6795
 8953SOL    HW229492   7.976   2.423   4.323  2.8530  0.4134 -1.3487
 8954SOL     OW29493   6.979   4.736   5.656 -0.2031  0.0232  0.4427
 8954SOL    HW129494   6.913   4.753   5.588  1.9544  1.2693 -1.4902
 8954SOL    HW229495   7.037   4.670   5.616  0.4544 -0.1042  1.5738
 8955SOL     OW29496   1.174   4.094   3.891  0.3043  0.2309  0.1607
 8955SOL    HW129497   1.161   4.003   3.866  1.2944  0.3338 -0.7830
 8955SOL    HW229498   1.088   4.122   3.922  0.1448 -1.2043  1.1162
 8956SOL     OW29499   0.809   8.126  10.041 -0.0307  0.3314  0.0231
 8956SOL    HW129500   0.876   8.099   9.978  0.5733 -0.3329  0.9370
 8956SOL    HW229501   0.858   8.159  10.116 -0.7507  1.3892  0.0530
 8957SOL     OW29502   4.746   3.582   5.003 -0.0851  0.0091  0.0720
 8957SOL    HW129503   4.744   3.649   5.070  1.0661  0.8776 -0.7275
 8957SOL    HW229504   4.682   3.517   5.032 -0.5207  0.9721  1.3452
 8958SOL     OW29505   8.848   5.244   1.751  0.4184 -0.7625  0.3024
 8958SOL    HW129506   8.767   5.205   1.784  1.0471 -1.5698  0.9313
 8958SOL    HW229507   8.909   5.171   1.746  1.3477 -0.0156  0.5949
 8959SOL     OW29508   7.717   6.028   3.599  0.3588 -0.2269 -0.0446
 8959SOL    HW129509   7.788   6.005   3.659  0.7573 -0.9106 -0.7491
 8959SOL    HW229510   7.737   6.118   3.572  1.0557 -0.4664 -0.3579
 8960SOL     OW29511   3.670   4.466   5.413 -0.9338  0.5870 -0.1026
 8960SOL    HW129512   3.639   4.530   5.477 -1.8093  0.0085  0.0782
 8960SOL    HW229513   3.737   4.512   5.362  0.2064  0.8832  1.6031
 8961SOL     OW29514   9.700   4.452   5.605  0.5727 -0.4189  0.1312
 8961SOL    HW129515   9.657   4.398   5.672  1.7215 -0.5895  0.7634
 8961SOL    HW229516   9.700   4.540   5.642 -2.8380  0.4740 -1.6273
 8962SOL     OW29517   2.293   7.411   2.886 -0.0812 -0.7142  0.3993
 8962SOL    HW129518   2.216   7.466   2.874 -0.1241 -0.9600 -0.5572
 8962SOL    HW229519   2.333   7.407   2.799  2.2702  1.1954  1.2911
 8963SOL     OW29520   0.186   0.903   3.284  0.5434  0.8334  0.1675
 8963SOL    HW129521   0.222   0.984   3.248 -0.1695  0.4771 -1.4141
 8963SOL    HW229522   0.115   0.879   3.225  0.5355 -0.7908  0.7767
 8964SOL     OW29523   8.645   1.511   9.563  0.0270  0.2454  0.0340
 8964SOL    HW129524   8.640   1.595   9.610 -0.2299 -1.1271  2.6162
 8964SOL    HW229525   8.560   1.504   9.518 -0.4208  0.8118  0.7697
 8965SOL     OW29526  10.308   5.199   9.893 -0.4420  0.0751  0.0762
 8965SOL    HW129527  10.314   5.168   9.803  1.7625 -0.2356  0.2683
 8965SOL    HW229528  10.355   5.283   9.893 -0.1647 -0.0647  0.9814
 8966SOL     OW29529   4.080   5.282   3.004  0.0199 -0.5318 -0.2118
 8966SOL    HW129530   4.101   5.375   3.009  1.5175 -0.7317 -1.7056
 8966SOL    HW229531   4.104   5.257   2.914  1.0754 -2.6506  0.5900
 8967SOL     OW29532   5.788   7.937   0.943 -0.0266  0.3457 -0.2568
 8967SOL    HW129533   5.708   7.885   0.949  0.6750 -1.1710 -2.4971
 8967SOL    HW229534   5.777   8.006   1.008 -2.2983 -0.9164  0.8273
 8968SOL     OW29535   6.640   6.964  10.125  0.1708 -0.1935 -0.2860
 8968SOL    HW129536   6.572   6.992  10.065  1.3035 -0.0358 -1.5479
 8968SOL    HW229537   6.619   7.007  10.208 -0.0288  1.6241 -1.2426
 8969SOL     OW29538   3.159   2.884   7.102 -0.1718  0.1524  0.0359
 8969SOL    HW129539   3.181   2.924   7.018  1.7449 -0.0153  0.4185
 8969SOL    HW229540   3.153   2.958   7.162 -0.6461  0.1928 -0.0564
 8970SOL     OW29541   8.328   0.514   2.323 -0.3165  0.0758  0.0781
 8970SOL    HW129542   8.270   0.547   2.392  0.9329 -0.7271  1.5837
 8970SOL    HW229543   8.315   0.574   2.250 -2.1633  0.5926  0.7737
 8971SOL     OW29544   4.652   7.220   6.860  0.3828  0.1307  0.3080
 8971SOL    HW129545   4.599   7.298   6.874  2.0592  1.2015  0.9893
 8971SOL    HW229546   4.589   7.150   6.843 -1.1277  1.9752 -2.3035
 8972SOL     OW29547   3.918   0.395   6.161 -0.7421 -0.0199  0.1527
 8972SOL    HW129548   3.941   0.441   6.241 -1.1554 -1.9768  1.4780
 8972SOL    HW229549   3.987   0.417   6.099  0.0541  0.8728  1.3198
 8973SOL     OW29550   0.278   2.536   6.921  0.3455 -0.0230 -0.4105
 8973SOL    HW129551   0.309   2.511   6.833 -0.0509  0.8766 -0.8185
 8973SOL    HW229552   0.328   2.480   6.980  0.3446 -0.9238 -1.2274
 8974SOL     OW29553   3.123   5.297   3.475 -0.0058 -0.2400  0.1945
 8974SOL    HW129554   3.118   5.379   3.524  0.7638  0.1512 -0.3432
 8974SOL    HW229555   3.136   5.230   3.541 -0.9760  0.0272  0.6699
 8975SOL     OW29556   8.231   5.942   2.274 -0.7108  0.2921 -0.3688
 8975SOL    HW129557   8.145   5.915   2.308 -0.7426  1.1369  0.2538
 8975SOL    HW229558   8.294   5.898   2.331 -0.7628  1.3440  0.5415
 8976SOL     OW29559   5.336   1.363   0.621 -0.2787  0.3429 -0.0697
 8976SOL    HW129560   5.258   1.418   0.613 -1.1166 -0.9757 -1.4019
 8976SOL    HW229561   5.366   1.350   0.531 -1.0815 -2.6518 -0.0254
 8977SOL     OW29562   8.144   5.402   0.299 -0.2167 -0.2929  0.7174
 8977SOL    HW129563   8.169   5.438   0.214 -1.6859  0.6619  0.6612
 8977SOL    HW229564   8.190   5.318   0.304  0.6580  0.0784 -0.5841
 8978SOL     OW29565   8.808   7.659   4.723 -0.4928 -0.3598  0.4123
 8978SOL    HW129566   8.736   7.713   4.757 -1.9434 -1.8549 -0.1822
 8978SOL    HW229567   8.877   7.723   4.705 -1.4949  1.0914  1.3620
 8979SOL     OW29568   5.027   3.537   9.870  0.1549  0.1334  0.4393
 8979SOL    HW129569   4.943   3.493   9.883  0.1315  0.4374  1.4681
 8979SOL    HW229570   5.078   3.513   9.948  2.0081 -2.1563 -1.3123
 8980SOL     OW29571   3.424   2.495   1.303  0.1649 -0.2362 -0.2708
 8980SOL    HW129572   3.375   2.477   1.383  2.9868 -0.3635  1.5864
 8980SOL    HW229573   3.372   2.454   1.234 -1.6971 -1.4021  1.6663
 8981SOL     OW29574   1.120   4.356   7.011 -0.1724 -0.1170 -0.4868
 8981SOL    HW129575   1.215   4.343   7.009  0.3654  2.9259 -0.4756
 8981SOL    HW229576   1.085   4.286   6.957  2.1847 -0.7545 -1.3130
 8982SOL     OW29577   8.991   8.264   2.993  0.0794 -0.6525  0.4142
 8982SOL    HW129578   8.984   8.326   3.066  0.0518 -2.3426  1.9224
 8982SOL    HW229579   8.907   8.269   2.948 -0.4553 -0.6049  1.3867
 8983SOL     OW29580   0.523  10.342   5.121 -0.4176  0.6168 -0.2590
 8983SOL    HW129581   0.533  10.391   5.039 -0.4706 -0.4479 -0.9262
 8983SOL    HW229582   0.602  10.361   5.170 -0.8585  2.1125 -0.0777
 8984SOL     OW29583   4.777   6.627   2.142 -0.2740 -0.2615  0.1242
 8984SOL    HW129584   4.695   6.578   2.136 -0.2696 -0.3708  0.9358
 8984SOL    HW229585   4.754   6.708   2.186 -0.1416  0.1804 -0.5924
 8985SOL     OW29586   5.130   7.205   9.109  0.1791 -0.1070 -0.2524
 8985SOL    HW129587   5.085   7.167   9.185 -1.0301 -0.4725 -1.1184
 8985SOL    HW229588   5.207   7.150   9.097 -0.1404 -0.6523  0.1267
 8986SOL     OW29589   2.726   7.499   0.807 -0.3793  0.0236 -0.3174
 8986SOL    HW129590   2.691   7.588   0.814 -1.0711 -0.2935  0.3442
 8986SOL    HW229591   2.700   7.470   0.720  1.0409  0.9535 -1.1012
 8987SOL     OW29592   9.624   3.499   0.939 -0.1058 -0.3141  0.1482
 8987SOL    HW129593   9.600   3.477   0.849  2.6315  1.4384 -1.1529
 8987SOL    HW229594   9.717   3.477   0.944  0.2757  1.4852  1.9230
 8988SOL     OW29595   6.679   7.509   5.860 -0.3218  0.3076 -0.4301
 8988SOL    HW129596   6.686   7.456   5.940  0.2161  1.7640  0.5287
 8988SOL    HW229597   6.682   7.445   5.789  2.0661 -0.8527  0.5954
 8989SOL     OW29598   7.688   1.357   0.725  0.5125 -0.8577  0.3468
 8989SOL    HW129599   7.625   1.289   0.748 -0.3072 -0.1114  0.3178
 8989SOL    HW229600   7.636   1.435   0.709  1.3384 -0.5219 -0.8324
 8990SOL     OW29601   2.931   6.507   7.662  0.1255 -0.3543  0.0191
 8990SOL    HW129602   2.838   6.530   7.665  0.1498 -0.3262  2.1953
 8990SOL    HW229603   2.935   6.433   7.601 -1.0530  0.6251 -1.3193
 8991SOL     OW29604   0.678   5.542   4.304 -0.2310  0.1426  0.2784
 8991SOL    HW129605   0.589   5.575   4.307 -0.0253  0.6583  2.0682
 8991SOL    HW229606   0.674   5.458   4.349  0.0135 -0.3193 -0.5419
 8992SOL     OW29607   5.444   0.163   3.434  0.4332 -0.2041 -0.2880
 8992SOL    HW129608   5.447   0.252   3.469  0.0286 -0.4201  0.3144
 8992SOL    HW229609   5.413   0.109   3.507 -1.6540 -0.4975 -1.3037
 8993SOL     OW29610   3.830   4.323  10.047  0.0329 -0.5143  0.1766
 8993SOL    HW129611   3.835   4.411  10.009 -2.8924 -0.4961 -0.4371
 8993SOL    HW229612   3.795   4.269   9.976  1.1598 -2.0561  0.7492
 8994SOL     OW29613   5.288   7.217   4.969  0.1150 -0.2581  0.3244
 8994SOL    HW129614   5.245   7.144   4.925 -1.0231  1.7035 -1.9924
 8994SOL    HW229615   5.376   7.220   4.932  0.1299 -0.3660  0.3503
 8995SOL     OW29616   5.132   6.283   1.496 -0.8205 -0.1598  0.7543
 8995SOL    HW129617   5.138   6.228   1.573 -0.2320 -0.4947  0.4764
 8995SOL    HW229618   5.103   6.368   1.529  1.5347  0.3790  1.6885
 8996SOL     OW29619   4.997   2.311   2.902 -0.0046 -0.1346  0.0915
 8996SOL    HW129620   5.027   2.233   2.949  0.7163  0.3632  0.4911
 8996SOL    HW229621   5.000   2.381   2.968  2.6303  0.9507 -1.0221
 8997SOL     OW29622  10.133   9.285   9.810 -0.1975  0.2379 -0.1472
 8997SOL    HW129623  10.050   9.331   9.798  0.7031  2.1539  0.5884
 8997SOL    HW229624  10.160   9.307   9.900  2.4751  2.1260 -1.2563
 8998SOL     OW29625   8.353   2.239   9.068 -0.1142  0.6442 -0.6387
 8998SOL    HW129626   8.417   2.288   9.016  0.7828  0.4550  0.2359
 8998SOL    HW229627   8.330   2.164   9.013  0.3507  0.7770 -1.0216
 8999SOL     OW29628   8.210  10.033   1.359  0.2561 -0.5655  0.3902
 8999SOL    HW129629   8.280  10.097   1.351  0.2832 -0.6479 -0.0886
 8999SOL    HW229630   8.196  10.023   1.453  2.8427 -2.6855  0.6555
 9000SOL     OW29631   8.527   3.685   8.287  0.0400  0.4035  0.2578
 9000SOL    HW129632   8.561   3.682   8.376  0.5035  0.1258  0.0766
 9000SOL    HW229633   8.570   3.761   8.247  0.7943 -0.2025 -0.1041
 9001SOL     OW29634   0.504   8.352   5.859  0.0547  0.2406 -0.2557
 9001SOL    HW129635   0.517   8.339   5.953 -2.2409  0.8915  0.1999
 9001SOL    HW229636   0.569   8.295   5.818  0.4665 -0.7934  1.7062
 9002SOL     OW29637   8.797   2.635   1.752  0.4553 -0.4637 -0.2015
 9002SOL    HW129638   8.805   2.605   1.842 -1.4540 -0.6585 -0.0635
 9002SOL    HW229639   8.707   2.616   1.728  0.1635  1.9024 -1.2985
 9003SOL     OW29640   9.628   7.014   6.401 -0.2122  0.2779 -0.5028
 9003SOL    HW129641   9.687   7.089   6.392  0.3977 -0.0366  0.7052
 9003SOL    HW229642   9.640   6.965   6.320  2.0765 -0.3854  0.1784
 9004SOL     OW29643   4.677   0.366   2.319 -0.3045 -0.0820  0.0680
 9004SOL    HW129644   4.764   0.362   2.280 -0.1093  1.2872  0.3022
 9004SOL    HW229645   4.630   0.430   2.266 -0.7627  0.1089  0.6921
 9005SOL     OW29646   1.173   5.800   7.972 -0.3824 -0.2035 -0.1547
 9005SOL    HW129647   1.184   5.848   8.053  0.8682  1.0056 -0.9889
 9005SOL    HW229648   1.129   5.862   7.913 -0.1507 -0.6222 -0.7804
 9006SOL     OW29649   3.022   8.201   9.956  0.4737 -0.1203 -0.7849
 9006SOL    HW129650   3.106   8.245   9.969  0.5720 -0.5352  0.0698
 9006SOL    HW229651   3.045   8.108   9.951  0.4669 -0.0389 -4.1679
 9007SOL     OW29652   2.912   1.462   2.838  0.4389 -0.4280  0.1220
 9007SOL    HW129653   2.875   1.464   2.750  0.5979 -0.0673  0.0595
 9007SOL    HW229654   2.889   1.376   2.872  1.0976 -0.8961 -0.5810
 9008SOL     OW29655   2.870  10.101   0.942  0.4452  0.2618  0.3214
 9008SOL    HW129656   2.781  10.103   0.906  1.0611  0.0300 -1.3469
 9008SOL    HW229657   2.888  10.191   0.967 -0.3316  0.2664  0.9097
 9009SOL     OW29658   3.689   8.514   4.162 -0.1010  0.3418  0.4659
 9009SOL    HW129659   3.607   8.561   4.180 -0.8653 -0.3549 -0.9519
 9009SOL    HW229660   3.748   8.539   4.232 -1.8209  0.1839  2.0490
 9010SOL     OW29661   8.399   1.505   9.456 -0.5839  0.2667 -0.0582
 9010SOL    HW129662   8.363   1.447   9.522 -1.6612  1.3841  0.3625
 9010SOL    HW229663   8.336   1.503   9.384  0.0484 -0.1110 -0.6218
 9011SOL     OW29664   1.629   4.860   2.549 -0.5810 -0.0895 -0.4887
 9011SOL    HW129665   1.575   4.801   2.601 -1.6351  0.6689 -0.7036
 9011SOL    HW229666   1.568   4.924   2.513  0.3315  0.2664 -1.4747
 9012SOL     OW29667   5.495   3.486   1.784 -0.3482 -0.0462 -0.4786
 9012SOL    HW129668   5.426   3.422   1.797  0.4502 -0.5653  1.7888
 9012SOL    HW229669   5.576   3.434   1.782  0.1994  0.7567 -0.0185
 9013SOL     OW29670  10.214   4.321   2.489  0.2259  0.6204  0.0994
 9013SOL    HW129671  10.129   4.361   2.468  0.4232  1.2840  0.5240
 9013SOL    HW229672  10.230   4.346   2.580  0.6518  0.0809  0.1803
 9014SOL     OW29673   3.504   4.101   2.743  0.2308 -0.6249 -0.1714
 9014SOL    HW129674   3.492   4.077   2.651  1.2228  0.8412 -0.7055
 9014SOL    HW229675   3.569   4.038   2.775  1.3579  0.0716 -1.0248
 9015SOL     OW29676   8.582   5.385   5.655  0.2210  0.1240 -0.3367
 9015SOL    HW129677   8.607   5.331   5.730 -0.2603  1.0005  0.4665
 9015SOL    HW229678   8.649   5.367   5.589  0.3012 -1.1359  0.0592
 9016SOL     OW29679   3.764   4.753   7.904 -0.7878  0.2835 -0.1548
 9016SOL    HW129680   3.784   4.679   7.848 -0.9660 -0.3311  0.5833
 9016SOL    HW229681   3.820   4.824   7.871 -2.8098  0.7846 -2.8539
 9017SOL     OW29682   6.430   3.812   0.104  0.1751  0.6202  0.1390
 9017SOL    HW129683   6.384   3.765   0.035  0.1568  1.6727 -0.5880
 9017SOL    HW229684   6.516   3.832   0.067  0.1696  1.1746  0.4177
 9018SOL     OW29685   2.427   0.666   1.867  0.0243 -0.7397  0.2650
 9018SOL    HW129686   2.453   0.730   1.933  0.2435  0.2974 -0.7772
 9018SOL    HW229687   2.438   0.581   1.909  1.1036 -0.1485  1.2229
 9019SOL     OW29688   0.705   1.348   2.345 -0.1107 -0.6302 -0.0700
 9019SOL    HW129689   0.746   1.402   2.277 -0.3185  1.4604  1.3963
 9019SOL    HW229690   0.778   1.317   2.398 -0.0145 -1.6321 -0.7578
 9020SOL     OW29691   4.536   6.253   0.693  0.2854  0.0529  0.0763
 9020SOL    HW129692   4.457   6.304   0.709  0.2212 -0.5273  1.8737
 9020SOL    HW229693   4.576   6.243   0.779  0.3568 -2.7760 -0.1724
 9021SOL     OW29694   3.141   3.833   0.768 -0.3006  0.0377  0.1402
 9021SOL    HW129695   3.156   3.747   0.727  0.2842  0.4368 -0.4957
 9021SOL    HW229696   3.186   3.827   0.852  3.8247  1.2233 -1.7237
 9022SOL     OW29697   7.505   8.326   1.361  0.2023  0.8406  0.3110
 9022SOL    HW129698   7.572   8.393   1.371  0.6548  0.6201 -1.0521
 9022SOL    HW229699   7.539   8.251   1.411 -0.7827  1.8994  2.7019
 9023SOL     OW29700   6.411   3.922   7.326 -0.0478  0.3067  1.1947
 9023SOL    HW129701   6.401   3.831   7.355  1.5567 -0.2207  0.2023
 9023SOL    HW229702   6.367   3.925   7.240  2.4613 -0.3877 -0.2130
 9024SOL     OW29703   7.162   4.186   9.243  0.3716 -0.4573 -0.0380
 9024SOL    HW129704   7.197   4.237   9.171 -1.9207 -0.8395 -1.5114
 9024SOL    HW229705   7.072   4.214   9.252 -0.1122 -2.1520  1.0624
 9025SOL     OW29706   3.404   5.835   3.395 -0.1093 -0.5209  0.1997
 9025SOL    HW129707   3.375   5.840   3.486  0.9853 -0.1406  0.5445
 9025SOL    HW229708   3.466   5.907   3.386 -1.0766  0.2021 -1.1909
 9026SOL     OW29709   3.852   7.583   8.851  0.5959  0.1634  0.4683
 9026SOL    HW129710   3.905   7.651   8.892  0.4401 -0.1960  1.2846
 9026SOL    HW229711   3.826   7.526   8.923 -1.2164  0.5368  0.1791
 9027SOL     OW29712   1.164   6.974   9.791  0.0943 -0.2919 -0.5564
 9027SOL    HW129713   1.227   6.966   9.719  1.0753  0.5991  0.1798
 9027SOL    HW229714   1.193   6.910   9.855  1.5125  1.4629  0.6572
 9028SOL     OW29715   0.051   7.656   0.684  0.0891  0.1276  0.1315
 9028SOL    HW129716   0.086   7.743   0.664 -1.5207  0.5196 -1.2586
 9028SOL    HW229717  -0.008   7.670   0.757 -0.8248  0.4065 -0.6340
 9029SOL     OW29718   8.076   1.663   2.428  0.0674  0.2934  0.6021
 9029SOL    HW129719   8.040   1.595   2.485  3.3623 -1.1376  1.2198
 9029SOL    HW229720   8.103   1.732   2.488  0.6537  0.1919  0.4628
 9030SOL     OW29721  10.180   6.093   2.863  0.1699 -0.5945  0.4572
 9030SOL    HW129722  10.097   6.096   2.911 -0.3457  1.6617 -0.4502
 9030SOL    HW229723  10.244   6.066   2.929 -1.1499 -1.7429  1.3466
 9031SOL     OW29724   6.312   9.039   5.327 -0.5822  0.2963  0.2027
 9031SOL    HW129725   6.322   9.013   5.419 -1.6764  0.5715  0.4040
 9031SOL    HW229726   6.339   9.131   5.325 -0.8730  0.3841  0.3117
 9032SOL     OW29727   7.551   6.429   4.634 -0.7279 -0.2691 -0.3071
 9032SOL    HW129728   7.550   6.520   4.662  1.2490 -0.1981 -0.3813
 9032SOL    HW229729   7.468   6.394   4.666 -0.9804  1.2300  0.7856
 9033SOL     OW29730   2.661   4.202   3.648  0.6126  0.0625 -0.0079
 9033SOL    HW129731   2.647   4.174   3.739  1.1043  0.0606  0.0714
 9033SOL    HW229732   2.708   4.129   3.608 -0.9553 -0.6193 -0.7036
 9034SOL     OW29733   4.182   1.801   7.237 -0.0545  0.2225 -0.1815
 9034SOL    HW129734   4.115   1.772   7.299  0.6974  1.6292  1.3397
 9034SOL    HW229735   4.137   1.862   7.179 -0.0016  1.5762  1.1695
 9035SOL     OW29736   0.940   8.627   2.778  0.2846  0.4113 -0.6833
 9035SOL    HW129737   0.847   8.633   2.799  0.2737 -0.1397 -0.5774
 9035SOL    HW229738   0.968   8.718   2.767 -0.2629  0.5763 -0.7051
 9036SOL     OW29739   1.222   3.797   1.820 -0.1606  0.7625  0.0923
 9036SOL    HW129740   1.267   3.881   1.820  0.3915  0.4749 -0.1972
 9036SOL    HW229741   1.273   3.743   1.881 -0.3372  0.5422  0.0467
 9037SOL     OW29742   2.533   2.375   7.439  0.3689  0.1634 -0.3472
 9037SOL    HW129743   2.570   2.384   7.528  2.1201  1.1469 -1.1103
 9037SOL    HW229744   2.484   2.456   7.426  0.3350  0.1402 -0.3617
 9038SOL     OW29745   4.442   4.314  10.079  0.1202  0.1744  0.2472
 9038SOL    HW129746   4.510   4.344  10.138 -0.2503  1.9623 -0.1866
 9038SOL    HW229747   4.408   4.393  10.038 -2.4813 -0.5867  0.7150
 9039SOL     OW29748   5.503   0.807   0.298 -0.1763 -0.2199  0.0357
 9039SOL    HW129749   5.479   0.785   0.387 -0.0253  0.0879  0.1552
 9039SOL    HW229750   5.490   0.727   0.248  1.2949 -0.8606  0.6345
 9040SOL     OW29751   0.191   5.562   3.987  0.0655  0.0517 -0.6897
 9040SOL    HW129752   0.114   5.542   4.040  0.2542  0.5312 -0.2342
 9040SOL    HW229753   0.155   5.588   3.902 -0.2157 -1.4189 -1.0455
 9041SOL     OW29754   9.629   8.045   7.293 -0.2244 -0.0064 -0.0280
 9041SOL    HW129755   9.672   8.129   7.305 -1.4759  0.4124  1.9758
 9041SOL    HW229756   9.654   7.994   7.370  2.5001 -2.4994 -2.2797
 9042SOL     OW29757   6.030   2.431   1.395  0.0801  0.1977 -0.2005
 9042SOL    HW129758   6.030   2.367   1.467 -1.3424 -0.3806 -0.6805
 9042SOL    HW229759   5.998   2.511   1.436 -2.4235 -0.5744 -0.4902
 9043SOL     OW29760   4.747   8.595   3.296  0.3762 -0.7499  0.7317
 9043SOL    HW129761   4.728   8.556   3.211 -0.6756  0.5940  0.3064
 9043SOL    HW229762   4.686   8.552   3.357 -0.6609  0.0647  0.2988
 9044SOL     OW29763   1.923  10.153   5.813  0.2561  0.3204 -0.2980
 9044SOL    HW129764   1.974  10.225   5.851 -0.4830  1.2823 -1.0612
 9044SOL    HW229765   1.849  10.196   5.772 -0.9367 -1.0051  0.3777
 9045SOL     OW29766   1.827   2.075   7.151  0.3212  0.2531 -0.1739
 9045SOL    HW129767   1.906   2.080   7.205  0.8294  0.0230 -0.8777
 9045SOL    HW229768   1.757   2.110   7.206  0.7614 -0.3235  0.7627
 9046SOL     OW29769   1.202   2.892   7.235  0.4323  0.5151  0.2612
 9046SOL    HW129770   1.276   2.908   7.177  3.1711  0.1841  3.3893
 9046SOL    HW229771   1.210   2.800   7.259  0.7107  1.1300  2.7446
 9047SOL     OW29772   0.508   4.216   1.145  0.0499  0.0673  0.0117
 9047SOL    HW129773   0.423   4.260   1.151  0.1520  0.2931 -0.2035
 9047SOL    HW229774   0.570   4.280   1.180  0.1827  0.0478 -0.1889
 9048SOL     OW29775   6.325   2.424   2.180 -0.4378  0.2071 -0.1113
 9048SOL    HW129776   6.265   2.381   2.119  0.6890  0.0880 -1.1802
 9048SOL    HW229777   6.395   2.360   2.193  0.4000  1.0595 -0.3787
 9049SOL     OW29778   1.634   9.022   7.135  0.1241 -0.0866 -0.1586
 9049SOL    HW129779   1.571   8.988   7.071  0.7618  1.0542 -1.4180
 9049SOL    HW229780   1.583   9.082   7.189 -0.2225 -0.4221 -0.1011
 9050SOL     OW29781   1.789   2.093   6.868 -0.0859 -0.1237 -0.2864
 9050SOL    HW129782   1.822   2.128   6.951 -1.2169  0.9251 -0.2531
 9050SOL    HW229783   1.773   2.001   6.886 -0.0221  0.0240  0.5715
 9051SOL     OW29784   0.722   7.184   0.599 -0.3174 -0.8271 -0.7239
 9051SOL    HW129785   0.776   7.195   0.522  1.8690  1.4991  0.9844
 9051SOL    HW229786   0.739   7.262   0.652 -1.3122 -2.5162  2.3351
 9052SOL     OW29787   4.269   6.361   1.304  0.3677 -0.3702  0.1374
 9052SOL    HW129788   4.243   6.307   1.378  2.6870  0.2897  1.5673
 9052SOL    HW229789   4.341   6.414   1.338 -0.1930  1.8663 -1.8770
 9053SOL     OW29790   3.458   9.860   0.856 -0.5524  0.8565  0.4076
 9053SOL    HW129791   3.378   9.912   0.857  0.3793  2.3637  0.7217
 9053SOL    HW229792   3.509   9.897   0.784 -0.3391 -0.4258 -0.1204
 9054SOL     OW29793   7.406   1.800   0.349  0.2700 -0.1205 -0.5656
 9054SOL    HW129794   7.410   1.816   0.443  1.5387 -0.2338 -0.5821
 9054SOL    HW229795   7.382   1.885   0.312 -1.5584 -0.3858 -0.0750
 9055SOL     OW29796   2.748   2.873   7.019  0.0021 -0.1827  0.6303
 9055SOL    HW129797   2.783   2.832   6.940  0.8640  0.0981  0.8605
 9055SOL    HW229798   2.706   2.954   6.987  1.0883  0.3647  0.5428
 9056SOL     OW29799   8.048   0.151   1.431 -0.6248  0.0984 -0.2834
 9056SOL    HW129800   7.956   0.165   1.407  0.0804  1.5812 -2.3704
 9056SOL    HW229801   8.078   0.237   1.461 -0.3263 -0.7793  2.2187
 9057SOL     OW29802   4.372   8.282   0.297 -0.1741 -0.1835  0.1843
 9057SOL    HW129803   4.283   8.276   0.262 -0.4788  1.0134  0.6995
 9057SOL    HW229804   4.363   8.335   0.376  1.1823  1.0097 -0.4211
 9058SOL     OW29805  10.000   6.970   1.357 -0.7804 -0.7028  0.0109
 9058SOL    HW129806  10.050   6.902   1.401 -4.1227 -1.6792  2.7063
 9058SOL    HW229807   9.968   6.928   1.277 -0.6671 -1.4184  0.3315
 9059SOL     OW29808   7.068   3.905   4.583  0.3815  0.1920 -0.5757
 9059SOL    HW129809   7.092   3.998   4.584 -1.1541  0.6202 -1.1345
 9059SOL    HW229810   7.111   3.870   4.505  0.5631  0.5465 -0.6355
 9060SOL     OW29811   9.948   4.201   7.396 -0.0761  0.6159 -0.3521
 9060SOL    HW129812   9.994   4.275   7.355 -0.6414  0.4811 -1.2470
 9060SOL    HW229813   9.859   4.233   7.410  0.0886  0.6370  0.7362
 9061SOL     OW29814   7.482   1.213   6.433 -0.0621  0.0279 -0.4332
 9061SOL    HW129815   7.509   1.225   6.524 -0.3963 -0.8293 -0.2045
 9061SOL    HW229816   7.392   1.180   6.439 -0.2775  0.4847 -1.0946
 9062SOL     OW29817   2.750   1.048   7.473 -0.1078 -0.1806  0.1143
 9062SOL    HW129818   2.737   1.141   7.494 -1.5558 -0.2243 -0.4826
 9062SOL    HW229819   2.813   1.049   7.401  0.1697  0.3072  0.3537
 9063SOL     OW29820   0.836   3.813   2.076 -0.5218  0.4846  0.1013
 9063SOL    HW129821   0.787   3.762   2.140 -1.6343  1.5402  0.1288
 9063SOL    HW229822   0.769   3.844   2.014 -0.0142  2.4646  0.4771
 9064SOL     OW29823   5.230   5.658   3.778  0.6012  0.2964 -0.1470
 9064SOL    HW129824   5.169   5.645   3.705 -0.1147  2.1437  0.0623
 9064SOL    HW229825   5.216   5.582   3.834 -1.2744  0.4844 -0.2930
 9065SOL     OW29826   7.620   5.708   1.000  0.7393  0.1814  0.1113
 9065SOL    HW129827   7.660   5.738   0.918  0.2255 -0.1956 -0.2792
 9065SOL    HW229828   7.691   5.715   1.065  1.2338  0.1995 -0.4223
 9066SOL     OW29829   3.901   7.004   5.809  0.1629  0.0787  0.1805
 9066SOL    HW129830   3.807   6.984   5.814  0.6168 -2.1240  1.0549
 9066SOL    HW229831   3.928   6.968   5.724  0.6518 -1.6116  1.0095
 9067SOL     OW29832   4.221   7.312   2.990 -0.1606  0.6622  0.1213
 9067SOL    HW129833   4.259   7.294   3.076 -1.7844 -0.1991  0.7036
 9067SOL    HW229834   4.181   7.398   2.998 -0.3283  0.5735  0.2300
 9068SOL     OW29835   6.333   5.583   1.518  0.1765  0.2818 -0.0866
 9068SOL    HW129836   6.245   5.617   1.529  0.3830  0.4084  1.3223
 9068SOL    HW229837   6.335   5.549   1.429 -1.0485  0.9751 -0.3947
 9069SOL     OW29838   4.350   9.573   3.576  0.3315 -0.1098 -0.1746
 9069SOL    HW129839   4.301   9.509   3.524  1.0956 -0.5132 -0.4109
 9069SOL    HW229840   4.433   9.530   3.595  0.4899  0.4611  0.4557
 9070SOL     OW29841   7.871   4.435   0.697 -0.5453  0.0209  0.0658
 9070SOL    HW129842   7.954   4.409   0.657 -0.1069 -0.7712  1.4239
 9070SOL    HW229843   7.813   4.360   0.681 -0.6351  0.0755  0.1410
 9071SOL     OW29844   2.727   3.399   1.021  0.0320  0.1061 -0.1423
 9071SOL    HW129845   2.659   3.444   1.070  1.9516  0.8757  1.9491
 9071SOL    HW229846   2.727   3.309   1.055  0.2433  0.1832  0.0631
 9072SOL     OW29847   2.901   5.888   8.579  0.3189  0.2470  0.4406
 9072SOL    HW129848   2.958   5.829   8.628 -0.8889 -0.1998  1.3897
 9072SOL    HW229849   2.959   5.955   8.543  1.3038  0.5048  2.3785
 9073SOL     OW29850   3.290   4.966   7.030 -0.3542 -0.1841 -0.1147
 9073SOL    HW129851   3.334   4.921   7.102 -0.3937  1.3844  0.9195
 9073SOL    HW229852   3.209   4.916   7.017 -0.5528 -0.2500  1.2143
 9074SOL     OW29853   4.791   1.408   0.237 -0.8838  0.4002 -0.0433
 9074SOL    HW129854   4.769   1.468   0.309  0.2369  0.7330  0.0367
 9074SOL    HW229855   4.803   1.465   0.161  1.0770  0.4160  0.2323
 9075SOL     OW29856   8.639   7.899   1.825  0.4791 -0.6392 -0.2319
 9075SOL    HW129857   8.687   7.940   1.897  0.6428 -0.9130 -0.1854
 9075SOL    HW229858   8.706   7.869   1.765  0.3108  1.1488 -1.3868
 9076SOL     OW29859   7.550   2.769   3.570 -0.1823  0.1867  0.2997
 9076SOL    HW129860   7.463   2.779   3.530  0.8215  1.0642 -1.8140
 9076SOL    HW229861   7.555   2.840   3.634 -0.9069  0.3025  0.2465
 9077SOL     OW29862   7.163   2.855   4.889  0.2470 -0.9889  0.3544
 9077SOL    HW129863   7.155   2.775   4.838 -1.5184 -0.5007 -0.2397
 9077SOL    HW229864   7.086   2.855   4.947  0.9767 -0.4080  1.3669
 9078SOL     OW29865   6.483   5.802   3.506 -0.4873 -0.2520  0.3903
 9078SOL    HW129866   6.394   5.820   3.537 -0.5122 -0.0709  0.2187
 9078SOL    HW229867   6.535   5.875   3.537 -0.8673  0.9102 -1.5099
 9079SOL     OW29868   7.725   3.424   3.275 -0.7626  0.0341 -0.0961
 9079SOL    HW129869   7.660   3.360   3.305 -1.7914  0.0966 -2.0098
 9079SOL    HW229870   7.680   3.508   3.282 -0.1997  0.3004  0.3438
 9080SOL     OW29871   0.007   3.678   6.569 -0.2378 -0.4663  0.3918
 9080SOL    HW129872  -0.046   3.598   6.569 -1.1963  0.1598  0.1071
 9080SOL    HW229873   0.079   3.658   6.508 -1.5413 -0.4267 -1.2119
 9081SOL     OW29874   5.477   7.401   8.240 -0.0630  0.1474 -0.1696
 9081SOL    HW129875   5.412   7.471   8.237 -0.0342  0.1481 -1.4228
 9081SOL    HW229876   5.452   7.348   8.316  1.2251  2.7177  2.2245
 9082SOL     OW29877   0.193   0.118   8.725 -0.7122  0.1421  0.3341
 9082SOL    HW129878   0.169   0.026   8.740 -0.4410 -0.3415 -1.8154
 9082SOL    HW229879   0.282   0.113   8.690 -0.1023  1.3722  1.6498
 9083SOL     OW29880  10.105   0.934   5.496  0.0526 -0.3419  0.2454
 9083SOL    HW129881  10.053   0.904   5.570 -0.9436 -1.9854 -1.0532
 9083SOL    HW229882  10.050   0.917   5.419  1.7155 -0.2757 -1.0170
 9084SOL     OW29883   0.115   0.880   2.024 -0.0866  0.0976 -0.0293
 9084SOL    HW129884   0.101   0.793   2.061  0.2254  0.6597  1.4598
 9084SOL    HW229885   0.041   0.932   2.055  0.1638  0.5809 -0.2288
 9085SOL     OW29886   0.373   5.321   2.361  0.1345  0.4846 -0.2415
 9085SOL    HW129887   0.395   5.406   2.400  0.1553  0.7109 -0.7363
 9085SOL    HW229888   0.279   5.314   2.372 -0.3348  1.8366 -2.5997
 9086SOL     OW29889   4.013   4.002   6.894  0.6474  0.2748 -0.0936
 9086SOL    HW129890   3.966   3.926   6.858 -0.5140  1.2868 -0.7700
 9086SOL    HW229891   4.050   3.969   6.977  0.5745 -1.1516 -0.5900
 9087SOL     OW29892   4.522   6.607   7.622 -0.2782  0.2541  0.0125
 9087SOL    HW129893   4.566   6.676   7.572  0.9678  0.5814  1.4815
 9087SOL    HW229894   4.503   6.648   7.706 -0.7633 -0.8025  0.4336
 9088SOL     OW29895   5.329   4.291   2.270 -0.8663  0.2610 -0.0781
 9088SOL    HW129896   5.337   4.271   2.176  0.6609  0.3488 -0.0010
 9088SOL    HW229897   5.350   4.209   2.314 -0.0688  0.5844  0.1776
 9089SOL     OW29898  10.291   5.483   8.002  0.1140 -0.0040  0.0415
 9089SOL    HW129899  10.209   5.485   7.952  0.6232  0.6873 -0.7908
 9089SOL    HW229900  10.308   5.390   8.016 -1.2820 -0.1380  1.0299
 9090SOL     OW29901   1.349   7.255   3.330  0.7276  0.4321  0.4028
 9090SOL    HW129902   1.348   7.174   3.381  1.4239  0.6433  0.7587
 9090SOL    HW229903   1.257   7.280   3.323  0.6331  0.5412  1.7934
 9091SOL     OW29904   1.734  10.283   7.290  0.6957 -0.6094 -0.6692
 9091SOL    HW129905   1.675  10.239   7.351  2.3108 -0.4921  1.0673
 9091SOL    HW229906   1.820  10.281   7.333  1.3676  1.9476 -1.6895
 9092SOL     OW29907   6.888   1.382   6.803  0.3281  0.1579 -0.6311
 9092SOL    HW129908   6.930   1.307   6.760 -0.3820 -0.2621 -0.6159
 9092SOL    HW229909   6.939   1.458   6.775  1.7213 -0.4387  0.2186
 9093SOL     OW29910   5.797   8.904   1.652  0.1722  0.2259  0.7079
 9093SOL    HW129911   5.860   8.966   1.688 -0.1508  0.6262  0.5852
 9093SOL    HW229912   5.755   8.951   1.580 -1.2102  0.4513  1.6123
 9094SOL     OW29913   6.439   1.883   2.152  0.6090 -0.6467 -0.5759
 9094SOL    HW129914   6.381   1.807   2.157  0.4979 -0.5003  0.5401
 9094SOL    HW229915   6.381   1.958   2.168  1.2789 -0.5824  1.7696
 9095SOL     OW29916   7.296   3.376   5.291  0.0533  0.1308 -0.2578
 9095SOL    HW129917   7.329   3.289   5.269  1.8617  0.1523  1.9109
 9095SOL    HW229918   7.203   3.374   5.268 -0.2272 -2.7747  0.7443
 9096SOL     OW29919   3.951   0.326   4.245  0.0669 -0.2111  0.2750
 9096SOL    HW129920   4.024   0.268   4.226  0.1180  0.6237 -2.5763
 9096SOL    HW229921   3.968   0.359   4.333  2.2949 -1.2055  0.2747
 9097SOL     OW29922   3.667   8.030   8.450  0.0202 -0.2781  0.1016
 9097SOL    HW129923   3.694   8.101   8.508  0.7020  1.6102 -2.3466
 9097SOL    HW229924   3.575   8.015   8.471  0.0085  0.9989  1.0295
 9098SOL     OW29925  10.315   8.943  10.034  0.4780  0.3096  0.6880
 9098SOL    HW129926  10.334   8.943  10.127 -1.3369 -1.3405  1.1284
 9098SOL    HW229927  10.241   9.003  10.025 -0.1083 -0.4213  0.5213
 9099SOL     OW29928   6.194   7.900   3.241 -0.2799  0.4250 -0.1011
 9099SOL    HW129929   6.280   7.863   3.263 -0.2728  0.1767 -0.5437
 9099SOL    HW229930   6.146   7.827   3.203 -0.3834  0.7874 -0.6710
 9100SOL     OW29931   0.049   0.036   5.589  0.3921 -0.6005 -0.6373
 9100SOL    HW129932   0.039   0.107   5.652 -0.5492  1.6248 -3.1004
 9100SOL    HW229933   0.044  -0.044   5.642 -0.8801  1.0876  2.0154
 9101SOL     OW29934   0.585   6.696   5.108 -0.1576  0.1893 -0.3862
 9101SOL    HW129935   0.599   6.724   5.017  0.5314 -1.2882 -0.7657
 9101SOL    HW229936   0.552   6.606   5.101 -0.3714  0.1533  0.8206
 9102SOL     OW29937   2.548   6.289   0.173  0.5134 -0.2139  0.5593
 9102SOL    HW129938   2.466   6.276   0.126  1.6478  0.4208 -1.7404
 9102SOL    HW229939   2.553   6.216   0.235 -2.3280  0.4109  1.6707
 9103SOL     OW29940  10.292   2.272   7.112 -0.8859 -0.8411 -0.4739
 9103SOL    HW129941  10.245   2.280   7.029 -1.2565 -0.7401 -0.2556
 9103SOL    HW229942  10.380   2.245   7.086 -0.6926  0.2020 -0.9780
 9104SOL     OW29943   9.024   3.369   1.787 -0.4662 -0.3170  0.0962
 9104SOL    HW129944   9.075   3.425   1.846 -1.8113  2.0294 -0.8653
 9104SOL    HW229945   8.978   3.309   1.846  1.6561 -1.0586  1.1095
 9105SOL     OW29946   6.002   2.725   0.823  0.2562  0.7110 -0.0329
 9105SOL    HW129947   6.005   2.818   0.848  0.8707  0.3017  1.5289
 9105SOL    HW229948   6.012   2.678   0.905  0.2429 -0.7528 -0.8438
 9106SOL     OW29949   2.664   1.776   7.170  0.3828 -0.4429  0.6010
 9106SOL    HW129950   2.588   1.833   7.182 -0.3903 -1.8264  2.6864
 9106SOL    HW229951   2.648   1.733   7.086 -0.2410  0.5717  0.1807
 9107SOL     OW29952   6.044   2.110   1.182 -0.0064 -0.1476 -0.4041
 9107SOL    HW129953   5.974   2.175   1.189  0.3433  0.3468 -1.2416
 9107SOL    HW229954   6.125   2.161   1.186  0.3622 -0.8249  1.7145
 9108SOL     OW29955   9.535   6.693   9.500 -0.4138 -0.8555 -0.6398
 9108SOL    HW129956   9.517   6.738   9.418 -2.0173 -0.9500 -0.3615
 9108SOL    HW229957   9.458   6.639   9.516 -0.3451 -0.4989  1.1372
 9109SOL     OW29958   3.303   1.492   0.299  0.1573 -0.3368 -0.2998
 9109SOL    HW129959   3.287   1.401   0.323  0.0923  0.0244  1.1660
 9109SOL    HW229960   3.396   1.506   0.316 -0.1082  0.2121  0.8483
 9110SOL     OW29961   4.809   4.112   4.829  0.0072 -0.2640 -0.1190
 9110SOL    HW129962   4.855   4.159   4.760 -0.1716 -1.0121 -0.7666
 9110SOL    HW229963   4.718   4.140   4.821 -0.3590 -1.6609 -1.3754
 9111SOL     OW29964   2.498   8.650   0.332 -0.0220  0.1065 -0.0799
 9111SOL    HW129965   2.575   8.691   0.371 -0.7181 -0.0133  1.5348
 9111SOL    HW229966   2.525   8.627   0.243  0.6606  3.3350 -0.8497
 9112SOL     OW29967   3.010  10.039   3.028  0.1791 -0.0893  0.1356
 9112SOL    HW129968   2.973  10.023   2.941 -0.6359  1.0396  0.2460
 9112SOL    HW229969   3.048  10.126   3.021  1.6831 -0.7013  0.4224
 9113SOL     OW29970   1.945   9.225   9.715 -0.3024 -0.5119 -0.7886
 9113SOL    HW129971   1.938   9.138   9.754 -0.2246  0.0733  0.6050
 9113SOL    HW229972   1.856   9.245   9.685 -0.6039 -0.5559  0.0598
 9114SOL     OW29973   3.372   6.241   9.500  0.6525  0.5204 -0.7226
 9114SOL    HW129974   3.466   6.230   9.483  0.6975  1.2793 -0.9736
 9114SOL    HW229975   3.368   6.312   9.565  0.2366  0.7087 -0.9529
 9115SOL     OW29976   4.196   7.060   3.216  0.0787  0.2126  0.3115
 9115SOL    HW129977   4.255   7.019   3.153  0.6568  2.1663 -0.4637
 9115SOL    HW229978   4.253   7.103   3.279 -0.5224 -0.1061  1.0936
 9116SOL     OW29979   0.088   4.748   7.509  0.0274  0.2573  0.0491
 9116SOL    HW129980   0.160   4.808   7.529  1.5566 -0.4961 -2.6666
 9116SOL    HW229981   0.123   4.661   7.528 -0.1418 -0.1151 -1.2331
 9117SOL     OW29982  10.285   1.650   2.909 -0.1241  0.2147  0.2174
 9117SOL    HW129983  10.300   1.576   2.968 -0.4672  0.7681  1.0242
 9117SOL    HW229984  10.321   1.725   2.956  0.6156  0.5060 -0.7800
 9118SOL     OW29985   5.966   2.356   3.114 -0.8876  0.2378  0.0925
 9118SOL    HW129986   6.042   2.327   3.166 -0.3188  0.5910 -0.5241
 9118SOL    HW229987   5.977   2.450   3.106 -2.0036  0.4645  0.9257
 9119SOL     OW29988   3.577   0.532   5.305 -0.4464 -0.1032  0.0950
 9119SOL    HW129989   3.591   0.438   5.294  1.1959  0.0479  0.6088
 9119SOL    HW229990   3.639   0.573   5.245 -0.4079  0.6445  0.6290
 9120SOL     OW29991   9.002   8.871   9.549 -0.2350 -0.2583 -0.4600
 9120SOL    HW129992   8.934   8.921   9.593 -0.5719  0.5599 -1.8590
 9120SOL    HW229993   9.007   8.909   9.461  0.4580 -1.7862 -1.1191
 9121SOL     OW29994   9.809   9.647   1.051  0.4935 -0.1287 -0.0444
 9121SOL    HW129995   9.806   9.552   1.061 -1.3589 -0.2624 -1.3690
 9121SOL    HW229996   9.877   9.662   0.985 -1.2724 -0.8501 -2.1475
 9122SOL     OW29997   5.185   9.416   0.528  0.3434  0.0356 -0.4397
 9122SOL    HW129998   5.189   9.454   0.440 -1.1541 -0.8133 -0.9035
 9122SOL    HW229999   5.129   9.339   0.519  1.7183 -1.1793  0.8848
 9123SOL     OW30000   0.830   1.191  10.167  0.8004  0.5607  0.1619
 9123SOL    HW130001   0.881   1.151  10.237  1.1059  0.9602  0.1725
 9123SOL    HW230002   0.866   1.279  10.158  1.5647  0.1315 -1.2971
 9124SOL     OW30003   1.151   0.933  10.233 -0.6796  0.0969  0.1618
 9124SOL    HW130004   1.132   0.961  10.143 -1.4722 -2.2767 -0.4782
 9124SOL    HW230005   1.190   0.847  10.223 -0.0577  0.1203  2.0928
 9125SOL     OW30006   8.485   6.531  10.155  0.3604 -0.2406 -0.9213
 9125SOL    HW130007   8.395   6.503  10.171  0.7298 -1.7376 -1.3291
 9125SOL    HW230008   8.539   6.460  10.189  1.4672  1.2125  0.5221
 9126SOL     OW30009   9.805   7.985   9.726 -0.1619 -0.4957  0.1688
 9126SOL    HW130010   9.846   8.043   9.789 -0.5152 -1.8725  1.7471
 9126SOL    HW230011   9.849   7.901   9.738 -1.2945 -1.1847 -0.3300
 9127SOL     OW30012   6.576   6.809   6.584  0.3112 -0.1352  0.4009
 9127SOL    HW130013   6.632   6.759   6.524 -0.4184 -0.9954  0.4110
 9127SOL    HW230014   6.529   6.870   6.528 -0.6425 -1.1895  0.0192
 9128SOL     OW30015   7.950   1.454   3.060 -0.4590  0.1020 -0.4727
 9128SOL    HW130016   7.906   1.407   3.131  1.5387  1.8820  2.1324
 9128SOL    HW230017   7.916   1.544   3.066  0.5707  0.5464 -1.0422
 9129SOL     OW30018   6.434   1.745   9.995 -0.3139 -0.1365 -0.1195
 9129SOL    HW130019   6.414   1.737  10.088  1.0097 -2.6756  0.0484
 9129SOL    HW230020   6.492   1.820   9.990 -0.9030  0.4219  1.0059
 9130SOL     OW30021   3.715   6.351   3.641 -0.3569  0.5613 -0.4478
 9130SOL    HW130022   3.644   6.327   3.701  0.0199 -0.6427 -0.4637
 9130SOL    HW230023   3.794   6.341   3.693 -0.1434  1.3502 -0.6035
 9131SOL     OW30024   8.232   5.257   6.986 -0.0140 -0.5010 -0.2973
 9131SOL    HW130025   8.258   5.280   6.897  0.1263 -0.6924 -0.3057
 9131SOL    HW230026   8.142   5.226   6.978 -0.5252  0.8699 -0.1664
 9132SOL     OW30027   0.484   2.607   0.950  0.4682 -0.3030 -0.6323
 9132SOL    HW130028   0.425   2.658   0.894 -0.3835  1.1663  1.4955
 9132SOL    HW230029   0.550   2.670   0.977  1.2812 -1.1870 -0.5435
 9133SOL     OW30030   0.500   9.063   7.496 -0.4247  0.0092  0.4315
 9133SOL    HW130031   0.547   9.119   7.558 -0.8595  1.1638 -0.2678
 9133SOL    HW230032   0.558   9.056   7.421  0.7789 -2.6209  1.4819
 9134SOL     OW30033   1.071   3.378   2.184  0.4967  0.1697 -0.4977
 9134SOL    HW130034   1.035   3.342   2.102 -4.3986  1.6087  0.6974
 9134SOL    HW230035   1.058   3.309   2.248  2.0272 -0.0377 -0.3669
 9135SOL     OW30036   7.685   7.138   4.990 -0.0046  0.0314  0.7112
 9135SOL    HW130037   7.724   7.149   5.077 -0.7265  0.1473  1.0265
 9135SOL    HW230038   7.727   7.059   4.955 -0.3209 -0.5084  1.5113
 9136SOL     OW30039   7.525   8.719   4.907  0.0037  0.1525  0.3678
 9136SOL    HW130040   7.492   8.741   4.820 -0.5398  1.7652  0.9422
 9136SOL    HW230041   7.457   8.751   4.967  2.1810  2.9237  1.5579
 9137SOL     OW30042   5.682   1.330   3.020  0.7360 -0.0331  0.4519
 9137SOL    HW130043   5.673   1.424   3.035  2.0892 -0.0684  1.7389
 9137SOL    HW230044   5.775   1.312   3.033  0.5493 -1.5225 -0.0218
 9138SOL     OW30045   5.584   8.963   4.506  0.0533 -0.1733 -0.0090
 9138SOL    HW130046   5.546   9.018   4.575  0.4693 -1.4120  1.2319
 9138SOL    HW230047   5.678   8.975   4.515  0.0953  0.5362 -1.1323
 9139SOL     OW30048   4.505   8.786   6.240  0.1186 -0.1589 -0.4098
 9139SOL    HW130049   4.559   8.829   6.174  0.1569 -0.0768 -0.3252
 9139SOL    HW230050   4.491   8.852   6.307  3.0366 -1.1954  1.4399
 9140SOL     OW30051   4.222   7.552   3.655  0.1428 -0.3606 -0.0439
 9140SOL    HW130052   4.185   7.478   3.703  0.6215  0.5720  1.8310
 9140SOL    HW230053   4.305   7.569   3.698  0.7002  0.3868 -1.3770
 9141SOL     OW30054   2.057   6.601  10.173  0.4723  0.0235  0.3643
 9141SOL    HW130055   1.994   6.644  10.115  1.0499  0.2155 -0.1344
 9141SOL    HW230056   2.063   6.512  10.140  3.3135  0.9462 -2.1152
 9142SOL     OW30057   1.906   8.512   0.920  0.0185  0.2552 -0.4061
 9142SOL    HW130058   1.987   8.534   0.967  0.2576  0.5050 -0.9284
 9142SOL    HW230059   1.841   8.572   0.957 -0.0817 -0.3822  0.4682
 9143SOL     OW30060   1.497   9.704   5.374 -0.0608  0.1448  0.2002
 9143SOL    HW130061   1.526   9.770   5.312  0.8494 -0.1838  0.2545
 9143SOL    HW230062   1.496   9.749   5.459  1.5213 -0.1320  0.4020
 9144SOL     OW30063   5.523   7.107   2.454  0.4942  0.3344 -0.0812
 9144SOL    HW130064   5.444   7.124   2.505  0.0683 -0.0892 -0.5944
 9144SOL    HW230065   5.594   7.120   2.517 -0.0743 -1.5677  1.0503
 9145SOL     OW30066   5.666   2.805   3.487  0.2812 -0.2573 -0.1498
 9145SOL    HW130067   5.630   2.893   3.494 -0.2103 -0.2477 -2.0970
 9145SOL    HW230068   5.592   2.752   3.458  0.4513 -1.4440  1.4390
 9146SOL     OW30069   0.073   4.880   5.565 -0.1249 -0.1674  0.5513
 9146SOL    HW130070   0.138   4.948   5.581  0.1378 -0.9421  3.2144
 9146SOL    HW230071  -0.010   4.918   5.593 -0.1155 -0.6034  1.1976
 9147SOL     OW30072   4.637   3.922   6.240 -0.5112  0.4340  0.2652
 9147SOL    HW130073   4.586   3.921   6.159  2.2168 -1.1823 -1.5568
 9147SOL    HW230074   4.709   3.983   6.222 -0.1578  0.4743  1.7046
 9148SOL     OW30075   0.051   2.298   5.543  0.4527  0.8873 -0.4874
 9148SOL    HW130076   0.050   2.388   5.576  2.1256  0.9865 -0.6271
 9148SOL    HW230077   0.144   2.275   5.540  0.0641 -0.7222 -0.8028
 9149SOL     OW30078   2.213   0.130   5.215  0.5289 -0.0327  0.5977
 9149SOL    HW130079   2.275   0.160   5.149  0.0652 -2.0422 -0.8331
 9149SOL    HW230080   2.221   0.194   5.286  3.2868  0.5103 -0.0735
 9150SOL     OW30081   8.969   2.950   4.784  0.0999  0.1975  0.2131
 9150SOL    HW130082   8.954   2.893   4.859 -1.1598 -1.8808 -1.5016
 9150SOL    HW230083   9.052   2.921   4.747  1.4420  2.1581  1.5183
 9151SOL     OW30084   1.612   0.931  10.343  0.0824 -0.5095  0.2604
 9151SOL    HW130085   1.549   0.861  10.332  1.0310 -1.3698  0.1064
 9151SOL    HW230086   1.697   0.889  10.328  0.5728  1.4334 -4.3136
 9152SOL     OW30087   7.584   2.760   3.130 -0.6306  0.1348 -0.0474
 9152SOL    HW130088   7.496   2.774   3.095 -1.4014  1.2836  2.1645
 9152SOL    HW230089   7.582   2.672   3.167 -0.8575  0.1540 -0.0111
 9153SOL     OW30090   1.994   6.602   2.915  0.5345 -0.1248  0.0527
 9153SOL    HW130091   2.016   6.509   2.917  0.9777 -0.0540 -0.8131
 9153SOL    HW230092   1.915   6.606   2.860 -0.6199 -0.1804  1.6512
 9154SOL     OW30093   8.064   9.910   0.174 -0.4380 -0.3359 -0.3455
 9154SOL    HW130094   8.000   9.839   0.170 -1.9027  0.5659  3.1080
 9154SOL    HW230095   8.149   9.866   0.176 -1.2058 -1.8911 -0.2493
 9155SOL     OW30096   9.229   6.142   9.172  0.2031  0.0383  0.2894
 9155SOL    HW130097   9.308   6.107   9.131  0.6166  0.7247  0.4892
 9155SOL    HW230098   9.231   6.107   9.261 -0.1036 -0.5338  0.0757
 9156SOL     OW30099   3.522   5.494   7.954  0.5518 -0.5343  0.5997
 9156SOL    HW130100   3.530   5.586   7.932  3.6597 -0.5396  1.3426
 9156SOL    HW230101   3.523   5.449   7.869 -0.3935  0.0258  0.2706
 9157SOL     OW30102   4.078   5.862   7.889 -0.0349  0.3781 -0.7338
 9157SOL    HW130103   4.052   5.771   7.900  0.4317  0.2553 -0.6722
 9157SOL    HW230104   4.172   5.860   7.874 -0.0496  0.8357 -0.9252
 9158SOL     OW30105   0.480   0.187   8.126  0.7082  0.1764  0.0866
 9158SOL    HW130106   0.533   0.267   8.132  2.2784 -0.8426  0.2757
 9158SOL    HW230107   0.489   0.160   8.034 -0.3887  0.5661 -0.1506
 9159SOL     OW30108   6.524   6.285   2.584  0.3167  0.1864 -0.6667
 9159SOL    HW130109   6.471   6.287   2.505  2.4347 -0.5966 -2.1990
 9159SOL    HW230110   6.614   6.289   2.553  1.3707 -2.8734  1.4663
 9160SOL     OW30111  10.307  10.177   5.326  0.3863 -0.1764 -0.4679
 9160SOL    HW130112  10.260  10.250   5.365  1.5175  0.0625  0.5255
 9160SOL    HW230113  10.382  10.218   5.281  0.2321 -0.6202 -1.1542
 9161SOL     OW30114   4.639   1.176   3.769  0.1824 -0.5464  0.0378
 9161SOL    HW130115   4.607   1.244   3.829  2.4486 -1.2635  2.2352
 9161SOL    HW230116   4.690   1.223   3.703 -0.0744  0.0520  0.2622
 9162SOL     OW30117   4.094   0.436   4.657  0.1299 -0.2376  0.4526
 9162SOL    HW130118   4.169   0.484   4.622  1.1575 -1.9367  0.2596
 9162SOL    HW230119   4.115   0.344   4.644 -1.2695 -0.8092  1.8736
 9163SOL     OW30120   1.741  10.208   1.784  0.1328  0.4722  0.4478
 9163SOL    HW130121   1.680  10.273   1.819  0.1043  0.5537  0.2471
 9163SOL    HW230122   1.686  10.138   1.752  0.2065 -0.4291  2.1717
 9164SOL     OW30123   9.351   8.230   6.583  0.6781 -0.4508 -0.3884
 9164SOL    HW130124   9.296   8.202   6.510  1.9594  0.1797 -1.6414
 9164SOL    HW230125   9.392   8.311   6.552 -0.9352  1.4808  2.1273
 9165SOL     OW30126   8.223   1.373  10.192  0.3705  0.5855  0.3525
 9165SOL    HW130127   8.210   1.327  10.110  1.3995 -2.1480  1.5955
 9165SOL    HW230128   8.311   1.411  10.185  0.5252  0.2123  0.2587
 9166SOL     OW30129   7.748   6.986   3.359  0.2698 -0.1653  0.2530
 9166SOL    HW130130   7.745   6.980   3.454 -3.1544  1.3605  0.3638
 9166SOL    HW230131   7.661   6.959   3.330  1.1427 -0.3935 -2.4686
 9167SOL     OW30132   6.968   6.246   0.675  0.1823  0.2097  1.0026
 9167SOL    HW130133   6.937   6.213   0.590 -0.1548 -0.2463  1.2966
 9167SOL    HW230134   7.016   6.172   0.712 -2.0098 -0.6128  2.4145
 9168SOL     OW30135   6.995   5.058   5.163 -0.3464  0.2382 -0.2405
 9168SOL    HW130136   6.947   5.141   5.164 -0.6958  0.0498  1.5030
 9168SOL    HW230137   6.936   4.997   5.120 -0.0680  0.8786 -1.5895
 9169SOL     OW30138   0.477   5.260   3.326 -0.5267  0.3819  0.2773
 9169SOL    HW130139   0.485   5.354   3.308 -0.0506  0.6492  1.7627
 9169SOL    HW230140   0.565   5.225   3.311 -0.1329  0.5996  1.8580
 9170SOL     OW30141   0.734  10.120   4.963  0.1853 -0.5854  0.5209
 9170SOL    HW130142   0.639  10.132   4.965  0.1770 -0.4094 -0.5445
 9170SOL    HW230143   0.761  10.126   5.055 -0.6520  0.7455  0.6951
 9171SOL     OW30144   9.058   5.499   5.213  0.5487 -0.1782 -0.1110
 9171SOL    HW130145   9.067   5.442   5.289 -0.9981 -0.2495  0.0554
 9171SOL    HW230146   8.971   5.480   5.179  1.3880 -0.5656 -2.2519
 9172SOL     OW30147   8.477   8.843   5.793  0.1165 -0.5250  0.0954
 9172SOL    HW130148   8.546   8.796   5.748 -0.5964 -1.4197 -0.0978
 9172SOL    HW230149   8.410   8.777   5.811 -2.7565  1.0152 -3.6986
 9173SOL     OW30150   1.027   1.456   2.720 -0.5199 -0.0600  0.1720
 9173SOL    HW130151   1.069   1.422   2.799  2.1543  0.3252 -0.9912
 9173SOL    HW230152   1.031   1.551   2.730 -1.9339 -0.0065  0.4074
 9174SOL     OW30153   7.532   9.267   6.913 -0.0755 -0.0963  0.3833
 9174SOL    HW130154   7.459   9.237   6.859  0.4044 -0.7190  0.0726
 9174SOL    HW230155   7.560   9.189   6.962 -0.5015  0.4524  1.5382
 9175SOL     OW30156   5.619   3.127   8.382 -0.1071 -0.5852 -0.1187
 9175SOL    HW130157   5.524   3.129   8.392 -0.6158 -1.4473 -3.5008
 9175SOL    HW230158   5.647   3.218   8.397 -1.8032  0.1882 -1.3551
 9176SOL     OW30159   0.959   1.313   7.852 -0.3425 -0.4251 -0.1027
 9176SOL    HW130160   0.923   1.226   7.837  1.1865 -1.1306  0.1664
 9176SOL    HW230161   0.976   1.316   7.946 -0.0201  0.0208 -0.1730
 9177SOL     OW30162   4.291   6.146   8.428  0.6618  0.3811  0.0716
 9177SOL    HW130163   4.206   6.132   8.385 -0.3423 -0.2556  2.1523
 9177SOL    HW230164   4.274   6.212   8.495  1.2488 -1.3295  1.9864
 9178SOL     OW30165   3.561   0.537   0.753  0.5053 -0.2094  0.2115
 9178SOL    HW130166   3.655   0.520   0.751  1.0968  2.4783 -1.7900
 9178SOL    HW230167   3.553   0.626   0.788 -1.3380 -0.5285  0.7137
 9179SOL     OW30168   1.325   0.158   3.213 -0.2166 -0.3920  0.1322
 9179SOL    HW130169   1.341   0.237   3.160 -0.4152 -0.2395  0.2989
 9179SOL    HW230170   1.295   0.093   3.151 -1.9113  0.2180  0.2532
 9180SOL     OW30171   1.026   5.804   8.385  0.2750  0.0237  0.1867
 9180SOL    HW130172   1.025   5.709   8.374 -0.5982 -0.1273  1.4650
 9180SOL    HW230173   1.114   5.830   8.355  0.2745 -1.0759 -0.8499
 9181SOL     OW30174   0.682   9.773   3.180  0.1999 -0.7344 -0.3821
 9181SOL    HW130175   0.770   9.740   3.165  0.6372 -0.2689  0.9814
 9181SOL    HW230176   0.628   9.694   3.187  1.1203 -1.2442  2.1833
 9182SOL     OW30177   1.415   5.170   1.577 -0.3355 -0.2252 -0.7514
 9182SOL    HW130178   1.426   5.103   1.644 -1.0625 -0.1374 -0.5374
 9182SOL    HW230179   1.491   5.159   1.520 -0.1281 -0.8243 -0.3741
 9183SOL     OW30180   6.252   7.282   6.807 -0.0065 -0.2773 -0.7531
 9183SOL    HW130181   6.279   7.372   6.789  1.0483 -0.8239 -2.0640
 9183SOL    HW230182   6.184   7.291   6.873  0.3049  1.4605 -0.6093
 9184SOL     OW30183   5.770   7.700   0.351  0.0158 -0.8262 -0.2890
 9184SOL    HW130184   5.702   7.674   0.289  0.0863 -1.2756 -0.1784
 9184SOL    HW230185   5.726   7.700   0.436 -0.2747  0.5015 -0.4112
 9185SOL     OW30186   4.219   6.095   1.998  0.4858  0.1449  0.6831
 9185SOL    HW130187   4.211   6.149   2.077  1.5436  1.1184  0.1606
 9185SOL    HW230188   4.204   6.156   1.926 -1.5487 -0.9431  0.1082
 9186SOL     OW30189   6.722  10.359   4.688  0.0323  0.2394  0.0593
 9186SOL    HW130190   6.659  10.386   4.622 -0.9483 -2.3014 -0.1451
 9186SOL    HW230191   6.673  10.360   4.770 -0.4602 -2.0353 -0.1437
 9187SOL     OW30192  10.049   6.750   5.837 -0.0151  0.0140  0.0972
 9187SOL    HW130193   9.963   6.733   5.874 -0.5954  0.7620 -0.8600
 9187SOL    HW230194  10.066   6.842   5.858  0.5571 -0.1311  0.2897
 9188SOL     OW30195   3.872   5.582   1.865  0.5779 -0.3241  0.3676
 9188SOL    HW130196   3.951   5.607   1.817 -0.7235 -0.4828 -2.0157
 9188SOL    HW230197   3.888   5.492   1.893  2.1769  0.4477  2.1250
 9189SOL     OW30198   5.156   5.002   2.325 -0.0366  0.5701 -0.4392
 9189SOL    HW130199   5.087   5.012   2.390 -0.5530  0.8069 -1.0140
 9189SOL    HW230200   5.235   5.033   2.368 -0.2932  0.3244  0.2183
 9190SOL     OW30201   3.663   8.805   0.833 -0.0861 -0.7540  0.4560
 9190SOL    HW130202   3.702   8.731   0.880 -0.9722 -0.8968  1.0009
 9190SOL    HW230203   3.735   8.865   0.818  0.3797 -1.0974  1.2608
 9191SOL     OW30204   2.014   9.042   4.440 -0.7614  0.0733  0.0747
 9191SOL    HW130205   2.010   9.063   4.533 -0.4631 -0.6528  0.2559
 9191SOL    HW230206   2.093   8.989   4.430 -0.3373  0.8228 -0.7320
 9192SOL     OW30207   8.445   2.794   4.603  0.0099  0.2174  0.0243
 9192SOL    HW130208   8.511   2.862   4.613  2.3856 -1.8727 -0.4821
 9192SOL    HW230209   8.453   2.765   4.512 -0.4229 -1.1907  0.4030
 9193SOL     OW30210   6.192   8.298   5.399 -0.7187  0.0879  0.2467
 9193SOL    HW130211   6.128   8.255   5.457 -0.3822 -1.4330 -0.4493
 9193SOL    HW230212   6.188   8.390   5.424 -2.1519 -0.1816  1.1958
 9194SOL     OW30213   5.503   4.945   0.154 -0.0273 -0.1544  0.0626
 9194SOL    HW130214   5.442   4.961   0.082 -0.5638 -1.7544  0.1241
 9194SOL    HW230215   5.536   4.856   0.138  1.3126  0.1859  0.7506
 9195SOL     OW30216   1.013   1.425   8.316 -0.7985  0.4839 -0.0472
 9195SOL    HW130217   1.003   1.519   8.335  1.0001  0.3781  1.7649
 9195SOL    HW230218   0.967   1.381   8.388  0.4889  0.0182  0.5172
 9196SOL     OW30219   8.522   8.038   5.190  0.2271 -0.0202  0.5231
 9196SOL    HW130220   8.554   7.948   5.187 -1.2013 -0.6245  1.9716
 9196SOL    HW230221   8.586   8.084   5.245  0.3290 -0.4498  0.7707
 9197SOL     OW30222   1.268   9.024   2.051 -0.3002  0.1417 -0.2049
 9197SOL    HW130223   1.306   9.102   2.011 -1.2345  2.7186  3.4006
 9197SOL    HW230224   1.309   9.019   2.137 -0.7733 -3.0436 -0.0560
 9198SOL     OW30225   7.836   8.227  10.019  0.5970 -0.2256 -0.1598
 9198SOL    HW130226   7.759   8.170  10.019  0.6544 -0.3136 -0.9466
 9198SOL    HW230227   7.868   8.224  10.109 -0.1796 -0.3744  0.1158
 9199SOL     OW30228   9.064   9.225   5.923 -0.1220  0.6774  0.2399
 9199SOL    HW130229   9.053   9.265   6.009  0.2972  0.3957  0.4251
 9199SOL    HW230230   9.016   9.143   5.928  0.4619  0.3439  0.4274
 9200SOL     OW30231   1.145   2.176   1.657  0.5662  0.8489  0.3210
 9200SOL    HW130232   1.089   2.224   1.596 -0.0510  0.6403  0.7083
 9200SOL    HW230233   1.226   2.227   1.661  0.2784  1.3353 -0.0062
 9201SOL     OW30234   9.875  10.032   6.056 -0.5553 -0.1366  0.2658
 9201SOL    HW130235   9.838  10.003   6.139  1.0055 -2.2866  0.3097
 9201SOL    HW230236   9.926  10.110   6.078 -1.9607  0.6478  0.8599
 9202SOL     OW30237   3.428   9.239   8.066 -0.5327  0.2808 -0.3856
 9202SOL    HW130238   3.344   9.204   8.095  0.4647  0.7865  3.7006
 9202SOL    HW230239   3.492   9.199   8.124  1.8090  1.6031 -1.9102
 9203SOL     OW30240   0.661   6.824   8.929  0.1960 -0.4647  0.0753
 9203SOL    HW130241   0.662   6.920   8.931 -2.7807 -0.3593  1.3070
 9203SOL    HW230242   0.630   6.803   8.841 -1.8858 -0.0956  0.6450
 9204SOL     OW30243   9.689   3.565   2.840 -0.6351  0.6953 -0.2591
 9204SOL    HW130244   9.694   3.611   2.923  0.2826 -0.4478  0.3483
 9204SOL    HW230245   9.747   3.489   2.850 -0.2061  0.7258 -2.0637
 9205SOL     OW30246   1.898   0.270   2.741 -0.4611  0.3061 -0.1473
 9205SOL    HW130247   1.805   0.273   2.719 -0.3699  0.4942 -0.5186
 9205SOL    HW230248   1.900   0.252   2.835 -0.8514 -1.3588 -0.4287
 9206SOL     OW30249   5.786   0.348   3.647 -0.1507 -0.8962  0.0391
 9206SOL    HW130250   5.793   0.406   3.723 -2.2585 -1.6482  0.8950
 9206SOL    HW230251   5.827   0.267   3.675  0.3953 -0.6910 -0.1682
 9207SOL     OW30252   0.968   3.354   7.850 -0.3109 -0.3309 -0.2811
 9207SOL    HW130253   0.893   3.412   7.860 -1.1335 -0.9315 -2.4406
 9207SOL    HW230254   1.034   3.407   7.807 -0.8670 -0.7856 -1.7548
 9208SOL     OW30255   0.652   9.117   0.840  0.3087 -0.0948  0.3537
 9208SOL    HW130256   0.609   9.042   0.799  1.0605 -1.1607  1.4286
 9208SOL    HW230257   0.580   9.169   0.876 -0.1825 -1.2111  1.0646
 9209SOL     OW30258   3.618   4.732   8.435 -0.6495 -0.0186  0.1505
 9209SOL    HW130259   3.545   4.709   8.378 -0.8781 -0.9315  0.7835
 9209SOL    HW230260   3.675   4.787   8.381 -0.3199 -1.7009 -1.3040
 9210SOL     OW30261   0.354   0.130   3.129 -0.1084 -0.2837 -0.1973
 9210SOL    HW130262   0.353   0.035   3.136  0.4300 -0.2828 -0.0243
 9210SOL    HW230263   0.418   0.149   3.060 -1.8166 -0.1094 -1.8274
 9211SOL     OW30264   9.096   8.150   5.991 -0.8225  0.0123  0.4378
 9211SOL    HW130265   9.044   8.190   5.921 -0.6754 -3.3253 -1.8194
 9211SOL    HW230266   9.073   8.057   5.987  1.1780 -0.7230  3.1544
 9212SOL     OW30267   3.151   4.769   5.799 -0.1661 -0.2779  0.1803
 9212SOL    HW130268   3.155   4.832   5.726  0.2821 -1.7914 -1.1505
 9212SOL    HW230269   3.082   4.707   5.773 -0.9868 -0.0676  1.7295
 9213SOL     OW30270   6.992   3.786   0.569 -0.2155 -0.3960  0.2087
 9213SOL    HW130271   7.047   3.802   0.492 -1.0730 -0.3666 -0.4071
 9213SOL    HW230272   7.052   3.796   0.643  0.1219  1.9442 -0.3167
 9214SOL     OW30273   2.447   6.183   8.208 -0.4616  0.7087 -0.3310
 9214SOL    HW130274   2.478   6.273   8.214  0.4204  0.4805 -1.1954
 9214SOL    HW230275   2.404   6.167   8.292  1.1263  1.2910  0.6339
 9215SOL     OW30276   6.378   5.346   7.162  0.0659  0.4381  0.2678
 9215SOL    HW130277   6.437   5.281   7.124 -0.4671  0.5986 -0.9062
 9215SOL    HW230278   6.305   5.351   7.100  0.0849  2.1450  0.3200
 9216SOL     OW30279   5.215   1.730   5.466  0.3351 -0.0264 -0.2491
 9216SOL    HW130280   5.132   1.778   5.471  0.7209  0.4851  2.5409
 9216SOL    HW230281   5.202   1.668   5.394 -2.1667  0.5591 -0.3916
 9217SOL     OW30282   6.471   3.646   9.614 -0.7420 -0.0645 -0.2466
 9217SOL    HW130283   6.548   3.684   9.572 -0.5678  0.4290  0.5012
 9217SOL    HW230284   6.433   3.589   9.548  0.8634 -1.1463 -0.2904
 9218SOL     OW30285   4.533   7.954   5.479  0.4625  0.1159 -0.1919
 9218SOL    HW130286   4.472   7.978   5.410  0.2833  3.0426  0.8317
 9218SOL    HW230287   4.502   7.870   5.512 -1.2141  0.1222 -1.6605
 9219SOL     OW30288   6.234   7.141   6.316  0.6589  0.4002 -0.5524
 9219SOL    HW130289   6.232   7.235   6.296  0.4133  0.4724 -0.2000
 9219SOL    HW230290   6.281   7.136   6.399 -0.6133  0.3510  0.1766
 9220SOL     OW30291   8.897   8.397   4.364  0.3018 -0.4454  0.1446
 9220SOL    HW130292   8.860   8.455   4.431 -0.4549 -2.3060  1.4369
 9220SOL    HW230293   8.962   8.450   4.319  0.9627  0.8668  2.4710
 9221SOL     OW30294   4.927   1.093  10.076 -0.1779  0.5309  0.2665
 9221SOL    HW130295   4.944   1.006  10.112 -0.8716  0.0256 -0.5638
 9221SOL    HW230296   4.859   1.078  10.010  0.5651  1.5070 -0.7685
 9222SOL     OW30297   5.506   0.400   9.042  0.6716 -0.2789  0.3751
 9222SOL    HW130298   5.548   0.347   9.111  1.9327  0.8954  0.5465
 9222SOL    HW230299   5.544   0.368   8.961 -0.4301 -1.3061  0.2302
 9223SOL     OW30300   5.389   9.607   6.771  0.2106  0.1166 -0.4042
 9223SOL    HW130301   5.327   9.677   6.789  0.8498  0.5503  0.1383
 9223SOL    HW230302   5.458   9.648   6.719  1.4253  0.3185  1.2929
 9224SOL     OW30303   6.836   7.804   5.332 -0.0540  0.2530 -0.3155
 9224SOL    HW130304   6.889   7.824   5.255 -1.4030  0.9171 -1.1088
 9224SOL    HW230305   6.780   7.881   5.343 -0.0710  0.0681  1.1914
 9225SOL     OW30306   8.367   9.217   6.059  0.5760 -0.1786 -0.6144
 9225SOL    HW130307   8.291   9.169   6.028  1.1169 -1.4239 -0.0959
 9225SOL    HW230308   8.436   9.151   6.065  0.7881  0.1754  2.1736
 9226SOL     OW30309   6.109   3.607   1.359 -0.2696  0.0182  0.0582
 9226SOL    HW130310   6.035   3.553   1.387 -0.1798 -1.2207 -1.8504
 9226SOL    HW230311   6.162   3.548   1.306  0.9904  1.4501 -0.3477
 9227SOL     OW30312   4.282   8.223   9.831 -0.4333  0.3643 -0.0699
 9227SOL    HW130313   4.310   8.139   9.793 -0.7455 -0.3688  1.2777
 9227SOL    HW230314   4.319   8.289   9.772  1.4017 -0.6656 -0.1493
 9228SOL     OW30315   3.000   0.549   0.735 -0.9694  0.2420 -0.4564
 9228SOL    HW130316   2.925   0.596   0.773 -0.1927  1.1058  0.0480
 9228SOL    HW230317   2.979   0.457   0.748 -1.4805  0.4892  0.6314
 9229SOL     OW30318   9.650   0.344   1.334  0.0397  0.0587 -0.3157
 9229SOL    HW130319   9.714   0.358   1.263  1.5155 -1.7343  0.5631
 9229SOL    HW230320   9.673   0.258   1.370 -1.1347  0.5775  1.8554
 9230SOL     OW30321   7.761   6.787   3.882 -0.0323  0.0930 -0.2605
 9230SOL    HW130322   7.850   6.769   3.911 -0.3422 -1.2785 -0.0980
 9230SOL    HW230323   7.710   6.793   3.964 -0.4538 -1.2427 -0.4079
 9231SOL     OW30324   1.476   9.337   1.262  0.2150  0.2971 -0.2318
 9231SOL    HW130325   1.387   9.362   1.289  0.6117  1.0547  0.4093
 9231SOL    HW230326   1.499   9.400   1.194  0.9171  1.2301  0.8352
 9232SOL     OW30327   3.543   9.558   7.167  0.3207  0.2917 -0.5441
 9232SOL    HW130328   3.462   9.610   7.167 -0.3397 -0.6928  0.6263
 9232SOL    HW230329   3.602   9.607   7.224 -0.4839 -0.4741  0.9949
 9233SOL     OW30330   9.783   5.507   9.602 -0.1188  0.2122 -0.6001
 9233SOL    HW130331   9.756   5.521   9.693  0.8163 -0.5380 -0.1851
 9233SOL    HW230332   9.810   5.593   9.571 -0.0650  0.4010 -0.0382
 9234SOL     OW30333   9.966   6.933   0.290 -0.6198  0.3320 -0.1558
 9234SOL    HW130334   9.925   6.926   0.376  0.1237  0.9044  0.2624
 9234SOL    HW230335   9.898   6.969   0.233 -0.7886  1.0301  0.4640
 9235SOL     OW30336   4.662   9.564   7.756  0.4527 -0.2769  0.0883
 9235SOL    HW130337   4.614   9.640   7.788 -1.5541  0.2421 -3.6562
 9235SOL    HW230338   4.745   9.600   7.724 -0.6850  0.5027 -2.1028
 9236SOL     OW30339   8.014   0.024   2.262 -0.4122 -0.2974 -0.0232
 9236SOL    HW130340   8.058  -0.034   2.201 -0.2372 -0.9783  0.7237
 9236SOL    HW230341   8.083   0.058   2.319 -0.5054  0.7011 -0.4870
 9237SOL     OW30342   8.967   8.155   2.098 -0.3874 -0.0320 -0.2241
 9237SOL    HW130343   9.001   8.088   2.158  0.4831  0.7190  0.1660
 9237SOL    HW230344   8.954   8.232   2.154  0.9181  0.8425 -1.0623
 9238SOL     OW30345   3.031   4.027   2.743 -0.1263 -0.1838 -0.2635
 9238SOL    HW130346   2.956   3.991   2.790  0.5991 -0.3353  0.8139
 9238SOL    HW230347   3.054   4.106   2.791 -0.8788  1.0475 -1.8371
 9239SOL     OW30348   4.074   2.283   0.980 -0.4941  0.2643  0.3373
 9239SOL    HW130349   4.162   2.297   1.016 -0.3584 -1.9014  0.9859
 9239SOL    HW230350   4.026   2.363   1.003  1.3871  1.7015 -0.4241
 9240SOL     OW30351   2.349   5.734   7.981 -0.1865  0.9439 -0.4913
 9240SOL    HW130352   2.361   5.804   8.044 -1.0217  1.6921 -1.1360
 9240SOL    HW230353   2.434   5.728   7.936  0.8002 -0.3646  1.3958
 9241SOL     OW30354   1.145   6.710   3.916  0.7574 -0.0953  0.2113
 9241SOL    HW130355   1.196   6.631   3.934  0.7412  0.3985  2.8812
 9241SOL    HW230356   1.203   6.765   3.863  1.3162 -1.2768 -0.4522
 9242SOL     OW30357   1.480   9.906   6.828  0.0519  0.3469  0.5221
 9242SOL    HW130358   1.555   9.950   6.868  0.0509 -0.2435  1.1933
 9242SOL    HW230359   1.518   9.834   6.777 -0.0817 -0.3036  1.3243
 9243SOL     OW30360   4.861   0.972   1.561 -0.7255 -0.0549 -0.3785
 9243SOL    HW130361   4.938   0.989   1.507 -0.1824  0.0205  0.3923
 9243SOL    HW230362   4.897   0.939   1.644 -1.4343  1.2105  0.4711
 9244SOL     OW30363   8.332   6.877   4.542  0.1294 -0.8779 -0.2366
 9244SOL    HW130364   8.267   6.869   4.612  0.9051 -0.8335  0.5057
 9244SOL    HW230365   8.384   6.954   4.565  1.9383 -2.2516  0.4775
 9245SOL     OW30366   0.030   0.907   4.158  0.2583 -0.1280  0.4074
 9245SOL    HW130367   0.097   0.973   4.137 -0.3384  0.5352  0.5485
 9245SOL    HW230368  -0.021   0.946   4.229 -2.6190  1.0671 -2.0847
 9246SOL     OW30369   5.297   9.763   7.352  0.4693 -0.5072 -0.1634
 9246SOL    HW130370   5.388   9.754   7.383  0.1446  0.2202  1.0665
 9246SOL    HW230371   5.278   9.857   7.362 -0.4746 -0.6878 -0.2358
 9247SOL     OW30372   7.744   7.359  10.127 -0.2520 -0.4669  0.3770
 9247SOL    HW130373   7.771   7.422  10.194 -1.4875 -0.8207  1.2311
 9247SOL    HW230374   7.821   7.350  10.071  0.2808  1.0462  0.8061
 9248SOL     OW30375   9.844   5.130   5.581 -0.3482 -0.4082  0.4946
 9248SOL    HW130376   9.930   5.145   5.621 -0.2294  1.2434 -0.2933
 9248SOL    HW230377   9.836   5.035   5.576  2.2565 -0.6492 -1.0734
 9249SOL     OW30378   7.559   2.307   7.444 -0.3605  0.1084  0.2932
 9249SOL    HW130379   7.619   2.359   7.498  0.8498  0.2340 -1.1155
 9249SOL    HW230380   7.559   2.221   7.485 -1.4092  0.8284  1.9208
 9250SOL     OW30381   2.032   4.117   4.877 -0.0538 -0.1427  0.0958
 9250SOL    HW130382   2.034   4.067   4.795 -2.5174 -0.7274  0.3098
 9250SOL    HW230383   2.124   4.138   4.894  0.9553 -3.2795 -0.8229
 9251SOL     OW30384   5.536   0.657   1.411 -0.2829  0.5564  0.0539
 9251SOL    HW130385   5.558   0.641   1.319 -0.1032 -0.3843  0.2473
 9251SOL    HW230386   5.615   0.632   1.459 -0.7644 -0.0436  0.5460
 9252SOL     OW30387   0.858   5.412   2.951  0.1784  0.0033 -0.0104
 9252SOL    HW130388   0.777   5.404   3.001  1.6112 -0.0698  2.4489
 9252SOL    HW230389   0.925   5.430   3.016  1.8719  2.1949 -2.1501
 9253SOL     OW30390   4.510   2.010  10.308 -0.2394  0.0161 -0.3096
 9253SOL    HW130391   4.550   2.097  10.312 -0.5572  0.1357  0.3931
 9253SOL    HW230392   4.519   1.975  10.396  0.2397 -0.8370 -0.6791
 9254SOL     OW30393   3.401   5.219   2.931  0.3354 -0.6458  0.6400
 9254SOL    HW130394   3.445   5.243   3.012 -0.2610 -1.3712  1.1995
 9254SOL    HW230395   3.331   5.283   2.922  0.9825  0.0097  0.1858
 9255SOL     OW30396   2.431   2.286   4.917 -0.0496  0.1342 -0.4227
 9255SOL    HW130397   2.502   2.326   4.867 -0.8992  0.2094 -1.6345
 9255SOL    HW230398   2.461   2.197   4.934  0.7396  0.4598 -0.0326
 9256SOL     OW30399   5.621   9.040   0.227 -0.0464  0.0710 -0.4376
 9256SOL    HW130400   5.623   9.108   0.295  1.8008 -1.3624  1.0574
 9256SOL    HW230401   5.696   9.060   0.171  1.5571 -1.5966  1.0025
 9257SOL     OW30402   5.750   2.611   0.901  1.1632 -0.1284 -0.8029
 9257SOL    HW130403   5.714   2.582   0.818 -0.5131  1.6220 -0.7628
 9257SOL    HW230404   5.829   2.660   0.878  0.2337  1.0960 -1.4726
 9258SOL     OW30405   3.147   1.048   6.965 -0.3196  0.3868 -0.3406
 9258SOL    HW130406   3.157   1.115   7.032 -0.6274  1.9368 -1.7821
 9258SOL    HW230407   3.198   1.079   6.891  1.8172 -2.3404 -0.1785
 9259SOL     OW30408   5.444   9.395   1.793  0.1179 -0.3040 -0.6551
 9259SOL    HW130409   5.530   9.409   1.753 -0.1704 -1.9693 -1.9365
 9259SOL    HW230410   5.409   9.318   1.749 -1.5205 -0.4033  0.7260
 9260SOL     OW30411   3.366   4.558   0.128  0.1461 -0.0944  0.1333
 9260SOL    HW130412   3.401   4.479   0.169  3.3292  1.0144 -0.1332
 9260SOL    HW230413   3.325   4.526   0.047  0.0893 -1.5943  0.7178
 9261SOL     OW30414   8.262   9.695   4.430 -0.0166  0.2127  0.2472
 9261SOL    HW130415   8.265   9.747   4.349 -1.3650  1.6483  1.0643
 9261SOL    HW230416   8.322   9.740   4.489  0.1005 -0.1622  0.4118
 9262SOL     OW30417   2.812   5.670   6.485  0.3146 -0.2181  0.2013
 9262SOL    HW130418   2.764   5.705   6.560 -0.9016 -1.2542 -0.0748
 9262SOL    HW230419   2.848   5.587   6.515  0.5623 -0.2299 -0.1129
 9263SOL     OW30420   0.387   3.230   6.946 -0.2044  0.5375 -0.7863
 9263SOL    HW130421   0.483   3.230   6.950 -0.2095  0.2708 -0.6008
 9263SOL    HW230422   0.360   3.189   7.029 -0.4511 -0.6062 -1.4095
 9264SOL     OW30423   8.343   3.360   8.528  0.4570 -0.2794 -0.4636
 9264SOL    HW130424   8.264   3.307   8.516 -0.1494  0.3905  0.4483
 9264SOL    HW230425   8.364   3.352   8.621  0.7915  0.4719 -0.4639
 9265SOL     OW30426   7.800   3.070   3.882  0.2245 -0.0700  0.4047
 9265SOL    HW130427   7.806   3.077   3.977  1.1214  0.7162  0.3056
 9265SOL    HW230428   7.713   3.033   3.867 -0.9741  2.0978  1.4613
 9266SOL     OW30429   7.696  10.079   3.018  0.4314  0.3962  0.4689
 9266SOL    HW130430   7.766  10.039   2.966 -0.0265  1.4746 -1.0473
 9266SOL    HW230431   7.739  10.150   3.067  0.7091 -0.0940  0.9508
 9267SOL     OW30432   4.411   5.463   2.655  0.1163 -0.1927 -0.1730
 9267SOL    HW130433   4.506   5.453   2.649  0.5917  1.9408  2.0892
 9267SOL    HW230434   4.381   5.384   2.700  0.9924 -0.3396  0.1741
 9268SOL     OW30435   6.573   0.440   9.611 -0.3774  0.0150 -0.3558
 9268SOL    HW130436   6.521   0.520   9.599  1.0161  0.9999 -0.0045
 9268SOL    HW230437   6.554   0.388   9.533 -2.2160  0.1316 -0.0402
 9269SOL     OW30438   3.665   2.723   1.910  0.3401  0.0347  0.2835
 9269SOL    HW130439   3.638   2.809   1.876  0.4552  0.3119  0.8740
 9269SOL    HW230440   3.760   2.728   1.915  0.2870  0.2743  1.3311
 9270SOL     OW30441   6.033   9.993   8.056 -0.1117 -0.0154  0.6887
 9270SOL    HW130442   6.029   9.955   8.144 -1.9495  0.8708  1.0482
 9270SOL    HW230443   5.973  10.067   8.060 -0.3576 -0.0516 -1.3830
 9271SOL     OW30444   9.405   5.816  10.169 -0.1123 -0.7704  0.2932
 9271SOL    HW130445   9.360   5.842  10.249 -0.8169 -0.0914 -0.3010
 9271SOL    HW230446   9.390   5.889  10.108  1.0227 -0.9490 -0.2236
 9272SOL     OW30447   5.516   7.491   2.561 -0.2614 -0.1575  0.0463
 9272SOL    HW130448   5.553   7.480   2.648 -1.1911  0.7751  0.5771
 9272SOL    HW230449   5.474   7.577   2.563 -1.1422 -0.5329 -1.0092
 9273SOL     OW30450   5.331   5.196   6.865 -0.5847  0.1745 -0.0468
 9273SOL    HW130451   5.291   5.282   6.869 -1.3730 -0.1694 -0.4249
 9273SOL    HW230452   5.417   5.211   6.826  0.5357  1.2036  2.5716
 9274SOL     OW30453   5.549   6.507   7.001  0.7541  0.0302  0.3331
 9274SOL    HW130454   5.585   6.421   6.978  0.4620 -0.4270  1.5402
 9274SOL    HW230455   5.625   6.565   7.000  0.9155 -0.1800 -0.7342
 9275SOL     OW30456   2.625   5.088   7.685 -0.4608  0.1179  0.3213
 9275SOL    HW130457   2.529   5.092   7.692 -0.5277  1.9740 -0.7957
 9275SOL    HW230458   2.654   5.173   7.718  0.8530 -0.5722  1.0029
 9276SOL     OW30459   0.204   6.861   4.722 -0.7802  0.8443  0.2375
 9276SOL    HW130460   0.276   6.918   4.695  0.4935 -0.4043  0.8720
 9276SOL    HW230461   0.246   6.779   4.747 -2.5399 -0.3318 -0.4689
 9277SOL     OW30462   4.394   9.791   6.176 -0.4136 -0.2032  0.3818
 9277SOL    HW130463   4.355   9.741   6.104 -0.3912  1.5467 -0.8941
 9277SOL    HW230464   4.335   9.776   6.250 -2.5663  0.9372 -1.0130
 9278SOL     OW30465   9.964  10.123   7.021  0.2918 -0.2100 -0.2011
 9278SOL    HW130466  10.037  10.113   6.959  0.2687 -0.3607 -0.2052
 9278SOL    HW230467   9.996  10.082   7.101  0.3605  0.0785 -0.0802
 9279SOL     OW30468   2.345   1.057   5.000 -0.4570  0.2088  0.0264
 9279SOL    HW130469   2.338   1.079   4.907 -0.3539  0.4963  0.0836
 9279SOL    HW230470   2.417   1.112   5.031  0.8274 -1.2951 -0.1602
 9280SOL     OW30471   3.963   9.448   5.149  0.1931 -0.0789 -0.1525
 9280SOL    HW130472   4.044   9.397   5.158  0.6570  0.8013  0.8412
 9280SOL    HW230473   3.984   9.533   5.187 -0.1297  1.3669 -2.9598
 9281SOL     OW30474   1.607   6.313   4.929  0.0228 -0.2947  0.2594
 9281SOL    HW130475   1.690   6.271   4.949 -0.0152  0.4224  2.1530
 9281SOL    HW230476   1.591   6.371   5.004 -0.7817  1.7366 -1.3824
 9282SOL     OW30477   2.279   4.878   5.530  0.3103 -0.7240 -0.1082
 9282SOL    HW130478   2.243   4.965   5.515  1.5265 -0.3215 -0.8286
 9282SOL    HW230479   2.290   4.873   5.625 -1.1769 -0.7012  0.0955
 9283SOL     OW30480   9.199   6.112   2.321 -0.2278 -0.2857 -0.0782
 9283SOL    HW130481   9.164   6.172   2.256  0.7872  0.7622  0.3141
 9283SOL    HW230482   9.261   6.058   2.273 -0.0622 -0.0373 -0.1442
 9284SOL     OW30483   7.828  10.307   1.861 -0.3413 -0.0486 -0.0913
 9284SOL    HW130484   7.904  10.354   1.897 -1.5232  1.6671  0.2869
 9284SOL    HW230485   7.781  10.373   1.810 -3.0946 -0.2275  1.9939
 9285SOL     OW30486   3.347   3.469   1.634  0.2596  0.0927  0.8477
 9285SOL    HW130487   3.404   3.488   1.560  0.3344 -1.9572  0.3157
 9285SOL    HW230488   3.376   3.529   1.703 -0.3727  2.6518 -0.9784
 9286SOL     OW30489   4.540   9.427   2.918  0.3684 -0.3428  0.3611
 9286SOL    HW130490   4.471   9.369   2.951 -1.2015  1.0276 -0.4009
 9286SOL    HW230491   4.553   9.491   2.988 -1.3152  1.1765 -0.6325
 9287SOL     OW30492   8.017   0.747   1.342 -0.3354 -0.6601  0.5456
 9287SOL    HW130493   8.091   0.713   1.292 -0.3287 -0.6571  0.5537
 9287SOL    HW230494   7.960   0.787   1.277 -0.9021 -1.6845  0.3964
 9288SOL     OW30495   8.541   9.983   4.220 -0.1839  0.0489 -0.0598
 9288SOL    HW130496   8.603   9.924   4.177 -1.1226  0.7225 -2.5186
 9288SOL    HW230497   8.590  10.021   4.293  1.9093 -0.3210 -1.2080
 9289SOL     OW30498   6.020   7.834   5.136 -0.4402 -0.4707 -0.1064
 9289SOL    HW130499   5.926   7.822   5.152 -0.8605  2.1407 -0.1252
 9289SOL    HW230500   6.058   7.843   5.223 -0.4922 -0.0153 -0.1235
 9290SOL     OW30501   4.396   6.852   3.109 -0.0316  0.5138  0.1609
 9290SOL    HW130502   4.331   6.812   3.053 -2.6057  2.7393  1.3498
 9290SOL    HW230503   4.466   6.881   3.049 -0.5102 -1.1375 -1.2561
 9291SOL     OW30504   0.641   5.739   5.661 -0.2367  0.4161  0.5469
 9291SOL    HW130505   0.689   5.771   5.738  0.6465  1.1607 -0.2755
 9291SOL    HW230506   0.698   5.672   5.624 -0.3089  0.5945  0.1151
 9292SOL     OW30507   5.756   1.410   4.192 -0.5227 -0.5085  0.2098
 9292SOL    HW130508   5.806   1.466   4.251  0.9299  0.2453 -1.6193
 9292SOL    HW230509   5.717   1.471   4.129 -2.4838 -1.2281  0.6686
 9293SOL     OW30510   7.933   6.727  10.055 -0.7317  0.0622  0.2680
 9293SOL    HW130511   7.870   6.692   9.991 -0.6850 -0.9602  0.7688
 9293SOL    HW230512   7.931   6.822  10.040 -1.3234 -0.0819 -0.6989
 9294SOL     OW30513   2.813   3.559   0.380 -0.1387 -0.6881 -0.5816
 9294SOL    HW130514   2.740   3.621   0.385  0.1848 -0.3808  1.0520
 9294SOL    HW230515   2.860   3.571   0.463  0.7191 -2.1771 -0.8171
 9295SOL     OW30516   2.501   1.913   9.266 -0.1991  0.1931 -0.6954
 9295SOL    HW130517   2.448   1.898   9.189  0.0990  2.8965 -1.5194
 9295SOL    HW230518   2.560   1.985   9.242  1.7106 -0.6089  1.1982
 9296SOL     OW30519   3.727   0.101   3.033  0.4610 -0.4250  0.0361
 9296SOL    HW130520   3.758   0.177   3.084  0.4320 -1.2688  1.3604
 9296SOL    HW230521   3.798   0.037   3.040  0.3346 -0.6655 -0.7758
 9297SOL     OW30522  10.248   6.661   1.998 -0.0421 -0.4121  0.1595
 9297SOL    HW130523  10.256   6.567   2.012 -1.4196 -0.3760  1.4770
 9297SOL    HW230524  10.154   6.678   1.997  0.0639  0.6200 -2.8544
 9298SOL     OW30525   3.833   5.896   0.538 -0.0584  0.6528 -0.5212
 9298SOL    HW130526   3.875   5.924   0.457  0.4560 -0.8005 -0.7886
 9298SOL    HW230527   3.890   5.929   0.608 -1.5552  3.6923 -0.5782
 9299SOL     OW30528   3.367   4.738   5.271  0.7466 -0.4923  0.1811
 9299SOL    HW130529   3.427   4.710   5.340  0.0382  0.8194  1.3639
 9299SOL    HW230530   3.385   4.831   5.259 -0.9895 -0.0703  0.5339
 9300SOL     OW30531   8.411   4.852   5.214  0.2147 -0.1042  0.0917
 9300SOL    HW130532   8.410   4.777   5.275 -0.7965 -0.3525 -0.2222
 9300SOL    HW230533   8.326   4.894   5.226  0.0076 -0.1511 -1.1490
 9301SOL     OW30534   2.190   4.820   5.804 -0.0040  0.1015 -0.4813
 9301SOL    HW130535   2.111   4.869   5.780 -1.0693 -0.9283  0.7681
 9301SOL    HW230536   2.234   4.875   5.868 -1.0746 -0.4260  0.7434
 9302SOL     OW30537   1.882   5.214   7.370  0.0505  0.5700  0.1292
 9302SOL    HW130538   1.829   5.292   7.385 -0.1496  0.3598  0.5370
 9302SOL    HW230539   1.953   5.244   7.313 -0.9011  0.6909 -1.0372
 9303SOL     OW30540   4.323   0.716   1.980  0.0481 -0.1011 -0.5620
 9303SOL    HW130541   4.364   0.707   1.894  1.4354  0.0929  0.0413
 9303SOL    HW230542   4.237   0.752   1.963  0.6243  0.7241 -1.8180
 9304SOL     OW30543   7.933   7.882   9.895  0.6691 -0.1580 -0.6581
 9304SOL    HW130544   7.993   7.935   9.948  0.7239 -0.0358 -0.8431
 9304SOL    HW230545   7.882   7.945   9.845  0.7006 -0.2775 -0.8423
 9305SOL     OW30546  10.196   9.685   6.038 -0.0841  0.3221  0.1333
 9305SOL    HW130547  10.277   9.647   6.003 -0.9398 -0.2183 -1.3156
 9305SOL    HW230548  10.223   9.771   6.071  1.0019  0.3359 -0.7202
 9306SOL     OW30549   9.267   0.550   1.594  0.4216  0.5688  0.2705
 9306SOL    HW130550   9.290   0.615   1.661  1.0155 -0.6017  1.2392
 9306SOL    HW230551   9.349   0.504   1.576 -0.3836 -1.4003  1.2732
 9307SOL     OW30552   0.194   3.177   6.574 -0.1958  0.0015 -0.2460
 9307SOL    HW130553   0.223   3.268   6.573  3.3736 -1.0005 -1.3097
 9307SOL    HW230554   0.257   3.131   6.518 -1.8030 -3.1506  0.3356
 9308SOL     OW30555  10.238   0.894   1.169 -0.4105  0.3468  0.0761
 9308SOL    HW130556  10.309   0.950   1.201  1.0431  0.3733 -2.8259
 9308SOL    HW230557  10.234   0.912   1.075 -0.3922 -3.7915 -0.9098
 9309SOL     OW30558   6.244   8.027   8.343  0.4166  0.1839  0.0673
 9309SOL    HW130559   6.339   8.018   8.343  0.3883 -0.1684 -0.0540
 9309SOL    HW230560   6.215   7.970   8.271  0.0508 -0.4606  0.7150
 9310SOL     OW30561   4.733   8.695   5.832 -0.0963  0.5408  1.0430
 9310SOL    HW130562   4.670   8.756   5.871  0.2413  1.5191  0.0992
 9310SOL    HW230563   4.797   8.751   5.789  0.7884 -0.4706  0.9978
 9311SOL     OW30564   1.554   1.661   8.605 -0.6268  0.0177  0.0918
 9311SOL    HW130565   1.466   1.658   8.643 -0.7443 -1.3725 -0.2395
 9311SOL    HW230566   1.611   1.682   8.679 -1.1358 -0.1123  0.5300
 9312SOL     OW30567  10.328   0.316   6.601 -0.1399  0.4649 -0.0499
 9312SOL    HW130568  10.303   0.374   6.673 -2.6661  0.4895 -0.8761
 9312SOL    HW230569  10.330   0.372   6.524 -0.1473 -0.0712 -0.4460
 9313SOL     OW30570   7.340   6.579   4.757 -0.2024  0.0520  0.3675
 9313SOL    HW130571   7.378   6.515   4.817  0.5853 -1.4469 -1.6247
 9313SOL    HW230572   7.406   6.648   4.751  0.5284 -0.6679 -0.1182
 9314SOL     OW30573   5.417   0.243   9.668 -0.1217 -0.4255 -0.1986
 9314SOL    HW130574   5.423   0.321   9.613 -0.2206  0.2580  0.7306
 9314SOL    HW230575   5.501   0.199   9.657  0.9863  1.2089  1.2684
 9315SOL     OW30576   4.421   7.418   0.510 -0.1827  0.1511 -0.6851
 9315SOL    HW130577   4.448   7.334   0.473  0.3628  0.6430 -1.4220
 9315SOL    HW230578   4.472   7.427   0.590  0.0495 -0.0378 -0.8105
 9316SOL     OW30579   4.710   4.532   5.159  0.1694 -0.3356  0.0533
 9316SOL    HW130580   4.767   4.604   5.186 -0.1638 -0.3452  0.8162
 9316SOL    HW230581   4.714   4.469   5.232 -1.2509 -0.0710  0.3974
 9317SOL     OW30582   4.752  10.333   2.910  0.1195 -0.7584  0.4147
 9317SOL    HW130583   4.720  10.370   2.828 -1.7176 -1.2286  0.8849
 9317SOL    HW230584   4.677  10.288   2.948  0.6897  0.0481  2.7144
 9318SOL     OW30585   3.706   7.893   4.250  0.0522 -0.3770  0.3679
 9318SOL    HW130586   3.626   7.855   4.285 -0.4294  0.4485  0.1919
 9318SOL    HW230587   3.728   7.839   4.175  0.2708 -1.2640  1.0569
 9319SOL     OW30588   9.472   4.496   6.448  0.2504  0.3063  0.3342
 9319SOL    HW130589   9.548   4.515   6.503  0.6563  1.2741 -0.5372
 9319SOL    HW230590   9.498   4.522   6.360 -0.8066 -0.1114 -0.1195
 9320SOL     OW30591   6.917   6.655   0.789 -0.1840 -0.0585  0.0998
 9320SOL    HW130592   6.854   6.583   0.797 -1.7602  1.3491  1.1248
 9320SOL    HW230593   6.969   6.633   0.712 -1.1095 -1.9116 -0.0498
 9321SOL     OW30594   9.616   3.199   1.872  0.2355  0.0267 -0.1737
 9321SOL    HW130595   9.556   3.256   1.920 -0.8782  0.2063 -1.6967
 9321SOL    HW230596   9.558   3.137   1.827  1.2036  0.0839 -1.5272
 9322SOL     OW30597   3.210   0.266   7.649  0.0463  0.7282 -0.2754
 9322SOL    HW130598   3.206   0.187   7.596  0.1842  1.3586 -1.2530
 9322SOL    HW230599   3.294   0.261   7.695 -0.9870 -0.8585  1.6097
 9323SOL     OW30600   3.238   0.591   5.892  0.0535 -0.3799 -0.4534
 9323SOL    HW130601   3.238   0.496   5.907  1.1926 -0.2161  0.7812
 9323SOL    HW230602   3.312   0.623   5.944 -0.2144  1.1691 -0.9901
 9324SOL     OW30603   6.508   8.993   6.195  0.2931  0.5304  0.1780
 9324SOL    HW130604   6.527   9.058   6.127 -0.5854  0.5686 -0.0526
 9324SOL    HW230605   6.414   9.004   6.213 -0.0536 -1.1524 -0.4009
 9325SOL     OW30606   2.431   8.965  10.005 -0.6146 -0.2591  0.1601
 9325SOL    HW130607   2.337   8.952  10.019 -0.6583  0.1164  0.2246
 9325SOL    HW230608   2.469   8.961  10.092 -0.6952  0.5431  0.2444
 9326SOL     OW30609   7.311   4.092   4.257  0.0915  0.0562  0.1754
 9326SOL    HW130610   7.349   4.126   4.338 -0.9727 -2.4246  1.8567
 9326SOL    HW230611   7.216   4.104   4.269 -0.1514 -1.3498 -0.1570
 9327SOL     OW30612   9.001   1.622   8.413 -0.1212 -0.3514 -0.8145
 9327SOL    HW130613   9.007   1.528   8.399  1.6507 -0.4265  0.2078
 9327SOL    HW230614   9.047   1.661   8.339  2.2837 -0.4734  0.5127
 9328SOL     OW30615   6.475   0.533   5.457 -0.1061 -0.0131  0.0860
 9328SOL    HW130616   6.466   0.614   5.408 -2.4343 -0.0398  0.3589
 9328SOL    HW230617   6.524   0.558   5.535  0.1835  0.8814 -0.3720
 9329SOL     OW30618   7.018   1.513   3.592 -0.3207  0.2215  0.1562
 9329SOL    HW130619   7.033   1.595   3.639 -0.3746  0.9140 -0.9933
 9329SOL    HW230620   6.981   1.540   3.508  2.8878 -0.6676 -1.7075
 9330SOL     OW30621   5.250   1.312   2.982  0.7966 -0.3254  0.2118
 9330SOL    HW130622   5.163   1.353   2.986  1.7160  1.6338  1.3492
 9330SOL    HW230623   5.311   1.384   2.998  2.5407 -2.0506  1.7948
 9331SOL     OW30624   9.527   2.824  10.101  0.4766  0.5571  0.1721
 9331SOL    HW130625   9.488   2.872  10.174 -0.5794  1.0491 -0.6982
 9331SOL    HW230626   9.554   2.891  10.039 -1.1765  0.0999 -1.1356
 9332SOL     OW30627   5.038  10.172  10.337  0.2512  0.5911  0.1910
 9332SOL    HW130628   5.059  10.242  10.399  0.4871  0.4523  0.2704
 9332SOL    HW230629   4.988  10.109  10.389 -0.5249  1.0074 -0.0449
 9333SOL     OW30630   8.872   2.830   5.069  0.2012 -0.2204  0.2493
 9333SOL    HW130631   8.897   2.744   5.103 -1.3148 -0.3102  1.2119
 9333SOL    HW230632   8.783   2.844   5.100 -0.6797  0.4493 -2.3005
 9334SOL     OW30633   1.763   6.257   3.085  0.5924 -0.5460 -0.4358
 9334SOL    HW130634   1.711   6.234   3.008 -0.8625  0.4328  0.2080
 9334SOL    HW230635   1.708   6.233   3.159  0.9697  0.6987  0.2804
 9335SOL     OW30636   1.735   4.195   4.178 -0.1247  0.1522  0.0721
 9335SOL    HW130637   1.776   4.162   4.097 -0.7506  0.1607 -0.2549
 9335SOL    HW230638   1.726   4.289   4.164  0.1297  0.2153  0.3202
 9336SOL     OW30639   5.790   0.477   2.686 -0.0557 -0.0828  0.0356
 9336SOL    HW130640   5.868   0.436   2.649 -0.5595 -0.6720 -0.4075
 9336SOL    HW230641   5.723   0.408   2.680 -0.5469  0.3433  0.6032
 9337SOL     OW30642   4.370   8.979   7.160 -0.1723  0.1243 -0.4555
 9337SOL    HW130643   4.454   8.933   7.155  1.2141  2.5054 -5.0654
 9337SOL    HW230644   4.305   8.912   7.139  0.7679 -1.2682  0.8456
 9338SOL     OW30645   0.224   3.130  10.346 -0.0781  0.0145  0.5035
 9338SOL    HW130646   0.276   3.128  10.427 -0.1877  1.0781  0.6096
 9338SOL    HW230647   0.146   3.181  10.369 -0.4669 -0.3119 -0.0716
 9339SOL     OW30648   3.578   2.956   8.503  0.4611 -0.5937 -0.6579
 9339SOL    HW130649   3.632   2.910   8.566  0.3906 -1.1509 -0.9969
 9339SOL    HW230650   3.588   2.906   8.422 -0.3415 -0.5498 -0.7918
 9340SOL     OW30651   9.436   4.433   3.158 -0.0813 -0.3844  0.0173
 9340SOL    HW130652   9.501   4.429   3.228 -0.1343 -1.6688  0.0229
 9340SOL    HW230653   9.477   4.487   3.090  1.6619 -2.3388 -0.6125
 9341SOL     OW30654   5.764   7.313   0.552  0.1480 -0.2462  0.5607
 9341SOL    HW130655   5.688   7.369   0.536 -0.0267 -0.3180  1.1218
 9341SOL    HW230656   5.745   7.232   0.505 -0.4618 -0.5400  1.2935
 9342SOL     OW30657   7.847   0.578   7.508 -0.3605  0.0842  0.8715
 9342SOL    HW130658   7.785   0.592   7.437 -0.9086  1.5240  1.6060
 9342SOL    HW230659   7.809   0.507   7.559 -0.0570 -0.8357 -0.1385
 9343SOL     OW30660   8.738   2.094   4.091  0.9156  1.0951 -0.0331
 9343SOL    HW130661   8.648   2.066   4.079  1.1570  0.3608 -0.1309
 9343SOL    HW230662   8.772   2.106   4.003  0.6645  2.2152  0.0036
 9344SOL     OW30663   4.571   8.245   1.215  0.0267  0.4082 -0.1863
 9344SOL    HW130664   4.553   8.262   1.122 -0.2889  1.9540  0.1226
 9344SOL    HW230665   4.665   8.231   1.219  0.4629  2.7612 -0.4743
 9345SOL     OW30666   5.807   0.442   6.153  0.9432  0.4124  0.1424
 9345SOL    HW130667   5.834   0.501   6.083  0.4358 -0.3687 -0.7353
 9345SOL    HW230668   5.784   0.361   6.108 -1.8740  0.6908  0.9025
 9346SOL     OW30669   6.681   3.318   4.406  0.4472  1.0230  0.1120
 9346SOL    HW130670   6.595   3.360   4.413  0.3095  1.1262 -1.7018
 9346SOL    HW230671   6.740   3.379   4.449 -0.2500  1.4280  0.5228
 9347SOL     OW30672   6.403   3.476   9.427  0.0949 -0.2857 -0.0668
 9347SOL    HW130673   6.427   3.386   9.452  1.4974 -0.1354 -0.8086
 9347SOL    HW230674   6.353   3.465   9.346 -1.9714 -0.5528  1.1708
 9348SOL     OW30675   9.673   8.343   7.322 -0.3769  0.3348 -0.7614
 9348SOL    HW130676   9.616   8.394   7.380  0.0089 -1.5616  1.4096
 9348SOL    HW230677   9.633   8.351   7.236 -2.6652  0.8806  0.2851
 9349SOL     OW30678   0.314   6.522   6.956 -0.4013 -0.5519 -0.5145
 9349SOL    HW130679   0.393   6.507   7.007 -0.1735 -2.2776 -1.3069
 9349SOL    HW230680   0.269   6.438   6.956 -0.3606 -0.6631 -3.1776
 9350SOL     OW30681   0.886  10.305  10.229 -0.0841  0.3101  0.5632
 9350SOL    HW130682   0.866  10.314  10.136  1.3045 -1.7951 -0.0026
 9350SOL    HW230683   0.821  10.360  10.273 -0.5810  1.6004 -1.6360
 9351SOL     OW30684   3.842   5.928   4.486  0.8648 -0.0379  0.6232
 9351SOL    HW130685   3.876   5.936   4.575  0.7750  2.0304  0.5122
 9351SOL    HW230686   3.759   5.974   4.487 -0.4144 -2.1893  0.0580
 9352SOL     OW30687  10.245   4.032   1.650 -0.0158 -0.0761 -0.1778
 9352SOL    HW130688  10.270   4.111   1.696 -0.2870 -1.3038  2.2416
 9352SOL    HW230689  10.150   4.027   1.660 -0.0272 -0.5890 -0.4913
 9353SOL     OW30690   1.322   0.774   4.291 -0.0736 -0.3847 -0.6185
 9353SOL    HW130691   1.309   0.869   4.293  2.0872 -0.0226  1.7885
 9353SOL    HW230692   1.365   0.757   4.207  0.2624  0.9125 -0.7288
 9354SOL     OW30693   2.529   7.356   2.095 -0.0885  0.9583  0.1277
 9354SOL    HW130694   2.504   7.412   2.022  1.1140  1.9683  0.4546
 9354SOL    HW230695   2.554   7.273   2.055  1.3170  1.7520 -0.7169
 9355SOL     OW30696   2.723   0.557   7.201  0.2498 -0.7997 -0.5061
 9355SOL    HW130697   2.753   0.473   7.237  1.2441  0.0364  0.6936
 9355SOL    HW230698   2.801   0.612   7.202 -0.5335  0.3392 -0.7061
 9356SOL     OW30699   6.046   3.644   0.634  0.2084  0.4748  0.1473
 9356SOL    HW130700   6.141   3.654   0.639  0.1104  1.4703  0.3798
 9356SOL    HW230701   6.028   3.620   0.543  0.6505  0.7169 -0.0052
 9357SOL     OW30702   1.966   5.206   3.928  0.3244 -0.3553  0.7244
 9357SOL    HW130703   1.899   5.210   3.860  2.3320  1.1700 -1.3244
 9357SOL    HW230704   1.917   5.214   4.010 -1.9753  1.0478 -0.6569
 9358SOL     OW30705   5.251   0.513  10.248  0.2770 -0.4493 -0.1782
 9358SOL    HW130706   5.329   0.566  10.233  1.2486 -1.4489  1.0365
 9358SOL    HW230707   5.282   0.422  10.239 -0.7544 -0.8611  0.2755
 9359SOL     OW30708   3.128   5.455   8.667  0.2580 -0.0292  0.2661
 9359SOL    HW130709   3.220   5.470   8.649  0.6358 -0.6925  1.5389
 9359SOL    HW230710   3.120   5.461   8.762 -0.9838 -0.1352  0.1917
 9360SOL     OW30711   2.635   8.005   2.752 -0.6630  0.1635  0.1419
 9360SOL    HW130712   2.582   7.944   2.803  0.5553 -0.4708  0.6915
 9360SOL    HW230713   2.717   7.958   2.736 -1.3113 -0.0512 -3.2484
 9361SOL     OW30714   4.006   9.971   2.236  0.4461 -0.1026 -0.4916
 9361SOL    HW130715   4.080   9.930   2.281 -0.5206 -2.6681 -1.0849
 9361SOL    HW230716   4.015   9.944   2.145 -0.5463  0.5677 -0.7991
 9362SOL     OW30717   5.308   2.512   6.377  0.3545 -0.5520 -0.7427
 9362SOL    HW130718   5.375   2.500   6.445  0.6995 -0.5891 -1.0820
 9362SOL    HW230719   5.237   2.454   6.403  0.5662 -0.7146 -0.5155
 9363SOL     OW30720   3.583   7.656   5.629  0.1209  0.0796 -0.9697
 9363SOL    HW130721   3.669   7.615   5.644  0.6122  1.0263 -1.1155
 9363SOL    HW230722   3.522   7.583   5.623  0.7396 -0.5778  0.2827
 9364SOL     OW30723   7.641   5.603   5.620 -0.0843 -0.4217 -0.0460
 9364SOL    HW130724   7.721   5.655   5.621  0.1097 -0.7219  0.9279
 9364SOL    HW230725   7.576   5.658   5.575  0.1462  0.6062  0.8564
 9365SOL     OW30726   2.620   0.861   6.888  0.2359 -0.1539  0.1870
 9365SOL    HW130727   2.642   0.883   6.979  0.3868  2.7516 -0.4581
 9365SOL    HW230728   2.705   0.840   6.848  0.2518 -0.7800  0.5339
 9366SOL     OW30729   1.499   5.462   0.822 -0.2127 -0.4258  0.0080
 9366SOL    HW130730   1.438   5.404   0.869  0.0234 -0.2288  0.5684
 9366SOL    HW230731   1.577   5.463   0.877 -0.0141 -0.0093 -0.2831
 9367SOL     OW30732   7.876   5.582   9.081  0.5114  0.2223 -0.1771
 9367SOL    HW130733   7.847   5.550   8.996 -0.0500 -1.0622  0.4774
 9367SOL    HW230734   7.829   5.665   9.093  1.2235  0.8362 -1.4563
 9368SOL     OW30735   4.283   9.756   0.745  0.2133 -0.1444 -0.4017
 9368SOL    HW130736   4.311   9.675   0.787 -1.1729 -0.4872 -0.0698
 9368SOL    HW230737   4.264   9.730   0.655  0.8120  0.0490 -0.5837
 9369SOL     OW30738   8.134   7.981   4.674  0.7942 -0.0464 -0.1642
 9369SOL    HW130739   8.204   7.982   4.740  0.5610  0.2816  0.0846
 9369SOL    HW230740   8.080   8.057   4.696  1.3491  0.7378 -1.4327
 9370SOL     OW30741   9.383   1.980   3.045  0.2682  0.0860  0.1409
 9370SOL    HW130742   9.356   1.895   3.078  0.5185  0.3018  0.9054
 9370SOL    HW230743   9.436   2.018   3.115 -0.5745  1.2433  0.1740
 9371SOL     OW30744   6.162   4.428   9.961 -0.3504 -0.3023  0.3602
 9371SOL    HW130745   6.257   4.433   9.957 -0.3097 -0.2186  1.2418
 9371SOL    HW230746   6.141   4.443  10.054 -1.2237 -0.1915  0.1532
 9372SOL     OW30747   4.559   8.487  10.229 -0.0454  0.3878  0.2545
 9372SOL    HW130748   4.632   8.450  10.278  0.0036 -0.2443 -0.2804
 9372SOL    HW230749   4.584   8.478  10.137 -1.3753 -1.1292 -0.0092
 9373SOL     OW30750   0.209   4.244   4.424 -0.1206 -0.5693  0.2925
 9373SOL    HW130751   0.149   4.317   4.439  2.3050  1.4136  0.8312
 9373SOL    HW230752   0.238   4.255   4.333  2.2294  0.7533  1.1497
 9374SOL     OW30753   9.349   5.012   2.826 -0.5911  0.5410 -0.4173
 9374SOL    HW130754   9.333   4.991   2.734 -1.9909 -0.7690  0.1032
 9374SOL    HW230755   9.274   5.065   2.852 -1.1192 -0.5844  0.4307
 9375SOL     OW30756   8.042  10.145   8.107  0.0852 -0.1456 -0.5703
 9375SOL    HW130757   8.071  10.054   8.098 -2.2255 -1.3677  2.5584
 9375SOL    HW230758   7.970  10.153   8.043  0.1998 -0.5691 -0.7547
 9376SOL     OW30759   5.981   3.237   3.357 -0.0079 -0.3340 -0.0355
 9376SOL    HW130760   5.999   3.261   3.266 -0.3770  0.3308  0.0558
 9376SOL    HW230761   6.028   3.155   3.370  1.5020  0.4366 -0.3246
 9377SOL     OW30762   7.419   7.224   5.177  0.8621  0.5268 -0.1513
 9377SOL    HW130763   7.506   7.265   5.171 -0.2167  2.8099 -1.4250
 9377SOL    HW230764   7.381   7.236   5.090 -1.6156  1.7202  1.0038
 9378SOL     OW30765   3.964   0.248   2.472  0.2462  0.5540  0.4690
 9378SOL    HW130766   4.057   0.249   2.494  0.4440 -0.3719 -0.2554
 9378SOL    HW230767   3.929   0.173   2.522  0.8041 -1.9241 -2.5627
 9379SOL     OW30768   0.858   9.585   0.950  0.1756  0.0849 -0.2500
 9379SOL    HW130769   0.952   9.571   0.961  0.2567  1.0119  0.4056
 9379SOL    HW230770   0.848   9.680   0.953 -0.8788 -0.0325  0.6791
 9380SOL     OW30771   1.867   3.050   1.160  0.0263  0.0367  0.8859
 9380SOL    HW130772   1.900   3.097   1.237  0.4241 -0.4770  1.0326
 9380SOL    HW230773   1.946   3.021   1.114 -0.2013 -1.5361  1.4441
 9381SOL     OW30774   5.853   6.008   8.010 -0.2492 -0.1537 -0.2115
 9381SOL    HW130775   5.928   5.952   8.031  0.6734  1.0866 -0.1142
 9381SOL    HW230776   5.780   5.967   8.057  0.6524 -0.5732  0.8841
 9382SOL     OW30777   5.673   9.571   6.918  0.0508  0.6304 -0.1624
 9382SOL    HW130778   5.716   9.490   6.945 -2.0078 -0.3226  0.4577
 9382SOL    HW230779   5.612   9.590   6.989  0.0394  2.3782 -0.6086
 9383SOL     OW30780   1.732   1.638   3.389  0.0389  0.3011 -0.4548
 9383SOL    HW130781   1.802   1.626   3.324 -0.6752 -0.7221 -1.0676
 9383SOL    HW230782   1.725   1.733   3.398  1.6117  0.4285 -0.2465
 9384SOL     OW30783   0.549   9.551   2.914 -0.6504  0.5462  0.9856
 9384SOL    HW130784   0.535   9.512   3.000 -1.0107  0.3695  0.8498
 9384SOL    HW230785   0.643   9.540   2.898 -0.6083  0.4475  1.2905
 9385SOL     OW30786   7.272   7.116   1.471 -0.2393  0.0548 -0.1823
 9385SOL    HW130787   7.209   7.169   1.423  0.5209  2.3654  1.2242
 9385SOL    HW230788   7.240   7.026   1.460 -2.3778  0.8857 -1.4997
 9386SOL     OW30789   0.061   6.887   4.035 -0.4233  0.0871  0.3440
 9386SOL    HW130790   0.067   6.977   4.003 -0.8506 -0.1431 -0.4195
 9386SOL    HW230791  -0.006   6.847   3.979  0.3924 -0.9442  0.0864
 9387SOL     OW30792   5.200   7.144   7.040 -0.0285 -0.0103  0.4815
 9387SOL    HW130793   5.125   7.139   7.100  0.7351  0.0702  1.4626
 9387SOL    HW230794   5.249   7.063   7.054 -0.7989 -0.8731 -1.3916
 9388SOL     OW30795   7.591   6.015   3.150 -0.4786 -0.9263 -0.1896
 9388SOL    HW130796   7.547   6.013   3.065  1.0936 -1.1565 -1.0319
 9388SOL    HW230797   7.605   5.923   3.172 -0.9041 -0.8673  0.3321
 9389SOL     OW30798   0.714   9.094   6.522  0.3147 -0.0578 -0.1105
 9389SOL    HW130799   0.745   9.004   6.537  1.7338  0.6950  2.0178
 9389SOL    HW230800   0.794   9.145   6.513 -0.3449  1.4130  1.7347
 9390SOL     OW30801   3.764   0.451   3.056 -0.4558 -0.1875  0.3347
 9390SOL    HW130802   3.755   0.417   2.967 -0.8952  0.8728 -0.0507
 9390SOL    HW230803   3.833   0.397   3.096  1.4556  0.7956 -1.4120
 9391SOL     OW30804   3.284   6.633   6.540  0.1096 -0.0407  0.2966
 9391SOL    HW130805   3.246   6.680   6.614 -1.2106 -0.6791  0.0604
 9391SOL    HW230806   3.209   6.598   6.492  0.9225  0.4814 -1.4494
 9392SOL     OW30807   3.817   0.181   9.367 -0.2997 -0.1252  0.3887
 9392SOL    HW130808   3.780   0.120   9.304 -0.1270 -1.3331  1.4099
 9392SOL    HW230809   3.853   0.252   9.314 -0.7154 -0.7851 -0.8181
 9393SOL     OW30810   1.004   9.362   6.788 -0.7267 -0.6395  0.2040
 9393SOL    HW130811   0.945   9.397   6.854 -0.3840  0.7284 -0.1900
 9393SOL    HW230812   1.053   9.438   6.757 -0.1844 -1.4221 -0.9143
 9394SOL     OW30813   8.153   6.513   6.497  0.1604 -0.6108  0.5337
 9394SOL    HW130814   8.154   6.607   6.514  0.7922 -0.5728  0.3014
 9394SOL    HW230815   8.097   6.503   6.420  0.5808 -0.3579  0.1938
 9395SOL     OW30816   6.825   7.539  10.202  0.8013  0.3429  0.2032
 9395SOL    HW130817   6.876   7.500  10.273 -0.2939 -0.0773  0.7935
 9395SOL    HW230818   6.775   7.466  10.166  0.4244  0.7862 -0.1766
 9396SOL     OW30819   8.573   5.622   7.842  0.4965  0.0032 -0.3768
 9396SOL    HW130820   8.623   5.571   7.906  0.2446 -0.7452 -0.7638
 9396SOL    HW230821   8.540   5.697   7.892  3.5765  1.6075 -0.5378
 9397SOL     OW30822   5.400   5.158   9.711  0.4060 -0.3361  0.5005
 9397SOL    HW130823   5.463   5.086   9.703 -0.6610 -1.5992  2.6640
 9397SOL    HW230824   5.389   5.171   9.805 -3.4260 -1.0209  0.3205
 9398SOL     OW30825   1.753   3.901   2.713  0.5080  0.2018 -0.2343
 9398SOL    HW130826   1.729   3.921   2.804 -0.1949  1.2315 -0.6233
 9398SOL    HW230827   1.785   3.984   2.678 -0.8835  0.2709 -1.4199
 9399SOL     OW30828   9.051   1.446   6.747 -0.1229  0.3488 -0.0971
 9399SOL    HW130829   9.041   1.515   6.813 -1.0658 -0.0899  0.2429
 9399SOL    HW230830   8.969   1.448   6.698 -0.2417 -0.6414  0.0369
 9400SOL     OW30831   3.265   3.165   5.993 -0.1304  0.0283  0.6572
 9400SOL    HW130832   3.276   3.240   5.934 -0.6335 -1.0234 -0.8299
 9400SOL    HW230833   3.186   3.185   6.042 -1.5687 -0.4914 -1.3301
 9401SOL     OW30834   4.593   9.824   6.648 -0.0908  0.0121  0.1932
 9401SOL    HW130835   4.542   9.755   6.604  1.0819 -0.0768 -1.0776
 9401SOL    HW230836   4.552   9.905   6.619  0.1017 -0.0749 -0.3320
 9402SOL     OW30837   1.812   8.256   3.013  0.0152  0.0749  0.3206
 9402SOL    HW130838   1.795   8.219   2.927 -0.4649  1.9508 -0.4457
 9402SOL    HW230839   1.899   8.296   3.005  0.7148 -1.1845  1.2572
 9403SOL     OW30840   8.291   3.203   2.406  0.1343  0.3381  0.0447
 9403SOL    HW130841   8.343   3.137   2.452  0.8342  1.6368  1.1972
 9403SOL    HW230842   8.322   3.198   2.315  0.5255 -0.5592  0.2091
 9404SOL     OW30843   4.378   1.331   7.070  0.1666 -0.0710 -0.3556
 9404SOL    HW130844   4.312   1.289   7.015  0.0652  0.3187 -0.5432
 9404SOL    HW230845   4.433   1.378   7.007 -0.0733  0.5484 -0.1114
 9405SOL     OW30846   8.743   3.598   9.320 -0.2046 -0.3237 -0.0035
 9405SOL    HW130847   8.784   3.528   9.270  1.1663 -0.5919  1.4118
 9405SOL    HW230848   8.650   3.577   9.318  0.1474 -2.0839  0.1954
 9406SOL     OW30849   5.413   7.648   1.335 -0.4711  0.3569  0.0662
 9406SOL    HW130850   5.422   7.598   1.254  0.0643  1.6184 -0.6731
 9406SOL    HW230851   5.463   7.599   1.400 -0.0942 -0.1449 -0.6001
 9407SOL     OW30852   1.980   9.096   0.925  0.0521  0.2717 -0.4926
 9407SOL    HW130853   1.906   9.036   0.916  0.0788  0.1651 -0.0335
 9407SOL    HW230854   2.049   9.057   0.872 -0.9087  1.5520 -2.8261
 9408SOL     OW30855   5.355   3.541   5.120  0.1490  0.2330 -0.3047
 9408SOL    HW130856   5.378   3.449   5.127  1.6022  0.5864 -0.2711
 9408SOL    HW230857   5.412   3.585   5.183 -0.7134  1.1409 -0.1304
 9409SOL     OW30858   0.349   0.369   6.186 -0.3907  0.0631  0.0347
 9409SOL    HW130859   0.294   0.297   6.217 -0.9110 -0.0823 -1.1953
 9409SOL    HW230860   0.329   0.377   6.093  0.0460  1.4578  0.0338
 9410SOL     OW30861   7.113   3.896   9.289  0.3813  0.0951  0.2650
 9410SOL    HW130862   7.195   3.847   9.293  0.6499  0.5729  0.7308
 9410SOL    HW230863   7.139   3.984   9.262 -0.2066 -0.2506 -1.5741
 9411SOL     OW30864   4.345   0.705   6.736 -0.2745  0.1475 -0.0096
 9411SOL    HW130865   4.253   0.727   6.720 -0.4042 -0.4135 -0.0537
 9411SOL    HW230866   4.394   0.773   6.689 -0.6643  0.4075 -0.0463
 9412SOL     OW30867   5.741   4.682   7.002  0.2618  0.3340 -0.1643
 9412SOL    HW130868   5.698   4.714   7.081 -0.5416 -0.1080 -0.4181
 9412SOL    HW230869   5.676   4.693   6.932  1.1712  1.2832 -0.8902
 9413SOL     OW30870   4.282  10.029   6.976  0.0659 -0.2362 -0.0549
 9413SOL    HW130871   4.282  10.098   7.042  0.7139  0.1443 -0.4336
 9413SOL    HW230872   4.354   9.972   7.002 -0.2225 -0.5535  0.0429
 9414SOL     OW30873  10.220   8.405   5.050 -0.0905 -0.7284  0.0101
 9414SOL    HW130874  10.158   8.464   5.007 -1.2104 -2.1112 -0.3361
 9414SOL    HW230875  10.172   8.372   5.127 -0.1689 -2.5054 -0.7461
 9415SOL     OW30876   8.434   0.337   7.933 -0.7273 -0.4875  0.1067
 9415SOL    HW130877   8.438   0.337   7.837 -1.2864 -1.4783  0.0623
 9415SOL    HW230878   8.495   0.269   7.959  2.2379  2.1995  0.6824
 9416SOL     OW30879   5.254   1.424   5.217 -0.0160  0.2366 -0.1624
 9416SOL    HW130880   5.249   1.381   5.132  0.6089  0.3116 -0.2414
 9416SOL    HW230881   5.320   1.492   5.205 -0.9926  1.2320 -0.0432
 9417SOL     OW30882   9.223   7.451   9.608 -0.4797 -0.2853 -0.1554
 9417SOL    HW130883   9.227   7.524   9.670  1.2681 -0.7160  0.2953
 9417SOL    HW230884   9.245   7.374   9.661  2.3506 -0.5018 -1.4824
 9418SOL     OW30885   4.415   6.892   2.341  0.0571  0.3839 -0.4169
 9418SOL    HW130886   4.322   6.913   2.338 -0.3793 -1.1548  0.8459
 9418SOL    HW230887   4.442   6.910   2.431  0.6771 -0.2758 -0.4509
 9419SOL     OW30888   3.308   9.495   3.663  0.4918 -0.9892  0.0189
 9419SOL    HW130889   3.397   9.490   3.697  0.3441  1.5091  0.9791
 9419SOL    HW230890   3.319   9.508   3.569  1.2475  0.8417  0.3242
 9420SOL     OW30891   4.450   0.924   0.217  0.4280 -0.4101  0.1981
 9420SOL    HW130892   4.489   0.859   0.159  0.6905  0.0077 -0.1013
 9420SOL    HW230893   4.509   0.999   0.213  0.1348 -0.1521  0.5447
 9421SOL     OW30894   2.076   0.436   9.034  0.0928 -0.1529 -0.3625
 9421SOL    HW130895   2.093   0.372   8.965  0.0035  0.6313 -1.1305
 9421SOL    HW230896   1.988   0.467   9.017  0.3383  0.5799 -0.3433
 9422SOL     OW30897   5.046   5.879   0.498  0.3802 -0.3891  0.4216
 9422SOL    HW130898   4.964   5.889   0.449  0.1847  1.8201  1.0758
 9422SOL    HW230899   5.035   5.796   0.546 -0.8118 -0.8949 -0.6632
 9423SOL     OW30900   4.112   2.635   2.301  0.0506  0.5289  0.0998
 9423SOL    HW130901   4.179   2.583   2.345 -1.4024 -1.9662 -0.4010
 9423SOL    HW230902   4.092   2.586   2.221 -2.4077  1.0708  0.2850
 9424SOL     OW30903   2.501   6.470   8.275  0.0523  0.1871  1.0319
 9424SOL    HW130904   2.423   6.448   8.325 -0.0006  0.6900  1.1697
 9424SOL    HW230905   2.560   6.510   8.339  0.7759 -0.9662  1.1318
 9425SOL     OW30906   9.619   2.994   9.934  0.2428 -0.1587 -0.1544
 9425SOL    HW130907   9.542   3.015   9.882  0.8488 -0.1961 -1.0859
 9425SOL    HW230908   9.673   2.939   9.877  0.2960 -1.3540  0.9989
 9426SOL     OW30909  10.249   6.201   7.493  0.5365 -0.0861  0.5270
 9426SOL    HW130910  10.201   6.276   7.457 -2.2782 -0.6008  2.8255
 9426SOL    HW230911  10.228   6.128   7.435 -0.2694  0.0391  0.6446
 9427SOL     OW30912   1.447   9.622   0.310 -0.5757 -0.2798  0.2768
 9427SOL    HW130913   1.486   9.606   0.397  1.0522 -0.0577 -0.3832
 9427SOL    HW230914   1.498   9.566   0.251 -0.8442  0.5217 -0.7249
 9428SOL     OW30915   8.634   9.151   9.265 -0.3990 -0.5684 -0.1244
 9428SOL    HW130916   8.712   9.116   9.222  0.7891  0.6528  0.9446
 9428SOL    HW230917   8.657   9.242   9.285 -1.4858 -0.6424  1.6503
 9429SOL     OW30918   4.524   1.545  10.245 -0.1266  0.2716  0.0774
 9429SOL    HW130919   4.451   1.492  10.275  2.9912 -4.7196 -0.1374
 9429SOL    HW230920   4.513   1.550  10.150 -0.9231  0.9734  0.1893
 9430SOL     OW30921   7.944   9.158  10.174 -1.3122  0.1586  0.2246
 9430SOL    HW130922   8.001   9.227  10.209 -1.9713  1.5552 -1.3132
 9430SOL    HW230923   7.956   9.085  10.234  0.6031  1.0752  1.0589
 9431SOL     OW30924   0.010   2.206   1.534 -0.3266  0.8196  0.2650
 9431SOL    HW130925  -0.021   2.224   1.446  1.1459  2.3199 -0.0019
 9431SOL    HW230926  -0.011   2.286   1.583  0.8429  0.9039  0.6735
 9432SOL     OW30927   8.265   9.986   3.736  0.3905 -0.0624  0.5400
 9432SOL    HW130928   8.214   9.962   3.659  1.3140  0.7496 -0.3643
 9432SOL    HW230929   8.290  10.078   3.721 -1.0297  0.7542  2.7408
 9433SOL     OW30930   5.941   7.478   0.824 -0.3323 -0.3749  0.0809
 9433SOL    HW130931   5.865   7.496   0.769  0.4839 -0.7999 -1.2305
 9433SOL    HW230932   5.959   7.561   0.869  0.2273  0.6075 -1.8805
 9434SOL     OW30933   8.279   0.340   8.576 -0.6331  0.7064 -0.1079
 9434SOL    HW130934   8.192   0.316   8.544 -0.8042  1.5150 -0.2707
 9434SOL    HW230935   8.292   0.430   8.545 -0.2781  1.0542  1.0156
 9435SOL     OW30936   1.453   8.758   4.438  0.3355 -0.2351 -0.7369
 9435SOL    HW130937   1.516   8.748   4.367  2.4140  0.0653  0.9706
 9435SOL    HW230938   1.429   8.668   4.462  2.1012 -0.4956  0.2239
 9436SOL     OW30939   9.825   5.324   1.418 -0.3674 -0.1166 -0.8024
 9436SOL    HW130940   9.739   5.296   1.448  0.1954 -0.8661  0.1510
 9436SOL    HW230941   9.813   5.416   1.393 -1.3743 -0.1410 -0.4322
 9437SOL     OW30942   2.296   4.979   4.166 -0.3454 -0.1701  0.2053
 9437SOL    HW130943   2.390   4.970   4.180 -0.6198 -1.3613  1.4785
 9437SOL    HW230944   2.264   5.019   4.246 -0.8715  0.8019 -0.4657
 9438SOL     OW30945   7.361   6.481   9.770 -0.3444 -0.2689  0.0657
 9438SOL    HW130946   7.296   6.503   9.837 -0.5082 -0.1465 -0.1278
 9438SOL    HW230947   7.321   6.409   9.721  0.3711 -1.2892  0.9548
 9439SOL     OW30948   8.816   8.157   4.385 -0.2894 -0.2981  0.3104
 9439SOL    HW130949   8.750   8.163   4.316  0.0411  0.5955  0.0664
 9439SOL    HW230950   8.847   8.247   4.397 -0.4226 -0.4173  1.7059
 9440SOL     OW30951   2.352   3.986   2.853  0.6472  0.3224  0.5264
 9440SOL    HW130952   2.397   4.018   2.931  0.4933  0.2983  0.6248
 9440SOL    HW230953   2.291   3.920   2.886  1.4139 -0.5529  0.2625
 9441SOL     OW30954   1.408   7.274   4.671  0.3025  0.4406  0.3991
 9441SOL    HW130955   1.449   7.353   4.634  0.1320 -0.3416 -1.5999
 9441SOL    HW230956   1.374   7.228   4.595 -0.6646 -0.9835  1.6514
 9442SOL     OW30957   2.642   3.585   4.674  0.1004  0.3827  0.1566
 9442SOL    HW130958   2.579   3.598   4.745 -0.9566  1.9491 -0.9979
 9442SOL    HW230959   2.587   3.558   4.600  0.7882  1.6068 -0.8256
 9443SOL     OW30960   7.696  10.190   3.361  0.1005  0.1368 -0.2034
 9443SOL    HW130961   7.729  10.206   3.272  0.8498 -0.8377 -0.1172
 9443SOL    HW230962   7.768  10.146   3.406 -0.9460 -1.1509  0.2973
 9444SOL     OW30963   7.379   3.843   2.581  0.2909  0.1800 -0.3253
 9444SOL    HW130964   7.305   3.867   2.525  1.1747  1.2795 -1.0773
 9444SOL    HW230965   7.455   3.880   2.537  1.1688  0.0099  0.9841
 9445SOL     OW30966   6.534   6.402   6.440  0.2560 -0.1031 -0.4282
 9445SOL    HW130967   6.579   6.338   6.385  0.1774 -1.1638  0.6947
 9445SOL    HW230968   6.441   6.378   6.433  0.1826  0.1675 -0.3692
 9446SOL     OW30969   9.104   8.687   7.829  0.6896  0.3034  1.2422
 9446SOL    HW130970   9.029   8.654   7.878  0.6254  1.6675  2.1080
 9446SOL    HW230971   9.095   8.782   7.832  0.6700  0.4781 -1.4421
 9447SOL     OW30972   5.270   8.878   8.868 -0.3662  0.0495 -0.1782
 9447SOL    HW130973   5.322   8.813   8.821 -0.4644 -0.9502  1.0364
 9447SOL    HW230974   5.203   8.827   8.913 -1.7481  1.2065 -0.8363
 9448SOL     OW30975   4.621   6.083   4.939 -0.2807  0.0002  0.7263
 9448SOL    HW130976   4.644   5.996   4.905 -2.2545  0.1231 -1.1660
 9448SOL    HW230977   4.700   6.135   4.930  0.8272 -1.4803  1.5509
 9449SOL     OW30978   7.926   7.394   9.391  0.1652  0.3179 -0.0891
 9449SOL    HW130979   7.924   7.298   9.385  1.6559  0.0752  2.1727
 9449SOL    HW230980   7.844   7.417   9.434  0.1187 -0.0092 -0.0014
 9450SOL     OW30981  10.128   8.929   7.921 -0.4932  0.6455 -0.1738
 9450SOL    HW130982  10.199   8.977   7.879  0.6606 -0.1930  0.7408
 9450SOL    HW230983  10.148   8.837   7.905 -1.1243  0.3837  0.4751
 9451SOL     OW30984   8.347  10.251   7.142 -0.0033 -0.1711 -0.3272
 9451SOL    HW130985   8.416  10.186   7.154 -0.1570 -0.1691  0.6660
 9451SOL    HW230986   8.351  10.274   7.049  0.1563 -1.4775 -0.6631
 9452SOL     OW30987   6.382   6.308   0.748 -0.2644 -0.3076  0.0107
 9452SOL    HW130988   6.469   6.269   0.750 -0.2410 -0.2288  0.8544
 9452SOL    HW230989   6.395   6.395   0.712 -0.0186 -0.3477  0.0003
 9453SOL     OW30990   8.589   1.385   3.528 -0.2554 -0.0377 -0.4510
 9453SOL    HW130991   8.546   1.419   3.606  0.5489 -0.1214  0.0388
 9453SOL    HW230992   8.570   1.449   3.460 -0.4891  0.3275 -0.0488
 9454SOL     OW30993   3.964   7.119   2.991 -0.6907 -0.0295  0.9541
 9454SOL    HW130994   4.044   7.168   3.011 -0.4751 -0.8639  2.2941
 9454SOL    HW230995   3.960   7.117   2.895  0.2039  1.1074  0.8703
 9455SOL     OW30996   9.013   9.956   4.527  0.3507  0.4126  0.1312
 9455SOL    HW130997   9.004   9.877   4.581 -0.1864  1.1162  1.1178
 9455SOL    HW230998   8.987  10.027   4.586 -0.5376  1.1901 -1.1566
 9456SOL     OW30999   1.987   1.618   8.697  0.5095 -0.2104 -0.4741
 9456SOL    HW131000   1.898   1.635   8.667  0.8529  0.7941 -0.9723
 9456SOL    HW231001   2.016   1.702   8.735 -0.4356 -1.6931  4.2030
 9457SOL     OW31002   6.016   1.802   5.827 -1.0136 -0.1220  0.2358
 9457SOL    HW131003   6.067   1.881   5.845  1.1636 -0.8325 -2.2593
 9457SOL    HW231004   5.941   1.834   5.777  0.1900  0.3885 -1.3370
 9458SOL     OW31005   4.946   9.767   8.159  0.5448  0.5983  0.2027
 9458SOL    HW131006   4.939   9.784   8.065  0.3302  1.0491  0.2955
 9458SOL    HW231007   5.035   9.795   8.182  0.7099  0.1837  0.0758
 9459SOL     OW31008   0.904   7.617   4.671 -0.6691  0.0912 -0.1438
 9459SOL    HW131009   0.938   7.680   4.734 -0.0583 -0.0144 -0.3599
 9459SOL    HW231010   0.852   7.669   4.610 -0.5774  0.3135 -0.0327
 9460SOL     OW31011   3.941   2.887  10.019  0.0585 -0.2830 -0.8795
 9460SOL    HW131012   3.871   2.948  10.041  0.4403  0.9949 -2.9381
 9460SOL    HW231013   3.899   2.824   9.960  0.3405 -0.2510 -1.1158
 9461SOL     OW31014   5.548   6.421   1.175  0.2256 -0.3134  0.2412
 9461SOL    HW131015   5.478   6.444   1.236 -0.0787 -2.0601  0.5970
 9461SOL    HW231016   5.613   6.491   1.186 -1.4848  1.4259 -0.2096
 9462SOL     OW31017   1.848   7.971   5.197  0.1025 -0.3454  0.2864
 9462SOL    HW131018   1.790   7.979   5.121  0.7613  1.6365 -0.0660
 9462SOL    HW231019   1.793   7.934   5.266 -0.9748 -0.5813 -0.6839
 9463SOL     OW31020   3.685   1.525   9.259  0.1560  0.3236 -0.2714
 9463SOL    HW131021   3.668   1.486   9.345  0.6163  1.0465  0.1517
 9463SOL    HW231022   3.691   1.450   9.200  3.4070 -0.4902  0.9153
 9464SOL     OW31023   8.963   2.283   7.096  0.4051  0.7062  0.1961
 9464SOL    HW131024   8.912   2.288   7.016 -1.1294  0.2354  1.1151
 9464SOL    HW231025   8.900   2.259   7.164  2.0528 -1.1528  1.1686
 9465SOL     OW31026   6.951   4.262   7.779  0.6024  0.0943 -0.1424
 9465SOL    HW131027   6.940   4.291   7.689  0.9361  0.6801  0.0008
 9465SOL    HW231028   7.017   4.193   7.774  2.0640  1.4272 -0.1310
 9466SOL     OW31029   7.029   7.010   2.954 -0.3598  0.3765 -0.8440
 9466SOL    HW131030   7.125   7.017   2.950 -0.1326 -1.0130  1.0537
 9466SOL    HW231031   7.013   6.919   2.978 -2.2010  0.4720 -1.6202
 9467SOL     OW31032   5.133   6.557   2.503 -0.2307 -1.0477  0.0570
 9467SOL    HW131033   5.199   6.488   2.515  0.9889 -0.1312 -1.0086
 9467SOL    HW231034   5.118   6.560   2.409  0.3131  0.6036 -0.0155
 9468SOL     OW31035   9.899   7.077   7.686 -0.3859 -0.8383  0.0244
 9468SOL    HW131036   9.808   7.060   7.664 -0.5136 -1.1967  0.7725
 9468SOL    HW231037   9.894   7.132   7.765  0.0200 -2.0144  0.9061
 9469SOL     OW31038   9.678   5.861   4.412 -0.0483  0.1441  0.1209
 9469SOL    HW131039   9.710   5.774   4.387  0.3163  0.6493 -1.2235
 9469SOL    HW231040   9.609   5.843   4.476 -0.4373 -1.1736 -0.6289
 9470SOL     OW31041   1.463   8.302   2.802  0.6972  0.2081 -0.0461
 9470SOL    HW131042   1.539   8.358   2.815  1.8530 -0.7740 -2.0956
 9470SOL    HW231043   1.485   8.249   2.725 -1.7847 -0.5805 -0.2995
 9471SOL     OW31044   7.294   3.535   7.709  0.1882 -0.2853  0.4734
 9471SOL    HW131045   7.238   3.576   7.774  0.3421 -0.5257  0.7610
 9471SOL    HW231046   7.267   3.574   7.625  0.9822  1.1316  0.8481
 9472SOL     OW31047   2.725   5.275   1.124 -0.2180  0.0361 -0.0567
 9472SOL    HW131048   2.781   5.204   1.095  0.4059  0.4668  0.0739
 9472SOL    HW231049   2.757   5.297   1.212 -0.6041  0.2710  0.0303
 9473SOL     OW31050   7.275   0.505   5.591 -0.0236 -0.5270  0.3709
 9473SOL    HW131051   7.295   0.418   5.556  1.5820 -0.6366  1.4513
 9473SOL    HW231052   7.319   0.507   5.676 -0.9445  0.9592  0.8431
 9474SOL     OW31053   5.586   6.158   3.645  0.0113  0.5095 -0.3479
 9474SOL    HW131054   5.663   6.106   3.622 -0.0249 -0.1112  0.8414
 9474SOL    HW231055   5.511   6.107   3.612  0.1027  2.3503 -3.8972
 9475SOL     OW31056   6.210   7.518   5.347 -0.5783 -0.2825 -0.3677
 9475SOL    HW131057   6.190   7.556   5.433  0.2348 -0.8313  0.0864
 9475SOL    HW231058   6.269   7.581   5.306 -0.8099 -0.1122 -0.4340
 9476SOL     OW31059   2.553   5.480   9.188  0.2307 -0.2910 -0.2537
 9476SOL    HW131060   2.644   5.497   9.211 -0.2106  0.4464  1.1060
 9476SOL    HW231061   2.529   5.404   9.241  0.2883 -1.0349 -1.2696
 9477SOL     OW31062   1.100   1.023   9.984  0.0645  0.5672 -0.1225
 9477SOL    HW131063   1.104   1.113   9.953 -1.5136  0.6948 -0.0379
 9477SOL    HW231064   1.140   0.971   9.914  3.9328  1.5240  1.1145
 9478SOL     OW31065   7.769   7.834   1.084 -0.2110  0.5413 -0.8316
 9478SOL    HW131066   7.742   7.905   1.142  1.5388 -0.1539  0.9383
 9478SOL    HW231067   7.828   7.781   1.137 -0.6892 -1.7059 -2.4073
 9479SOL     OW31068   3.489   9.297   4.563 -0.0823  0.3823 -0.2895
 9479SOL    HW131069   3.512   9.374   4.511  0.9857  2.5729  3.0658
 9479SOL    HW231070   3.570   9.247   4.569 -0.5008 -0.5024 -1.5682
 9480SOL     OW31071   5.910   6.518   4.322  0.3889 -0.0510 -0.0775
 9480SOL    HW131072   5.839   6.476   4.371  2.1191 -0.7217  2.0186
 9480SOL    HW231073   5.880   6.609   4.311 -0.8990 -0.3680  0.5260
 9481SOL     OW31074   7.088   8.254   6.244  1.1845 -0.5315  0.0437
 9481SOL    HW131075   7.150   8.181   6.250  1.6132 -0.2062 -0.3364
 9481SOL    HW231076   7.013   8.218   6.196  0.4454 -1.3345  1.7280
 9482SOL     OW31077   2.750   0.846   8.390 -0.2475  0.0659  0.2123
 9482SOL    HW131078   2.808   0.771   8.403 -1.2370 -0.5466  1.3121
 9482SOL    HW231079   2.698   0.850   8.470 -2.0891  0.2627 -0.9313
 9483SOL     OW31080   5.684   2.503   8.188  0.3051 -0.6025  0.8210
 9483SOL    HW131081   5.756   2.486   8.127  0.4524  3.3579 -0.3695
 9483SOL    HW231082   5.606   2.471   8.142  0.4831  1.8492 -1.3820
 9484SOL     OW31083   9.110   1.256   1.445  0.3538 -0.1244 -0.6002
 9484SOL    HW131084   9.174   1.326   1.434  1.2098 -0.5990  1.0155
 9484SOL    HW231085   9.099   1.219   1.358  0.6694  1.3321 -1.2881
 9485SOL     OW31086   7.285   5.072   6.434 -0.5925 -0.3473 -0.1103
 9485SOL    HW131087   7.328   5.135   6.491 -0.7265 -0.1028 -0.2759
 9485SOL    HW231088   7.306   5.101   6.345  0.3876 -1.2544 -0.1936
 9486SOL     OW31089   7.890   1.097   2.674 -0.2481 -0.2452  0.0720
 9486SOL    HW131090   7.947   1.160   2.720 -2.3746  1.3395  0.6699
 9486SOL    HW231091   7.940   1.072   2.596  0.4109  2.7912 -0.6048
 9487SOL     OW31092   7.938   6.266   7.609  0.1902  0.2733 -0.0579
 9487SOL    HW131093   7.944   6.262   7.513  0.6323 -1.4900  0.0114
 9487SOL    HW231094   8.015   6.317   7.635 -0.9891  2.5448 -0.6883
 9488SOL     OW31095  10.211   9.324  10.088 -0.1325  0.3178  0.2940
 9488SOL    HW131096  10.254   9.322  10.173 -1.3982  1.3920  0.9895
 9488SOL    HW231097  10.251   9.398  10.042  0.8799 -0.5405 -0.2653
 9489SOL     OW31098   2.817   8.036   3.955  0.0945 -0.2292  0.2392
 9489SOL    HW131099   2.849   7.988   3.879  0.0653  0.0110  0.0706
 9489SOL    HW231100   2.891   8.038   4.015  0.3708  0.2278 -0.1017
 9490SOL     OW31101   7.113   2.778   2.510  0.0031 -0.5325 -0.2192
 9490SOL    HW131102   7.190   2.768   2.566  1.0801  2.2877 -1.0399
 9490SOL    HW231103   7.149   2.801   2.424 -1.7310 -1.2115 -1.1748
 9491SOL     OW31104   2.805   5.938   2.671  0.6149  0.1718 -0.0293
 9491SOL    HW131105   2.866   6.007   2.644  1.6098 -0.9759 -0.8265
 9491SOL    HW231106   2.745   5.929   2.597 -0.0443  0.7417  0.4222
 9492SOL     OW31107   5.480   6.569   2.775 -0.0185 -0.0473 -0.0670
 9492SOL    HW131108   5.440   6.642   2.822  0.4209 -0.3548  0.8179
 9492SOL    HW231109   5.530   6.610   2.704  0.7752  0.5775  0.8247
 9493SOL     OW31110   5.050   1.711   6.936  0.5439 -0.3438  0.3058
 9493SOL    HW131111   5.079   1.642   6.877  0.6682  0.1072 -0.1689
 9493SOL    HW231112   5.041   1.668   7.021 -1.2711 -1.4161 -0.3611
 9494SOL     OW31113   4.487   9.968   4.121 -0.2630 -0.0709 -0.3350
 9494SOL    HW131114   4.559   9.941   4.065 -0.3762  1.6286 -1.3601
 9494SOL    HW231115   4.522   9.963   4.210  0.4504 -1.1666 -0.6499
 9495SOL     OW31116   7.794   8.790   7.279  0.0053 -0.1596 -0.2573
 9495SOL    HW131117   7.848   8.868   7.266  0.5570  0.0040  2.5008
 9495SOL    HW231118   7.709   8.824   7.306 -0.3929 -0.4999 -1.0515
 9496SOL     OW31119   9.532   4.444   0.737 -1.0826 -0.0118 -0.3856
 9496SOL    HW131120   9.447   4.400   0.737 -1.1312  0.0257 -2.2159
 9496SOL    HW231121   9.510   4.537   0.731 -0.9180 -0.0346 -1.4321
 9497SOL     OW31122   1.813   5.849   5.334 -0.8183  0.0178 -0.0552
 9497SOL    HW131123   1.871   5.883   5.403 -1.0198 -0.0206  0.1354
 9497SOL    HW231124   1.872   5.820   5.265 -0.5619 -0.8682  0.5191
 9498SOL     OW31125   9.599   5.126   2.921  0.1162 -0.3439  0.5942
 9498SOL    HW131126   9.657   5.172   2.861  0.6084  0.2216  1.4828
 9498SOL    HW231127   9.535   5.083   2.864  1.5092 -1.1589 -0.4224
 9499SOL     OW31128   3.764   1.718  10.116 -0.1209  0.7818  0.4038
 9499SOL    HW131129   3.830   1.780  10.148  0.1467  0.4618  0.4772
 9499SOL    HW231130   3.686   1.738  10.168  0.6511 -0.5550  2.1787
 9500SOL     OW31131   7.080   1.534   6.662  0.4337  0.1183  0.6412
 9500SOL    HW131132   7.106   1.592   6.733  0.5472 -0.7749  1.3499
 9500SOL    HW231133   7.157   1.532   6.604  1.3627 -1.1442  1.8331
 9501SOL     OW31134   9.647   7.355   4.971  0.4156  0.4700  0.6905
 9501SOL    HW131135   9.628   7.408   4.893  2.5900 -0.1727 -0.3557
 9501SOL    HW231136   9.632   7.415   5.044  1.3690  2.1374 -0.3842
 9502SOL     OW31137   6.512   0.931   7.418 -0.1794 -0.5788 -0.1657
 9502SOL    HW131138   6.574   0.894   7.481  0.1315 -0.7031 -0.5354
 9502SOL    HW231139   6.455   0.987   7.470 -0.3751 -1.2304  0.3345
 9503SOL     OW31140   3.371   2.643   5.952  0.0640  0.1287  0.0174
 9503SOL    HW131141   3.431   2.715   5.934 -0.4685  0.3352 -1.0351
 9503SOL    HW231142   3.299   2.655   5.890 -1.1457 -0.0303  1.3229
 9504SOL     OW31143   6.624   4.913   8.162  0.5873 -0.2692  0.6509
 9504SOL    HW131144   6.589   4.828   8.188 -1.7561  0.9014  1.6695
 9504SOL    HW231145   6.598   4.922   8.070 -2.3540  0.7007  1.4621
 9505SOL     OW31146   4.360   5.497   2.376 -0.0170 -0.4688  0.0112
 9505SOL    HW131147   4.367   5.474   2.468  0.6828  0.0758  0.1027
 9505SOL    HW231148   4.268   5.482   2.354 -0.8441  1.9630  1.5030
 9506SOL     OW31149   6.882   4.666   3.108  0.2030  0.3642 -0.0985
 9506SOL    HW131150   6.818   4.735   3.126  1.0047  1.3799 -0.9879
 9506SOL    HW231151   6.837   4.585   3.132 -0.6546  1.1984  1.3083
 9507SOL     OW31152   8.790   0.068   8.935  0.0366  0.1486 -0.2585
 9507SOL    HW131153   8.795   0.052   8.841 -0.0268 -2.1077  0.0674
 9507SOL    HW231154   8.843  -0.001   8.975  1.0319  1.7466  1.3504
 9508SOL     OW31155   0.385   0.573   8.347 -0.5312  0.4168  0.0640
 9508SOL    HW131156   0.350   0.516   8.415  0.9481  0.9514  1.3503
 9508SOL    HW231157   0.362   0.530   8.264  0.4685 -2.0352  0.9621
 9509SOL     OW31158   1.237   9.091   7.063 -0.0339 -0.3642  0.2699
 9509SOL    HW131159   1.302   9.022   7.048  0.3227 -0.1770  0.9261
 9509SOL    HW231160   1.287   9.173   7.053 -0.6673 -0.1560 -1.5424
 9510SOL     OW31161   6.310   5.390   3.974 -0.4691  0.3199  0.1188
 9510SOL    HW131162   6.376   5.402   3.906 -1.8856  2.5967 -0.9755
 9510SOL    HW231163   6.335   5.451   4.043 -0.6800  0.2011  0.3018
 9511SOL     OW31164   8.730   0.440   7.992  0.0238  0.0608  0.2881
 9511SOL    HW131165   8.667   0.437   7.920  1.4941 -1.1971 -1.0404
 9511SOL    HW231166   8.812   0.469   7.951  0.4708  1.1618  1.8608
 9512SOL     OW31167   6.303   6.543   4.794  0.3265  0.3894 -0.0618
 9512SOL    HW131168   6.379   6.552   4.851 -0.2495  1.7831  0.5308
 9512SOL    HW231169   6.234   6.508   4.850  1.0174 -2.9423 -1.0758
 9513SOL     OW31170   1.034   2.917   6.300 -0.3855  0.3299 -0.2453
 9513SOL    HW131171   1.037   2.937   6.394 -2.6813 -1.0226  0.1920
 9513SOL    HW231172   1.097   2.978   6.261  0.7722  0.8120  2.1654
 9514SOL     OW31173   0.384   2.849   1.153 -0.1388  0.1018 -0.7452
 9514SOL    HW131174   0.478   2.852   1.137  0.0129  1.5695  0.1512
 9514SOL    HW231175   0.345   2.893   1.078 -0.0060  0.5546 -0.5520
 9515SOL     OW31176   9.764   9.764   9.990 -0.1725  0.9431  0.5219
 9515SOL    HW131177   9.847   9.749   9.945 -0.0368  0.8187  0.8088
 9515SOL    HW231178   9.700   9.778   9.920  0.0930  1.0531  0.3013
 9516SOL     OW31179   1.494   6.079   7.127  0.7546 -0.3620  0.3500
 9516SOL    HW131180   1.477   6.071   7.221 -3.0168  1.8197  0.0513
 9516SOL    HW231181   1.450   6.004   7.088  2.6205 -1.4644  0.2406
 9517SOL     OW31182   9.851   8.554   2.545  0.0823  0.3586  0.0697
 9517SOL    HW131183   9.868   8.550   2.451  0.8259  1.4294  0.1332
 9517SOL    HW231184   9.869   8.645   2.568  1.8310 -0.3200  1.5946
 9518SOL     OW31185   7.485   9.613   0.857  0.1113  0.0906  0.0720
 9518SOL    HW131186   7.418   9.570   0.805  1.7648 -0.1435 -2.0238
 9518SOL    HW231187   7.556   9.548   0.863  1.1686  1.2074  0.0079
 9519SOL     OW31188   6.422   7.541   6.087  0.2300 -0.4441  0.1496
 9519SOL    HW131189   6.471   7.598   6.146  1.8571  0.1330 -1.6525
 9519SOL    HW231190   6.479   7.466   6.072  0.2277 -0.2013 -1.2690
 9520SOL     OW31191   3.949   7.822   6.169  0.7355  0.5238 -0.1337
 9520SOL    HW131192   3.873   7.784   6.212  0.5588  1.2827  0.2333
 9520SOL    HW231193   4.019   7.818   6.234  1.0977 -0.4023 -0.5526
 9521SOL     OW31194   7.787   3.879   8.349  0.0616  0.4273 -0.2563
 9521SOL    HW131195   7.850   3.951   8.345  0.0921  0.4070 -0.1628
 9521SOL    HW231196   7.826   3.817   8.411 -0.0524  0.4167 -0.1946
 9522SOL     OW31197   9.030   5.293   7.348 -0.4146  0.1847 -0.3072
 9522SOL    HW131198   9.025   5.374   7.296 -0.0165 -0.8236 -1.9792
 9522SOL    HW231199   8.945   5.287   7.390 -1.0785  0.6104 -1.5255
 9523SOL     OW31200   8.172   7.125   8.081  0.5616 -0.3196  0.1616
 9523SOL    HW131201   8.181   7.183   8.156 -0.5475 -1.0361  0.8845
 9523SOL    HW231202   8.162   7.183   8.006 -0.6015  0.4448  0.8777
 9524SOL     OW31203   7.778   5.673   8.417  0.0979  0.5503  0.0835
 9524SOL    HW131204   7.796   5.590   8.461 -2.8415  0.4966  1.4092
 9524SOL    HW231205   7.786   5.653   8.323  3.0535 -0.2064  0.4170
 9525SOL     OW31206   8.465   2.486   1.447  0.2524 -0.0072  0.8781
 9525SOL    HW131207   8.505   2.496   1.361  0.4308  1.6072  1.1100
 9525SOL    HW231208   8.420   2.402   1.443 -0.2496  0.2961 -1.0108
 9526SOL     OW31209   7.274   8.065   3.820  0.2315  0.3978  0.0078
 9526SOL    HW131210   7.269   8.091   3.728 -0.7748  1.2873  0.2950
 9526SOL    HW231211   7.212   8.122   3.865  1.6824  0.9331  1.4567
 9527SOL     OW31212   4.949   9.239   9.243  0.0430 -0.6103  0.0628
 9527SOL    HW131213   4.909   9.217   9.159  1.2296  0.3696 -0.7915
 9527SOL    HW231214   5.014   9.169   9.257  0.7439 -0.0845 -0.4886
 9528SOL     OW31215   1.334   1.466   3.772 -0.0212 -0.5177 -1.1345
 9528SOL    HW131216   1.260   1.520   3.799  0.2700 -0.9411  0.6318
 9528SOL    HW231217   1.371   1.512   3.696  0.4807  2.0491  0.5158
 9529SOL     OW31218   0.630   1.958   7.193 -0.2678 -0.4737 -0.1998
 9529SOL    HW131219   0.725   1.958   7.184 -0.2481  1.4816 -0.3244
 9529SOL    HW231220   0.598   1.992   7.110 -1.0910 -1.1475 -0.1730
 9530SOL     OW31221   4.540   0.634   7.753 -0.2547 -0.5939 -0.3435
 9530SOL    HW131222   4.583   0.653   7.837 -3.2731  3.2416  0.5969
 9530SOL    HW231223   4.597   0.673   7.687  0.4389 -0.5651  0.2592
 9531SOL     OW31224   0.041   0.765   8.862 -0.3124 -0.6982  0.1921
 9531SOL    HW131225  -0.022   0.771   8.790  0.8758  1.1341 -0.7640
 9531SOL    HW231226   0.004   0.821   8.930  0.5099  0.9030 -0.6134
 9532SOL     OW31227   9.664   8.476   9.079  0.0810 -0.0005  0.0638
 9532SOL    HW131228   9.645   8.402   9.138 -0.2154  0.6283  0.7837
 9532SOL    HW231229   9.664   8.438   8.992 -0.8700 -0.7184  0.3549
 9533SOL     OW31230   3.044   6.255   8.104  0.1348  0.6107 -0.0936
 9533SOL    HW131231   3.062   6.214   8.020  0.5263  0.6245 -0.0208
 9533SOL    HW231232   2.959   6.222   8.130  1.2672 -1.7208  0.9107
 9534SOL     OW31233   5.099  10.158   0.472 -0.8426 -0.2598  0.0017
 9534SOL    HW131234   5.032  10.093   0.451 -1.0717  0.0882 -0.3715
 9534SOL    HW231235   5.169  10.142   0.408  0.1284 -1.6047  1.3327
 9535SOL     OW31236   4.001   7.959   0.147 -0.3138  0.3780  0.3782
 9535SOL    HW131237   3.954   7.889   0.102  0.2251  0.1584  0.1577
 9535SOL    HW231238   4.061   7.914   0.206  0.1112  0.6562  0.1594
 9536SOL     OW31239   9.798   4.101   8.747 -0.0833  0.3394  0.1387
 9536SOL    HW131240   9.797   4.104   8.843  0.5000 -1.6731  0.2610
 9536SOL    HW231241   9.717   4.142   8.720 -0.5104  0.4502  1.5298
 9537SOL     OW31242   5.112   3.099   8.730  0.1650 -0.3002 -0.2745
 9537SOL    HW131243   5.072   3.050   8.658 -0.6038 -2.1228  1.3202
 9537SOL    HW231244   5.204   3.074   8.727  0.4232  0.6760 -1.3994
 9538SOL     OW31245   1.850   8.438   0.467 -0.1070 -0.1300 -0.0372
 9538SOL    HW131246   1.861   8.500   0.539 -1.1796  0.4578 -0.3476
 9538SOL    HW231247   1.938   8.425   0.433  0.4293 -0.4441  1.3888
 9539SOL     OW31248   3.305   2.266   9.696  0.0640 -0.0658 -0.5350
 9539SOL    HW131249   3.347   2.328   9.636 -3.0927 -0.3239 -3.3133
 9539SOL    HW231250   3.365   2.192   9.700  1.3725  0.8794 -1.6156
 9540SOL     OW31251   5.486  10.094   3.789 -0.0915  0.5132 -0.1184
 9540SOL    HW131252   5.399  10.108   3.751 -2.1051 -1.3943  3.2918
 9540SOL    HW231253   5.514  10.010   3.755  1.4897  1.9886 -2.7702
 9541SOL     OW31254   0.647   2.161   7.783  0.2196  0.0800 -0.2541
 9541SOL    HW131255   0.642   2.241   7.834 -1.3086 -0.1666  0.0196
 9541SOL    HW231256   0.558   2.148   7.750  0.6567 -1.0070 -1.0630
 9542SOL     OW31257   0.183   2.772   6.932 -0.0713 -0.1944  0.2698
 9542SOL    HW131258   0.216   2.684   6.912  1.0485  0.3965 -0.5728
 9542SOL    HW231259   0.221   2.828   6.864 -1.5306  0.8015  0.2215
 9543SOL     OW31260   0.842   5.279   0.503  0.4855 -0.1734  0.2863
 9543SOL    HW131261   0.920   5.234   0.470  0.9363 -0.7892  2.0899
 9543SOL    HW231262   0.876   5.345   0.564 -0.4091 -0.6911  1.3669
 9544SOL     OW31263   7.612   2.354   8.213  0.1514  0.1122 -0.1504
 9544SOL    HW131264   7.612   2.390   8.302 -1.3678  0.5104 -0.2712
 9544SOL    HW231265   7.703   2.335   8.194  0.6390  1.1092  1.0621
 9545SOL     OW31266   7.269   5.713   4.774 -0.3969  0.4588  0.4629
 9545SOL    HW131267   7.324   5.691   4.849  0.5882  0.3058 -0.2798
 9545SOL    HW231268   7.224   5.794   4.801 -0.8056 -0.1062  1.5661
 9546SOL     OW31269   3.205   6.936   6.283 -0.6917  0.1144 -0.0018
 9546SOL    HW131270   3.282   6.879   6.273 -1.7370 -1.6432  1.2995
 9546SOL    HW231271   3.162   6.932   6.198 -0.9149 -1.3448  0.1563
 9547SOL     OW31272   8.050  10.023   6.353  0.0083  0.1731 -0.0620
 9547SOL    HW131273   7.971  10.040   6.405 -1.0665  0.6073 -1.7589
 9547SOL    HW231274   8.114  10.086   6.385  0.4648 -1.5760  2.8452
 9548SOL     OW31275   7.404   9.886   6.662  0.5195 -0.3931  0.0053
 9548SOL    HW131276   7.308   9.885   6.657  0.3152  2.6343  1.1616
 9548SOL    HW231277   7.424   9.841   6.744 -0.2536  2.0313  1.6270
 9549SOL     OW31278  10.028   6.349   9.940  0.2041 -0.6698  0.2951
 9549SOL    HW131279   9.962   6.355   9.871 -0.1406 -1.7930  0.4991
 9549SOL    HW231280   9.983   6.307  10.013  0.4127  0.9832  1.4368
 9550SOL     OW31281   1.410   8.197   5.587 -0.2699 -0.8676  0.3907
 9550SOL    HW131282   1.382   8.156   5.669  0.1264 -3.1718 -0.5464
 9550SOL    HW231283   1.503   8.177   5.580  0.6953  2.6189  1.1403
 9551SOL     OW31284   7.584   2.281   3.868  0.1952 -0.1461  0.1972
 9551SOL    HW131285   7.500   2.318   3.895  0.1931 -0.5172  0.7175
 9551SOL    HW231286   7.622   2.346   3.809 -0.4726  0.0054 -0.0654
 9552SOL     OW31287   1.832   9.519   2.361  0.2840 -0.0048 -0.1419
 9552SOL    HW131288   1.741   9.497   2.343 -0.2063  2.6452 -1.3927
 9552SOL    HW231289   1.828   9.596   2.417  1.8399 -1.0680  1.5678
 9553SOL     OW31290   2.535   3.027   2.407 -0.2442  0.2006 -0.4581
 9553SOL    HW131291   2.621   3.018   2.447 -1.6660 -0.1203  2.8205
 9553SOL    HW231292   2.488   2.948   2.432 -1.4618  0.2134 -2.4534
 9554SOL     OW31293   1.597   3.112   2.371  0.4636  0.3919  0.2801
 9554SOL    HW131294   1.663   3.092   2.305  0.1468 -0.2978  0.1630
 9554SOL    HW231295   1.537   3.172   2.327 -1.6525 -2.6055 -1.2841
 9555SOL     OW31296   8.932   4.666   3.679 -0.0010 -0.2655  0.0973
 9555SOL    HW131297   8.953   4.711   3.597  0.6553 -0.6611  0.0431
 9555SOL    HW231298   8.857   4.610   3.656  0.1521 -0.3426 -0.2266
 9556SOL     OW31299   1.262   9.574   1.873 -0.3815 -0.2546  0.3486
 9556SOL    HW131300   1.328   9.609   1.933 -1.1802 -0.7213  1.5171
 9556SOL    HW231301   1.221   9.503   1.921 -1.8277  0.0973 -0.3244
 9557SOL     OW31302   3.053   9.106   9.484  0.2024  0.3179  0.3266
 9557SOL    HW131303   3.029   9.165   9.556  0.7450  0.6154  0.2722
 9557SOL    HW231304   3.073   9.023   9.527 -0.5903  0.1631  0.4019
 9558SOL     OW31305   9.680   4.780   6.320 -0.2999 -0.0492 -0.0603
 9558SOL    HW131306   9.599   4.779   6.370 -1.4362  3.5177 -1.5681
 9558SOL    HW231307   9.745   4.815   6.381 -0.3692 -0.7999  0.4659
 9559SOL     OW31308   0.803  10.069   5.241 -0.4904  0.0897  0.0692
 9559SOL    HW131309   0.747  10.000   5.277 -0.4555  0.1906  0.3143
 9559SOL    HW231310   0.873  10.021   5.196  1.1113 -0.0933  2.5976
 9560SOL     OW31311   3.772  10.039   3.582  0.2099 -0.2804  0.0281
 9560SOL    HW131312   3.690  10.006   3.545  0.4215 -0.8809  0.0826
 9560SOL    HW231313   3.831   9.964   3.580  1.7697  0.8292 -2.8689
 9561SOL     OW31314   3.836   0.570   7.429 -0.4574  0.7688 -0.1087
 9561SOL    HW131315   3.794   0.654   7.449 -0.2332  1.0551 -0.8102
 9561SOL    HW231316   3.913   0.594   7.378  1.3028  0.3533  2.1703
 9562SOL     OW31317   5.369   1.821   6.602  0.1511  0.6526 -0.2852
 9562SOL    HW131318   5.460   1.808   6.627  0.2120  1.9334  0.2432
 9562SOL    HW231319   5.359   1.771   6.521  1.3579  0.6200 -0.4320
 9563SOL     OW31320   0.537   6.053   2.021 -0.0060  0.1680  0.0029
 9563SOL    HW131321   0.562   6.005   1.942 -1.1564  1.5067 -1.2547
 9563SOL    HW231322   0.523   5.986   2.087  0.5040 -1.0383 -1.0591
 9564SOL     OW31323   7.833   5.821   5.204  0.6954  0.1083 -0.2136
 9564SOL    HW131324   7.842   5.737   5.249  0.8041  0.7353  0.9945
 9564SOL    HW231325   7.841   5.800   5.111  0.2384 -1.2757  0.0375
 9565SOL     OW31326   6.312   6.649   6.879 -0.5108  0.2341  0.1574
 9565SOL    HW131327   6.290   6.624   6.969  0.7541 -0.2531  0.3576
 9565SOL    HW231328   6.331   6.742   6.883 -1.3520  0.4079  0.2072
 9566SOL     OW31329   8.109   8.935   5.727 -0.2139  0.1342  0.3653
 9566SOL    HW131330   8.187   8.970   5.769 -0.6474 -0.2174  1.4920
 9566SOL    HW231331   8.074   8.872   5.789 -2.3389  1.4936  0.6775
 9567SOL     OW31332   6.561   7.616   8.255 -0.0754 -0.0318 -0.2992
 9567SOL    HW131333   6.478   7.591   8.296 -0.7175 -0.1578 -1.6365
 9567SOL    HW231334   6.548   7.708   8.230 -0.1729 -0.3186 -1.3495
 9568SOL     OW31335   5.713   2.564   1.988  0.2096 -0.4679 -0.2378
 9568SOL    HW131336   5.708   2.498   1.918  0.7131  2.2247 -3.0272
 9568SOL    HW231337   5.630   2.612   1.981  0.3693 -0.0029  0.9010
 9569SOL     OW31338   0.148   0.165   0.124  0.3832 -0.2693 -0.4047
 9569SOL    HW131339   0.126   0.180   0.216 -0.3299 -1.1847 -0.4126
 9569SOL    HW231340   0.176   0.074   0.120  0.1123 -0.3301 -1.1408
 9570SOL     OW31341   7.040   0.424   2.964 -0.3239 -0.0173 -0.0109
 9570SOL    HW131342   7.076   0.351   2.914 -0.4098  0.3917 -0.6829
 9570SOL    HW231343   7.061   0.403   3.055  0.8610 -0.2021 -0.3130
 9571SOL     OW31344   8.786   3.271   6.142 -0.0618 -0.3950 -0.2204
 9571SOL    HW131345   8.824   3.293   6.226 -1.0374 -1.3687  0.5098
 9571SOL    HW231346   8.694   3.253   6.161 -0.1312 -1.4331 -1.3441
 9572SOL     OW31347   4.904   9.664   7.711 -0.1566 -0.6190 -0.1142
 9572SOL    HW131348   4.926   9.717   7.788 -1.1836 -0.1935 -0.1061
 9572SOL    HW231349   4.982   9.668   7.656  0.1528  0.0556  0.3611
 9573SOL     OW31350   8.774   1.444   7.723  0.2988  0.6654  0.3623
 9573SOL    HW131351   8.783   1.538   7.706 -1.2600  0.5753 -1.3325
 9573SOL    HW231352   8.687   1.435   7.763  0.3467 -0.0627  0.3115
 9574SOL     OW31353   0.794   5.743   5.915  0.2941 -0.6374  0.8112
 9574SOL    HW131354   0.767   5.809   5.979  1.7950  0.1917  0.6398
 9574SOL    HW231355   0.889   5.735   5.927  0.6744 -0.2661 -1.4458
 9575SOL     OW31356  10.337   6.656   6.412 -0.4614 -0.0633 -0.5308
 9575SOL    HW131357  10.376   6.714   6.347 -1.6061  1.6323  0.2118
 9575SOL    HW231358  10.244   6.652   6.388 -0.7002 -0.2645  0.3952
 9576SOL     OW31359   3.943   9.363   4.502 -0.1532  0.4139 -0.2016
 9576SOL    HW131360   3.937   9.344   4.408 -0.8880 -0.7526  0.0598
 9576SOL    HW231361   4.036   9.354   4.522 -0.1309 -0.4370 -0.6180
 9577SOL     OW31362   3.408   5.741   7.864 -0.4637 -0.4669  0.3432
 9577SOL    HW131363   3.370   5.736   7.777 -0.5252 -0.4125  0.3675
 9577SOL    HW231364   3.372   5.820   7.903  0.4978  0.1651 -0.0249
 9578SOL     OW31365   8.596   7.666   2.715  0.2030 -0.0838 -0.2337
 9578SOL    HW131366   8.660   7.715   2.663  0.3558  0.4181  0.4221
 9578SOL    HW231367   8.515   7.716   2.707 -0.3459 -1.1240 -1.6984
 9579SOL     OW31368   4.543   4.311   0.562 -0.3662  0.4718  0.2323
 9579SOL    HW131369   4.459   4.334   0.602 -0.0091  0.8409  0.7823
 9579SOL    HW231370   4.542   4.354   0.477 -1.4440 -0.9260 -0.4840
 9580SOL     OW31371   5.858   9.352   6.433  0.1817  0.1033  0.2846
 9580SOL    HW131372   5.778   9.354   6.486  0.9392  0.1768  1.4726
 9580SOL    HW231373   5.828   9.331   6.345 -1.4441  2.5131  0.1550
 9581SOL     OW31374   4.181   6.260   4.632 -0.0774  0.8868 -0.1256
 9581SOL    HW131375   4.224   6.338   4.669 -0.0441  0.3236  1.0631
 9581SOL    HW231376   4.125   6.228   4.703  0.0671 -0.3006 -0.5308
 9582SOL     OW31377   0.481   1.500   5.846 -0.3272  0.0808 -0.1440
 9582SOL    HW131378   0.431   1.421   5.821 -0.1630  0.1031 -0.5570
 9582SOL    HW231379   0.517   1.479   5.932 -0.2461 -0.3134 -0.2703
 9583SOL     OW31380   8.801   7.500   9.473  0.7493 -0.0328 -0.0756
 9583SOL    HW131381   8.746   7.425   9.452  0.4499  0.1590  0.0225
 9583SOL    HW231382   8.890   7.466   9.470  0.6031 -0.4389  0.1696
 9584SOL     OW31383   1.650   8.908   7.436 -0.3402  0.3363  0.5631
 9584SOL    HW131384   1.668   8.897   7.342 -0.9549 -1.3623  0.6129
 9584SOL    HW231385   1.717   8.970   7.465  1.1764 -0.6564 -0.5973
 9585SOL     OW31386   3.508   3.833   0.215  0.0357  0.5243 -0.3628
 9585SOL    HW131387   3.591   3.877   0.196  0.6923 -0.6676 -0.3659
 9585SOL    HW231388   3.461   3.894   0.272  0.0279  2.1063 -1.9633
 9586SOL     OW31389   0.830   3.520   3.186 -0.2083  0.0317  0.8780
 9586SOL    HW131390   0.924   3.523   3.205  0.3650 -1.4102 -1.3359
 9586SOL    HW231391   0.789   3.505   3.271  1.5744  0.2805  1.8407
 9587SOL     OW31392   6.574   8.968   4.547 -0.1508 -0.2774  0.6854
 9587SOL    HW131393   6.532   8.935   4.627  0.6603 -0.8830  0.8712
 9587SOL    HW231394   6.578   8.892   4.489  0.1081 -0.0686  0.4280
 9588SOL     OW31395   3.685   2.247   7.528  0.2134 -0.1147 -0.0506
 9588SOL    HW131396   3.719   2.166   7.565  1.4720  0.7429  0.7688
 9588SOL    HW231397   3.758   2.282   7.477 -0.4202  0.3394 -0.6588
 9589SOL     OW31398   0.706   7.890   9.127  0.0668 -0.0889 -0.0365
 9589SOL    HW131399   0.688   7.852   9.041 -1.4116 -3.1543  1.4601
 9589SOL    HW231400   0.801   7.899   9.130  0.1297  0.2219 -2.0224
 9590SOL     OW31401   8.537   2.240   5.641 -0.0863 -0.3104 -0.1494
 9590SOL    HW131402   8.569   2.330   5.628 -0.0271 -0.0448  1.6284
 9590SOL    HW231403   8.464   2.250   5.703 -1.6271 -1.2550 -1.7264
 9591SOL     OW31404   8.198   4.188   6.016  0.1245 -0.1089 -0.6804
 9591SOL    HW131405   8.105   4.183   6.034 -0.2531  3.0549 -1.3329
 9591SOL    HW231406   8.235   4.235   6.091  1.0148 -0.3303 -0.9636
 9592SOL     OW31407   5.247   6.070   3.138 -0.4588 -0.0529 -0.0956
 9592SOL    HW131408   5.254   5.985   3.181  1.1987  0.8035  1.4489
 9592SOL    HW231409   5.265   6.052   3.046  0.9021 -1.2582  0.3706
 9593SOL     OW31410   9.780   6.024   7.154  0.0675 -0.0170 -0.5239
 9593SOL    HW131411   9.862   5.974   7.152  0.5996  0.7146  1.0988
 9593SOL    HW231412   9.715   5.961   7.186  0.6382  0.1561  1.0642
 9594SOL     OW31413   1.207   3.856   0.865 -0.3100 -0.4494  0.6000
 9594SOL    HW131414   1.230   3.839   0.957  0.9665  1.3906  0.6864
 9594SOL    HW231415   1.152   3.782   0.840  4.1443 -4.3712  0.9869
 9595SOL     OW31416   8.413   4.456   4.133  0.6901 -0.3206  0.2726
 9595SOL    HW131417   8.481   4.417   4.188  1.3431 -3.5211 -2.5049
 9595SOL    HW231418   8.331   4.425   4.171  0.8514  0.9106  1.7389
 9596SOL     OW31419   1.853   7.434   2.829  0.6055  0.1826  0.0625
 9596SOL    HW131420   1.782   7.488   2.862  1.6367  0.8872  1.1800
 9596SOL    HW231421   1.851   7.355   2.883  1.8407  1.0257  1.3952
 9597SOL     OW31422   9.939   9.765   2.018  0.0222 -0.7451  0.1550
 9597SOL    HW131423   9.957   9.672   2.026 -1.2775 -1.0824 -0.5402
 9597SOL    HW231424   9.873   9.771   1.949  1.8967  0.9305 -1.6061
 9598SOL     OW31425   2.334   4.697   0.289 -0.2333 -0.4906 -1.0608
 9598SOL    HW131426   2.368   4.624   0.340 -1.6915 -1.7139 -1.7348
 9598SOL    HW231427   2.406   4.760   0.286  0.6686 -1.3637  0.5379
 9599SOL     OW31428   4.633   3.647   0.381 -0.3671  0.5423  0.0682
 9599SOL    HW131429   4.602   3.686   0.299 -0.7196  0.4607  0.1602
 9599SOL    HW231430   4.677   3.566   0.353  1.7313  1.7209 -0.2721
 9600SOL     OW31431   8.502   7.722   8.504  0.5763 -0.2658 -0.3749
 9600SOL    HW131432   8.504   7.786   8.575 -0.3602  0.4303 -0.9545
 9600SOL    HW231433   8.522   7.639   8.546 -1.7931 -0.1930  1.1032
 9601SOL     OW31434   9.082   5.228   8.478  0.3281  0.2615  0.0788
 9601SOL    HW131435   9.003   5.201   8.431  0.0078 -0.7079  1.1149
 9601SOL    HW231436   9.108   5.310   8.436 -1.1252  0.5182 -0.3961
 9602SOL     OW31437   9.225   9.701   1.556  0.3277 -0.1415  0.6134
 9602SOL    HW131438   9.308   9.669   1.521  0.9156  0.4397  1.4396
 9602SOL    HW231439   9.189   9.756   1.486  1.4990  1.0300  0.8809
 9603SOL     OW31440   3.711   6.135   2.697 -0.0730 -0.8645 -0.2555
 9603SOL    HW131441   3.660   6.129   2.778 -0.1380 -1.3579 -0.3317
 9603SOL    HW231442   3.645   6.150   2.629 -0.0261 -0.5379 -0.2299
 9604SOL     OW31443   5.352   0.533   2.685  0.2896 -0.1692  0.4690
 9604SOL    HW131444   5.308   0.480   2.619  0.6075  0.6217 -0.3935
 9604SOL    HW231445   5.420   0.475   2.721  1.1091 -0.1440 -0.9759
 9605SOL     OW31446   2.618   9.158   6.184  0.7991 -0.3656 -0.2100
 9605SOL    HW131447   2.544   9.177   6.126  1.1293  1.1470 -0.1648
 9605SOL    HW231448   2.656   9.244   6.204  0.8855 -0.8596  1.9983
 9606SOL     OW31449   8.045   5.185   6.788 -0.3414 -0.6243 -0.3979
 9606SOL    HW131450   8.056   5.091   6.770  0.6424 -0.4583 -0.7352
 9606SOL    HW231451   7.984   5.215   6.722 -1.1990 -1.1549  0.1320
 9607SOL     OW31452   0.314   3.934   7.693 -0.3530  0.2189  0.0387
 9607SOL    HW131453   0.341   3.993   7.764 -0.0252 -0.9096  0.8670
 9607SOL    HW231454   0.283   3.855   7.737 -0.2547 -0.4620 -1.0709
 9608SOL     OW31455   5.306   3.300   9.333 -0.1080 -0.4449 -0.2147
 9608SOL    HW131456   5.315   3.385   9.375  0.6337 -0.6312  0.0188
 9608SOL    HW231457   5.220   3.303   9.291 -0.5049  0.0540  0.6061
 9609SOL     OW31458   7.609   9.995   5.759 -0.2973 -0.3650  0.3728
 9609SOL    HW131459   7.589  10.069   5.817  1.1509 -1.2216  2.0550
 9609SOL    HW231460   7.554   9.924   5.791 -1.6631 -0.0748 -1.2227
 9610SOL     OW31461   6.917   0.191   2.550 -0.2620  0.5786  0.1751
 9610SOL    HW131462   6.908   0.265   2.610 -1.2298  1.4847 -1.0451
 9610SOL    HW231463   6.866   0.215   2.473  0.4144 -0.8309 -0.7702
 9611SOL     OW31464   5.504   9.663   1.230 -0.4299 -0.1139  0.1097
 9611SOL    HW131465   5.526   9.719   1.155 -0.6991 -0.8892 -0.5630
 9611SOL    HW231466   5.415   9.689   1.254 -0.8357 -0.7357 -0.6695
 9612SOL     OW31467   1.134   2.557   6.967 -0.7570  0.0734 -0.0489
 9612SOL    HW131468   1.180   2.570   7.050  1.8234 -0.1715 -1.3324
 9612SOL    HW231469   1.052   2.605   6.977  1.2254  3.6056  1.2221
 9613SOL     OW31470   8.853   1.657   7.412  0.1144 -0.0911 -0.1801
 9613SOL    HW131471   8.799   1.696   7.481  0.5686  1.1996 -0.5296
 9613SOL    HW231472   8.839   1.713   7.336 -0.0385 -1.2521 -1.0259
 9614SOL     OW31473   3.577   9.336   6.250 -0.1619  0.1013 -0.3796
 9614SOL    HW131474   3.614   9.419   6.221  2.8489  0.1584  3.0310
 9614SOL    HW231475   3.648   9.291   6.295 -2.6951 -2.5821  1.3688
 9615SOL     OW31476   6.708   2.759   0.664 -0.0087 -0.0678 -0.7766
 9615SOL    HW131477   6.620   2.725   0.679 -0.4264  1.0445 -0.5663
 9615SOL    HW231478   6.766   2.685   0.679 -0.8775 -0.6986 -0.4593
 9616SOL     OW31479   9.326   5.394   1.653 -0.4047 -0.1505  0.2803
 9616SOL    HW131480   9.262   5.464   1.638  0.2698 -0.1691 -3.9322
 9616SOL    HW231481   9.411   5.438   1.644  0.0873 -1.0874  0.2784
 9617SOL     OW31482   7.791   4.786   0.134  0.0216  0.1913 -0.3949
 9617SOL    HW131483   7.798   4.698   0.098  0.8782  1.0554 -2.4972
 9617SOL    HW231484   7.878   4.805   0.169 -0.4296 -0.1270  0.9501
 9618SOL     OW31485   4.208   6.292   8.672 -0.5943 -0.7081 -0.0038
 9618SOL    HW131486   4.222   6.307   8.765 -0.7809 -0.6466  0.0159
 9618SOL    HW231487   4.158   6.369   8.643  1.1547  0.2619 -0.5764
 9619SOL     OW31488   7.944   4.438  10.268  0.3648  0.8140 -0.2157
 9619SOL    HW131489   7.955   4.494  10.192 -0.5752  0.3665 -0.7003
 9619SOL    HW231490   8.028   4.443  10.314  1.0630  0.8515 -1.4396
 9620SOL     OW31491   2.113   7.381   0.695  0.2592  0.7236 -0.2449
 9620SOL    HW131492   2.094   7.335   0.777 -1.1255  0.9339 -0.4288
 9620SOL    HW231493   2.104   7.473   0.717 -0.4154  0.7722 -0.6853
 9621SOL     OW31494   7.166   9.151   8.374  0.3136 -0.1620  0.3453
 9621SOL    HW131495   7.075   9.180   8.371  0.4275  0.8204  2.9371
 9621SOL    HW231496   7.183   9.136   8.467  1.9162 -3.4352 -0.3450
 9622SOL     OW31497   9.220   1.423   8.116 -0.0247  0.7855  0.4622
 9622SOL    HW131498   9.201   1.517   8.117  2.1702  1.3114 -0.1415
 9622SOL    HW231499   9.228   1.399   8.208 -0.0560  1.3205  0.6120
 9623SOL     OW31500   4.119   0.506   8.168  0.0450 -0.2496  0.2836
 9623SOL    HW131501   4.046   0.536   8.224  1.4151  1.0453  1.4811
 9623SOL    HW231502   4.127   0.574   8.101 -0.1690 -0.6584 -0.1598
 9624SOL     OW31503   2.777   9.987   3.163 -0.4946  0.1517 -1.0299
 9624SOL    HW131504   2.722  10.052   3.119  0.8938 -0.0642 -3.2219
 9624SOL    HW231505   2.866  10.007   3.134  0.1814 -1.6063 -0.2903
 9625SOL     OW31506   4.277   0.760   4.009  0.2652 -0.0070  0.5019
 9625SOL    HW131507   4.273   0.847   3.970  2.5541  0.6185  1.4714
 9625SOL    HW231508   4.326   0.708   3.945 -1.0785 -0.6102 -0.0668
 9626SOL     OW31509   7.101   9.969   1.328 -0.3282 -0.3340  0.2996
 9626SOL    HW131510   7.155   9.890   1.320  0.5985  0.2613  0.4507
 9626SOL    HW231511   7.080   9.974   1.421  1.8828  1.0023  0.8053
 9627SOL     OW31512   2.561   1.442   7.107  0.3170  0.1643  0.1681
 9627SOL    HW131513   2.553   1.360   7.058  1.3840 -1.0530  1.9184
 9627SOL    HW231514   2.639   1.483   7.071  2.0342 -1.4922  1.7847
 9628SOL     OW31515   4.834   4.470   6.563  0.1887 -0.7763 -0.1165
 9628SOL    HW131516   4.836   4.383   6.602 -1.0370 -1.3292 -1.1823
 9628SOL    HW231517   4.887   4.524   6.621  1.0641 -2.2520  0.5133
 9629SOL     OW31518   6.185   6.879   7.210 -0.1895 -0.2802 -0.0236
 9629SOL    HW131519   6.209   6.971   7.194 -0.1602 -0.0142  1.3438
 9629SOL    HW231520   6.179   6.840   7.123 -1.9227  1.4512 -0.7511
 9630SOL     OW31521   0.081   3.903   9.319 -0.1728  0.4689 -0.1737
 9630SOL    HW131522   0.010   3.930   9.377  0.2349 -0.2124  0.6471
 9630SOL    HW231523   0.058   3.942   9.234 -0.9678  1.1479  0.3377
 9631SOL     OW31524   6.927   8.134   5.033 -0.1278 -0.6955  0.1032
 9631SOL    HW131525   7.011   8.110   4.993  0.4336  1.2108  0.0140
 9631SOL    HW231526   6.917   8.227   5.014  1.1027  1.0244  5.7861
 9632SOL     OW31527   3.724   2.629   6.896  0.2707  0.1989 -0.4708
 9632SOL    HW131528   3.669   2.681   6.956  1.8214  1.7597 -0.3407
 9632SOL    HW231529   3.758   2.558   6.951  1.6626  1.6060  0.5572
 9633SOL     OW31530   1.826   8.416   4.563  0.0455 -0.0126  0.2255
 9633SOL    HW131531   1.794   8.480   4.498  1.5357  1.8850  1.2484
 9633SOL    HW231532   1.867   8.348   4.510  0.6547  1.1684 -0.9060
 9634SOL     OW31533  10.214   8.248   3.935  0.7218 -0.2545 -0.1113
 9634SOL    HW131534  10.198   8.248   3.840  0.1208 -0.8177 -0.0179
 9634SOL    HW231535  10.258   8.332   3.951  1.6112 -0.5282 -1.0039
 9635SOL     OW31536   7.941   4.444   1.118  0.0358  0.3363  0.2324
 9635SOL    HW131537   8.030   4.476   1.131  0.5436  0.7595 -3.2809
 9635SOL    HW231538   7.911   4.488   1.039 -3.6545  0.7881  1.6747
 9636SOL     OW31539   5.623   1.675   8.093  0.2143 -0.8885  0.0214
 9636SOL    HW131540   5.657   1.613   8.157 -0.1837 -1.5238 -0.3792
 9636SOL    HW231541   5.613   1.757   8.142  1.5064 -0.9092  0.3531
 9637SOL     OW31542   8.147   8.561   7.217  0.3573  0.0344  0.2375
 9637SOL    HW131543   8.060   8.546   7.179 -0.4247  1.5603  1.3455
 9637SOL    HW231544   8.207   8.545   7.144 -0.9003 -0.1576 -0.8028
 9638SOL     OW31545   7.549   4.438   9.253  0.4565 -0.5395 -0.2126
 9638SOL    HW131546   7.504   4.446   9.169  0.3798 -0.5426 -0.1717
 9638SOL    HW231547   7.506   4.364   9.296  0.6440 -0.6811 -0.2640
 9639SOL     OW31548   5.929   9.776   1.913  0.2616  0.2535 -0.1586
 9639SOL    HW131549   6.018   9.791   1.947 -0.0249  0.7845  0.3718
 9639SOL    HW231550   5.892   9.711   1.973  0.1924  0.2482 -0.2076
 9640SOL     OW31551   6.676   3.442   9.255  0.1138  0.2114  0.0646
 9640SOL    HW131552   6.600   3.391   9.284  1.2242 -1.0188  0.9815
 9640SOL    HW231553   6.649   3.533   9.264 -2.0829 -0.1562 -1.9842
 9641SOL     OW31554   8.920   4.072   2.330  0.3789  0.1127 -0.5112
 9641SOL    HW131555   8.962   4.068   2.416  1.7380 -0.2366 -1.1590
 9641SOL    HW231556   8.981   4.120   2.275 -0.0581 -0.4167 -1.4997
 9642SOL     OW31557   5.124   2.870   7.110 -0.0630 -0.3845 -0.1424
 9642SOL    HW131558   5.163   2.877   7.023  0.1126 -1.5551 -0.1793
 9642SOL    HW231559   5.162   2.789   7.146  1.9765  1.4203  2.1020
 9643SOL     OW31560   6.022   1.476   8.647  0.6719 -0.3012  0.3424
 9643SOL    HW131561   5.940   1.499   8.692 -0.6093 -1.3659 -1.3263
 9643SOL    HW231562   6.091   1.511   8.704 -0.8960  0.0057  2.1688
 9644SOL     OW31563   9.944   9.921   0.163 -0.3832 -0.7792  0.0598
 9644SOL    HW131564   9.885   9.853   0.131 -2.0819  0.3068  0.7624
 9644SOL    HW231565   9.916  10.000   0.118  0.7798 -0.2882  0.1633
 9645SOL     OW31566   6.240   3.251   2.220 -0.3776  0.4560 -0.2036
 9645SOL    HW131567   6.214   3.219   2.306  0.6329  0.5953  0.1647
 9645SOL    HW231568   6.267   3.342   2.235 -2.1371  1.1613 -1.0401
 9646SOL     OW31569   6.698   0.550  10.261  0.4133  0.1870 -0.4555
 9646SOL    HW131570   6.681   0.636  10.222 -1.0386  0.6211  1.0191
 9646SOL    HW231571   6.787   0.528  10.233  0.4177  1.6679 -1.7498
 9647SOL     OW31572   6.875   1.415   8.970  0.3476 -0.0618  0.0696
 9647SOL    HW131573   6.950   1.475   8.972  0.2883 -0.0065  0.9982
 9647SOL    HW231574   6.913   1.329   8.985  0.2529 -0.0645  0.2947
 9648SOL     OW31575   7.702  10.200   2.255  0.7867 -0.1797 -0.1943
 9648SOL    HW131576   7.608  10.183   2.249  0.9621 -0.7140 -1.9756
 9648SOL    HW231577   7.710  10.295   2.254  0.2407 -0.1095  0.8195
 9649SOL     OW31578   1.042  10.191   4.603 -0.0004  0.1190 -0.0417
 9649SOL    HW131579   1.009  10.267   4.652  0.4952 -0.2448  0.8729
 9649SOL    HW231580   1.007  10.203   4.515  1.0560  2.0786 -0.2500
 9650SOL     OW31581   8.676   2.123   1.259  0.6390 -0.5245  0.0720
 9650SOL    HW131582   8.591   2.158   1.232  0.2294 -0.0731  1.7776
 9650SOL    HW231583   8.718   2.096   1.178 -0.6403  0.3573 -0.9356
 9651SOL     OW31584   3.866   8.819   7.404  0.1967 -0.1830  0.3935
 9651SOL    HW131585   3.881   8.823   7.310 -2.1277 -1.1107 -0.0992
 9651SOL    HW231586   3.771   8.828   7.413  0.3830  0.1046  2.6792
 9652SOL     OW31587   3.490   0.329   9.086  0.0087  0.0517  0.3725
 9652SOL    HW131588   3.538   0.412   9.080  0.7200 -0.3720  0.0147
 9652SOL    HW231589   3.469   0.308   8.995  0.4226 -0.4916  0.3976
 9653SOL     OW31590   4.170   2.086   7.756 -0.4159 -0.2759  0.1931
 9653SOL    HW131591   4.235   2.122   7.816  0.2674 -0.9957 -0.0876
 9653SOL    HW231592   4.198   1.995   7.743 -1.3470 -0.5271 -0.1230
 9654SOL     OW31593   2.234   2.790   3.302  0.2419  0.4724  0.7427
 9654SOL    HW131594   2.142   2.811   3.286  0.1362  0.4464  1.2757
 9654SOL    HW231595   2.234   2.698   3.329  0.4786  0.3418  0.3032
 9655SOL     OW31596   4.031   6.341   0.148 -0.2621  0.1433 -0.5655
 9655SOL    HW131597   4.050   6.425   0.189 -0.0075 -0.4911  0.6927
 9655SOL    HW231598   3.939   6.347   0.120 -0.4722  0.5762  0.1989
 9656SOL     OW31599   1.602   5.860   0.714 -0.2891 -0.2524  0.2043
 9656SOL    HW131600   1.536   5.894   0.654  0.4302  1.3561  0.2729
 9656SOL    HW231601   1.668   5.929   0.719 -0.1473 -0.4683  2.5867
 9657SOL     OW31602   4.440   7.067   4.850  0.4365  0.0406  0.3083
 9657SOL    HW131603   4.428   7.001   4.782  0.8982  0.6638 -0.3992
 9657SOL    HW231604   4.478   7.020   4.924  1.8444 -0.2966 -0.5879
 9658SOL     OW31605   9.835   2.507   2.729 -0.4544  0.2163 -0.7558
 9658SOL    HW131606   9.798   2.591   2.758  0.0121  0.7832 -1.7480
 9658SOL    HW231607   9.928   2.526   2.713 -0.4185 -0.3984 -1.3229
 9659SOL     OW31608   0.387   4.424   2.635  0.4719 -0.2173 -0.3203
 9659SOL    HW131609   0.371   4.331   2.621  1.6289 -0.2755 -1.5294
 9659SOL    HW231610   0.482   4.430   2.648  0.3912  0.7694 -0.1377
 9660SOL     OW31611   6.626   2.203   1.091  0.3336  0.1968 -0.2654
 9660SOL    HW131612   6.672   2.224   1.009  0.2756 -0.5302 -0.4924
 9660SOL    HW231613   6.534   2.198   1.066  0.4555 -1.4192 -0.4616
 9661SOL     OW31614   7.828   1.051   6.954 -0.2026  0.7213  0.4786
 9661SOL    HW131615   7.769   0.992   6.908  1.5492 -0.2892 -0.5825
 9661SOL    HW231616   7.851   1.118   6.889  0.2270  0.8019  0.7097
 9662SOL     OW31617   9.875   2.116   7.941 -0.3221  0.0372 -0.8127
 9662SOL    HW131618   9.914   2.189   7.894 -1.3760  1.0652 -0.1397
 9662SOL    HW231619   9.924   2.039   7.912  0.6139  0.9682 -1.7479
 9663SOL     OW31620   7.739   3.214   5.779 -0.1488  0.2146 -0.2175
 9663SOL    HW131621   7.756   3.160   5.856  0.3105  0.5836 -0.0534
 9663SOL    HW231622   7.704   3.296   5.814  1.0040  0.7672 -0.3260
 9664SOL     OW31623   2.553   3.216   0.391 -0.1421  0.3621  0.0161
 9664SOL    HW131624   2.600   3.244   0.469 -0.0507 -2.0593  0.9274
 9664SOL    HW231625   2.494   3.288   0.371  0.4287  1.3861  1.8270
 9665SOL     OW31626   8.255   5.942   1.574 -0.8439  0.2667 -0.1511
 9665SOL    HW131627   8.341   5.912   1.604 -0.7681  1.2933  0.7102
 9665SOL    HW231628   8.240   6.023   1.623 -2.0249  0.4289 -0.7652
 9666SOL     OW31629   6.300   2.047   2.499 -0.0734 -0.2859 -0.4463
 9666SOL    HW131630   6.356   1.969   2.494 -1.5096 -1.2871 -2.4958
 9666SOL    HW231631   6.254   2.049   2.416  0.0949  2.9795 -0.6060
 9667SOL     OW31632   1.066   7.515   9.473 -0.3716  0.3318  0.2071
 9667SOL    HW131633   0.985   7.548   9.435 -0.6051  1.3047  1.4803
 9667SOL    HW231634   1.098   7.451   9.410 -1.4250  0.9142 -0.9526
 9668SOL     OW31635   2.709   8.059  10.035  0.3990 -0.2601  0.0204
 9668SOL    HW131636   2.658   8.010   9.970 -0.5578 -2.1145  2.0403
 9668SOL    HW231637   2.777   7.998  10.062  0.5107  0.3131  1.0676
 9669SOL     OW31638   8.237   1.073   0.113 -0.0628 -0.3774 -0.2949
 9669SOL    HW131639   8.275   0.985   0.106 -0.7740 -1.0681  2.9758
 9669SOL    HW231640   8.292   1.118   0.177 -0.8535  0.9111 -0.4782
 9670SOL     OW31641   1.385   1.503   6.979  0.0280  0.2976 -0.1386
 9670SOL    HW131642   1.318   1.454   6.932  1.5257 -2.5214  0.4594
 9670SOL    HW231643   1.353   1.508   7.069  0.8180 -1.6258  0.2953
 9671SOL     OW31644   5.989   8.477   8.015 -0.0053 -0.3039 -0.6844
 9671SOL    HW131645   5.951   8.390   8.010 -0.5161 -0.0332 -1.6424
 9671SOL    HW231646   5.954   8.514   8.096 -0.1519 -0.8168 -0.5125
 9672SOL     OW31647   1.889   3.426   3.359 -0.0429  0.3916  0.4400
 9672SOL    HW131648   1.872   3.510   3.400 -0.1621  0.5452  0.0778
 9672SOL    HW231649   1.943   3.447   3.283 -1.7523  0.3716 -0.8171
 9673SOL     OW31650   1.932   3.684   2.436  0.0496  0.2610 -0.3978
 9673SOL    HW131651   2.003   3.620   2.432 -1.0825 -1.0368 -0.9785
 9673SOL    HW231652   1.899   3.679   2.526 -0.9451 -1.0811 -0.7972
 9674SOL     OW31653   9.118   3.273   6.032 -0.2967 -0.3888 -1.1631
 9674SOL    HW131654   9.157   3.224   5.959  1.2083  0.0356 -0.6830
 9674SOL    HW231655   9.127   3.365   6.008  0.6512 -0.2255 -0.2568
 9675SOL     OW31656   5.499   2.838   5.546  0.1268  0.6045 -0.7166
 9675SOL    HW131657   5.481   2.928   5.516 -0.1228  1.1463  0.9193
 9675SOL    HW231658   5.520   2.848   5.639 -1.8782 -1.2150  0.0372
 9676SOL     OW31659   9.810   8.979   4.745 -0.0676 -0.2964 -0.4343
 9676SOL    HW131660   9.857   8.958   4.664  0.3139  1.1860 -0.6248
 9676SOL    HW231661   9.735   9.031   4.716 -0.5724 -0.7275  0.0766
 9677SOL     OW31662   6.077   7.041   4.739 -0.3551  0.5318 -0.0996
 9677SOL    HW131663   6.128   7.049   4.820 -0.7061  0.0719  0.1677
 9677SOL    HW231664   5.995   7.001   4.766 -0.1359 -0.4374 -0.8222
 9678SOL     OW31665   9.520   9.315   4.380  0.2355 -0.1262  0.7058
 9678SOL    HW131666   9.429   9.313   4.349 -0.0462  1.2880  1.3430
 9678SOL    HW231667   9.517   9.371   4.458  1.2724 -1.9120  2.0869
 9679SOL     OW31668   8.774   7.974   2.052 -0.1889  0.2859  0.1651
 9679SOL    HW131669   8.702   8.008   2.105 -0.4902 -0.6355  0.3610
 9679SOL    HW231670   8.839   8.044   2.052 -0.4543  0.5473  1.2236
 9680SOL     OW31671   9.400   9.748   0.111  0.0908  0.0642 -0.2983
 9680SOL    HW131672   9.438   9.818   0.058  2.0392 -0.2141  0.6133
 9680SOL    HW231673   9.473   9.717   0.165 -1.8703  0.7138  3.0067
 9681SOL     OW31674   8.250   7.752   2.349 -0.5983  0.1052 -0.3666
 9681SOL    HW131675   8.328   7.713   2.389 -1.2045 -1.7188 -0.8342
 9681SOL    HW231676   8.277   7.772   2.259 -0.5270 -0.0983 -0.3923
 9682SOL     OW31677   6.934   3.901  10.219  0.7343 -0.2767 -0.1690
 9682SOL    HW131678   6.985   3.820  10.213  1.0466  0.0184 -2.8777
 9682SOL    HW231679   6.921   3.928  10.128 -2.1632  1.0070  0.5047
 9683SOL     OW31680   4.368   8.962   3.350  0.1683 -0.2196  0.0455
 9683SOL    HW131681   4.282   8.929   3.377  0.2535  0.3514  1.0983
 9683SOL    HW231682   4.429   8.921   3.411  0.3870  1.0408  0.7146
 9684SOL     OW31683   9.682   3.873   5.184 -0.3639 -0.0486  0.5481
 9684SOL    HW131684   9.740   3.860   5.109  0.5375 -0.4635  1.2996
 9684SOL    HW231685   9.707   3.959   5.219  0.6839 -0.7318  1.5897
 9685SOL     OW31686   4.462  10.336  10.063  0.1017  0.0267  0.5766
 9685SOL    HW131687   4.455  10.261  10.004 -0.2751 -0.9207  1.7851
 9685SOL    HW231688   4.383  10.387  10.046 -1.5977 -1.8528  2.3585
 9686SOL     OW31689   5.444   8.650   8.794  0.5789 -0.3095  0.8503
 9686SOL    HW131690   5.416   8.574   8.743 -0.0759 -0.2689  1.1354
 9686SOL    HW231691   5.481   8.613   8.874 -0.0757 -0.3290  1.1535
 9687SOL     OW31692   0.141   6.155   7.178  0.4281  0.4731 -0.3679
 9687SOL    HW131693   0.054   6.130   7.145  0.6721  1.9148 -2.2839
 9687SOL    HW231694   0.200   6.089   7.142  0.0597 -1.3680  2.1159
 9688SOL     OW31695   3.648   8.278   6.681  0.2866 -0.3639 -0.4889
 9688SOL    HW131696   3.697   8.354   6.653 -1.0007  0.0149 -1.8380
 9688SOL    HW231697   3.674   8.265   6.773  1.8625  0.5800 -0.7653
 9689SOL     OW31698   4.424   6.805   6.647  0.2166  0.5564  0.2501
 9689SOL    HW131699   4.454   6.860   6.575  1.1503  1.6724  1.4411
 9689SOL    HW231700   4.379   6.732   6.605 -0.1187  1.6803 -1.4057
 9690SOL     OW31701   1.684   4.360   5.733  0.0645 -0.2330  0.0835
 9690SOL    HW131702   1.662   4.277   5.693 -0.5035 -0.8472  1.5861
 9690SOL    HW231703   1.604   4.389   5.777 -0.0299  1.5938 -1.1682
 9691SOL     OW31704   2.030   4.468   8.366  0.0954 -0.0599  0.0466
 9691SOL    HW131705   2.117   4.487   8.399 -0.4280  1.0396  0.8283
 9691SOL    HW231706   2.000   4.394   8.419 -0.0895  0.6310  0.9251
 9692SOL     OW31707   0.727   7.947   7.935 -0.1175 -0.6435 -0.2263
 9692SOL    HW131708   0.694   7.868   7.979 -0.0251 -0.7191 -0.2924
 9692SOL    HW231709   0.684   8.019   7.980 -2.0339 -0.8022 -1.6338
 9693SOL     OW31710   7.996   6.595   7.300  0.0564 -0.5308  0.3557
 9693SOL    HW131711   7.934   6.591   7.227 -0.0385  0.3878  0.3797
 9693SOL    HW231712   7.952   6.649   7.366  0.7082 -0.2289  0.5479
 9694SOL     OW31713   7.798   2.210   2.063  0.4707 -0.1790 -0.1907
 9694SOL    HW131714   7.877   2.225   2.012  0.3406  3.0713  0.3769
 9694SOL    HW231715   7.726   2.229   2.003  0.0662 -2.2344 -0.4399
 9695SOL     OW31716   2.046   7.319   8.214 -0.1732 -0.4512 -0.3581
 9695SOL    HW131717   2.011   7.246   8.265 -0.3532  0.7158  1.2797
 9695SOL    HW231718   1.984   7.390   8.228  2.7483  1.7955  2.8760
 9696SOL     OW31719   7.172   0.867   1.609 -0.5935 -0.2778  0.1578
 9696SOL    HW131720   7.231   0.939   1.591  0.2733 -1.0111 -0.0127
 9696SOL    HW231721   7.102   0.877   1.545 -0.0679 -0.0450 -0.3936
 9697SOL     OW31722   9.164   0.259   2.456 -0.2881 -0.6258  0.3329
 9697SOL    HW131723   9.166   0.312   2.536 -0.8968  1.8195 -1.1401
 9697SOL    HW231724   9.255   0.259   2.425 -0.5020  0.9815 -0.4384
 9698SOL     OW31725   6.283   6.150   6.135  0.1137  0.1628 -0.4890
 9698SOL    HW131726   6.188   6.159   6.122  0.0506  2.0496  0.8146
 9698SOL    HW231727   6.303   6.061   6.106 -2.1167 -0.3993 -0.4936
 9699SOL     OW31728   4.867   7.369   3.675 -0.3417  0.1219  0.1578
 9699SOL    HW131729   4.954   7.386   3.639 -0.0235 -1.4425  0.1029
 9699SOL    HW231730   4.842   7.451   3.717  1.1357  0.6201  0.1281
 9700SOL     OW31731   7.399   1.297   0.311 -0.3586 -0.4231 -0.3831
 9700SOL    HW131732   7.353   1.372   0.273 -0.2889 -1.5895 -2.9023
 9700SOL    HW231733   7.491   1.316   0.298 -0.3163 -0.6653 -0.4338
 9701SOL     OW31734   5.728   3.675   4.787  1.2881 -0.5963 -0.5252
 9701SOL    HW131735   5.762   3.760   4.815  1.5408 -0.7452 -0.3772
 9701SOL    HW231736   5.634   3.689   4.776  1.0934 -0.6368  0.8552
 9702SOL     OW31737   4.952   6.925   3.016 -0.1621 -0.4385  0.5904
 9702SOL    HW131738   4.887   6.878   3.068  0.6211 -1.9604  0.2430
 9702SOL    HW231739   4.920   7.016   3.014 -1.9159 -1.0134  0.9658
 9703SOL     OW31740   4.602   9.249   8.255 -0.5511  0.1862  0.2079
 9703SOL    HW131741   4.607   9.298   8.173  1.3955 -0.0698  0.1082
 9703SOL    HW231742   4.529   9.188   8.242 -0.0520 -0.1183 -1.5224
 9704SOL     OW31743   1.364   4.717  10.300 -0.0278  0.5681 -0.0970
 9704SOL    HW131744   1.301   4.755  10.361 -0.7904 -0.3266 -0.2926
 9704SOL    HW231745   1.329   4.738  10.213 -0.5295 -0.6413 -0.2069
 9705SOL     OW31746   6.227   2.750   4.870 -0.0074  0.8190  0.5027
 9705SOL    HW131747   6.173   2.805   4.928 -0.5369  0.7043  0.1236
 9705SOL    HW231748   6.275   2.812   4.815 -2.0081  0.9319 -1.2255
 9706SOL     OW31749   5.124   2.029  10.140  0.1222  0.2828 -0.2015
 9706SOL    HW131750   5.054   2.016  10.076 -2.0504 -0.0474  2.0994
 9706SOL    HW231751   5.129   2.124  10.150 -2.0174  0.2966  1.5658
 9707SOL     OW31752   4.160   5.233   4.922  0.0879 -0.0048  0.0606
 9707SOL    HW131753   4.131   5.246   5.012 -0.4044  0.1290 -0.1150
 9707SOL    HW231754   4.107   5.159   4.891 -1.5987  1.5574 -0.9372
 9708SOL     OW31755   3.823   0.830   8.446  0.1889 -0.3875  0.2863
 9708SOL    HW131756   3.875   0.883   8.506 -0.2994  0.9356 -0.4041
 9708SOL    HW231757   3.738   0.874   8.443  0.4043  0.0048 -1.8584
 9709SOL     OW31758   6.171   7.474   4.729  0.0212 -0.5239 -0.0112
 9709SOL    HW131759   6.081   7.492   4.757  0.2226 -0.0308  0.3354
 9709SOL    HW231760   6.206   7.418   4.798 -0.1505 -1.0706 -0.3624
 9710SOL     OW31761   6.431   1.626   1.747 -0.3164  0.1353 -0.5187
 9710SOL    HW131762   6.378   1.547   1.741 -1.0994  0.3345  2.5067
 9710SOL    HW231763   6.368   1.698   1.741 -0.1333  0.4167  0.7219
 9711SOL     OW31764   4.758   6.750   5.071  0.6965  0.0213  0.9450
 9711SOL    HW131765   4.776   6.769   5.163 -0.5704  0.3168  1.1583
 9711SOL    HW231766   4.721   6.662   5.072 -0.2983  0.4171  0.8752
 9712SOL     OW31767   4.513   2.804   8.994  0.5227  0.1147  0.2527
 9712SOL    HW131768   4.462   2.884   8.982  0.0962 -0.2619 -0.4715
 9712SOL    HW231769   4.558   2.791   8.911  0.0924 -0.7440  0.1466
 9713SOL     OW31770   2.072   4.096   3.707 -0.0560  0.0581 -0.4742
 9713SOL    HW131771   2.139   4.030   3.724  0.2547  0.5783  0.3789
 9713SOL    HW231772   2.117   4.162   3.654  0.5508  1.1073  1.2673
 9714SOL     OW31773   3.970   2.512   8.056 -0.4289  0.6043  0.4687
 9714SOL    HW131774   3.992   2.449   7.988 -0.9037  0.7082  0.2108
 9714SOL    HW231775   4.041   2.577   8.053  1.4590 -1.1961  2.4327
 9715SOL     OW31776   0.559   9.841   1.226 -0.2486 -0.2878  0.0989
 9715SOL    HW131777   0.492   9.871   1.288 -1.1618  1.8994 -1.7825
 9715SOL    HW231778   0.515   9.844   1.141  1.9302  0.1784 -1.0803
 9716SOL     OW31779   6.747   8.057   3.136 -0.5251  0.4788  0.5253
 9716SOL    HW131780   6.743   8.026   3.046  1.6030  0.8579  0.2670
 9716SOL    HW231781   6.788   8.143   3.131 -0.7654  0.6967  1.8236
 9717SOL     OW31782   0.956   4.996  10.065 -0.1549 -0.0508 -0.0564
 9717SOL    HW131783   1.034   5.021  10.016  0.2911  0.5829  0.9460
 9717SOL    HW231784   0.982   5.002  10.157 -1.2713 -0.2198  0.2899
 9718SOL     OW31785   9.433   8.596   4.698 -0.4180  0.4325 -0.2913
 9718SOL    HW131786   9.386   8.513   4.700 -0.2285  0.3053  2.2923
 9718SOL    HW231787   9.510   8.579   4.643 -0.2576 -1.1940  0.3924
 9719SOL     OW31788   1.249   9.012   3.688  0.6771  0.4973  0.3843
 9719SOL    HW131789   1.214   8.928   3.718 -0.1197  0.4985 -0.4715
 9719SOL    HW231790   1.321   8.988   3.630 -0.4392  0.3118 -0.9878
 9720SOL     OW31791   2.058   3.989   1.090  0.2610  0.2339  0.5584
 9720SOL    HW131792   2.011   3.905   1.086  3.8477 -1.9936  0.8165
 9720SOL    HW231793   2.053   4.023   1.001  0.1963 -1.1419  0.0103
 9721SOL     OW31794   1.418   1.697   4.266  0.0675 -0.1582 -0.2606
 9721SOL    HW131795   1.495   1.752   4.258 -0.2952  0.2662 -0.9525
 9721SOL    HW231796   1.346   1.757   4.287 -0.2148 -0.4485 -0.3725
 9722SOL     OW31797   9.664   3.668   9.403  0.0025  0.3132  0.3751
 9722SOL    HW131798   9.626   3.756   9.404 -0.0618  0.3032 -0.4808
 9722SOL    HW231799   9.606   3.618   9.345  0.1766 -0.2349  0.6647
 9723SOL     OW31800   4.839   2.626   6.464  0.0202 -0.4278  0.8755
 9723SOL    HW131801   4.769   2.561   6.463  1.0472 -1.5768 -0.8375
 9723SOL    HW231802   4.910   2.587   6.413  1.8196  0.8136  2.2671
 9724SOL     OW31803   1.722   1.785   8.825  0.0390 -0.1258 -0.6900
 9724SOL    HW131804   1.715   1.703   8.874 -0.2350  1.0195  1.2875
 9724SOL    HW231805   1.809   1.818   8.845 -0.4927  0.9198  0.0404
 9725SOL     OW31806   8.247   1.303   6.614 -0.0350  0.0079  0.2119
 9725SOL    HW131807   8.275   1.273   6.701  0.7253  1.4966  0.5055
 9725SOL    HW231808   8.281   1.392   6.607 -0.0659 -0.0925 -1.6389
 9726SOL     OW31809   8.807   7.706   9.289 -0.2095  0.1535 -0.0208
 9726SOL    HW131810   8.792   7.651   9.366  0.0283 -0.3877 -0.3525
 9726SOL    HW231811   8.899   7.732   9.295 -0.1964  0.1281 -0.1060
 9727SOL     OW31812   0.612   4.502   8.252 -0.1910  0.0488  0.0845
 9727SOL    HW131813   0.653   4.556   8.318 -0.1266  1.7851 -1.3163
 9727SOL    HW231814   0.606   4.415   8.292  1.8776  0.5066  1.4970
 9728SOL     OW31815   5.538   9.891   7.983  0.3116 -0.0634  0.4725
 9728SOL    HW131816   5.573   9.828   8.046  0.6017 -1.6394 -1.1798
 9728SOL    HW231817   5.615   9.935   7.947  0.1106  1.3100  1.6229
 9729SOL     OW31818   1.136   5.837   4.200 -0.3186 -0.1031 -0.2266
 9729SOL    HW131819   1.193   5.889   4.256  2.4003 -0.5110 -2.4134
 9729SOL    HW231820   1.180   5.752   4.194 -2.7224 -1.4774  0.2811
 9730SOL     OW31821   2.104   3.548   6.962 -0.2235 -0.0864 -0.9738
 9730SOL    HW131822   2.045   3.612   6.923  0.0986 -0.4689 -2.1370
 9730SOL    HW231823   2.069   3.532   7.050 -1.1787  0.5422 -1.2330
 9731SOL     OW31824   2.017   5.839   6.860  0.4715  0.7684  0.5987
 9731SOL    HW131825   2.079   5.872   6.926  0.0338  1.7784  0.5304
 9731SOL    HW231826   1.991   5.753   6.893  1.3011  0.6719  1.0361
 9732SOL     OW31827   8.813   4.448   6.331 -0.2028 -0.5566 -0.1242
 9732SOL    HW131828   8.834   4.440   6.238  1.7712 -0.8193  0.2904
 9732SOL    HW231829   8.852   4.370   6.371  0.2063  0.2449  1.0964
 9733SOL     OW31830   7.014   4.212   8.525 -0.7360  0.1552  0.8427
 9733SOL    HW131831   6.925   4.185   8.502 -0.3003 -0.3090 -0.3964
 9733SOL    HW231832   7.066   4.132   8.517 -0.3356  0.2200  2.4191
 9734SOL     OW31833   3.688   4.859   3.568  0.2266  0.1695  0.2621
 9734SOL    HW131834   3.746   4.819   3.504  1.4117  3.4071 -0.9096
 9734SOL    HW231835   3.720   4.828   3.653  2.0645 -0.1035 -0.4968
 9735SOL     OW31836   8.036   5.336   9.580  0.2735  0.4147  0.2122
 9735SOL    HW131837   8.095   5.297   9.646  0.2556  1.0736  0.6257
 9735SOL    HW231838   7.985   5.401   9.629 -0.2934  0.3582 -0.2950
 9736SOL     OW31839   6.416   8.558   0.844 -0.0618  0.4779 -0.4447
 9736SOL    HW131840   6.424   8.654   0.842  0.2554  0.5028  0.9480
 9736SOL    HW231841   6.493   8.527   0.797  0.6704  0.9125  0.4161
 9737SOL     OW31842   6.314   0.047   4.098 -0.2857 -0.3870 -0.1307
 9737SOL    HW131843   6.356   0.084   4.020 -0.2296  1.0048  0.5259
 9737SOL    HW231844   6.324  -0.047   4.088  2.2855 -0.1650 -0.4162
 9738SOL     OW31845   7.172   6.937   3.333  0.1368  0.5475 -0.3476
 9738SOL    HW131846   7.233   7.007   3.308  0.1838 -0.2957 -2.9378
 9738SOL    HW231847   7.088   6.980   3.343  0.5733  1.2795  0.2406
 9739SOL     OW31848   5.948   7.134   3.683 -0.0382 -0.3508  0.4805
 9739SOL    HW131849   5.974   7.088   3.763 -0.4797 -1.4817 -0.0087
 9739SOL    HW231850   5.899   7.210   3.714  0.6781 -0.2174  1.3075
 9740SOL     OW31851   7.143   3.731   3.798 -0.0039 -0.5898  0.2859
 9740SOL    HW131852   7.196   3.730   3.879  0.6557  0.5610 -0.1146
 9740SOL    HW231853   7.194   3.679   3.736  1.4530  1.7128 -0.5487
 9741SOL     OW31854   8.970   3.473   5.878  0.1882 -0.4832 -0.0162
 9741SOL    HW131855   9.047   3.527   5.900  1.2716 -2.1920  0.6109
 9741SOL    HW231856   8.948   3.429   5.960 -3.4563  2.2036  0.6936
 9742SOL     OW31857   9.574   3.125   1.000 -0.1791 -0.4080 -0.1241
 9742SOL    HW131858   9.660   3.159   1.021 -0.0407 -1.0144  0.3326
 9742SOL    HW231859   9.590   3.059   0.932 -0.6463  1.6999 -2.4213
 9743SOL     OW31860   1.147   0.550   1.902  0.5199  0.1059  0.0419
 9743SOL    HW131861   1.222   0.569   1.846 -0.1116 -3.0741 -2.1480
 9743SOL    HW231862   1.159   0.459   1.929 -1.7037  0.0280  1.0059
 9744SOL     OW31863   6.413   0.312   5.718 -0.1913  0.1648  0.0807
 9744SOL    HW131864   6.330   0.265   5.731 -0.1111  0.1797  0.6946
 9744SOL    HW231865   6.389   0.391   5.671 -0.7634  0.8883  1.5203
 9745SOL     OW31866   5.806   2.958   3.699 -0.1361  0.4862 -0.5299
 9745SOL    HW131867   5.890   2.953   3.652 -0.0292  1.4208 -0.4459
 9745SOL    HW231868   5.759   2.879   3.671  0.4375  0.3779 -1.2256
 9746SOL     OW31869   8.723   4.634   1.156  0.1449  0.2120  0.0805
 9746SOL    HW131870   8.773   4.562   1.193  1.2535  0.8131 -0.1872
 9746SOL    HW231871   8.706   4.608   1.066 -0.7942 -0.3704  0.4164
 9747SOL     OW31872   3.698   7.899   8.029 -0.5583  0.2881 -0.0584
 9747SOL    HW131873   3.692   7.985   7.988  3.5505  0.0882 -1.5664
 9747SOL    HW231874   3.684   7.836   7.957  1.9794 -0.1133 -0.3036
 9748SOL     OW31875   6.190   8.894   0.150  0.1116  0.7456  0.2699
 9748SOL    HW131876   6.185   8.807   0.109  0.5820 -0.0012  1.7419
 9748SOL    HW231877   6.284   8.910   0.160  0.0043  0.3959  2.0770
 9749SOL     OW31878   4.116   1.232   5.779 -0.5927  0.7549 -0.2370
 9749SOL    HW131879   4.046   1.195   5.833 -1.2052  1.1716 -0.7335
 9749SOL    HW231880   4.185   1.253   5.841 -0.7748  0.0485  0.2265
 9750SOL     OW31881   1.940   8.294   3.283  0.0481  0.5625  0.3473
 9750SOL    HW131882   1.873   8.362   3.290  0.3664  0.9577 -0.3121
 9750SOL    HW231883   1.911   8.225   3.342 -1.1655  0.5398 -0.2531
 9751SOL     OW31884   3.716   3.811   5.549 -0.6536 -0.2345 -0.1303
 9751SOL    HW131885   3.753   3.890   5.589  0.4419 -0.4654 -0.6512
 9751SOL    HW231886   3.760   3.805   5.464 -1.2408 -1.0278 -0.3801
 9752SOL     OW31887   5.827   6.030   2.236 -1.1753  0.1069  0.1782
 9752SOL    HW131888   5.789   6.116   2.221  0.6154  1.0020  0.5473
 9752SOL    HW231889   5.858   6.032   2.327  2.9483  0.8284 -1.0352
 9753SOL     OW31890   7.506   2.214   2.694 -0.3203 -0.3721 -0.2611
 9753SOL    HW131891   7.559   2.216   2.774  0.0360 -0.2816 -0.4951
 9753SOL    HW231892   7.560   2.167   2.631 -1.5308 -2.5347  0.1939
 9754SOL     OW31893   1.987   2.993   8.906  0.0174 -0.2650 -0.1521
 9754SOL    HW131894   2.009   2.900   8.914  1.1491 -0.1855 -1.7595
 9754SOL    HW231895   2.046   3.026   8.838  0.3200  1.8721  1.0445
 9755SOL     OW31896   1.088   2.850   0.590 -0.1755 -0.1622 -0.4709
 9755SOL    HW131897   1.171   2.832   0.635 -0.2322  0.0513 -0.2793
 9755SOL    HW231898   1.103   2.821   0.500  1.0014  2.2140 -1.1461
 9756SOL     OW31899   6.295   1.937   7.156 -0.5254  0.6209  0.6986
 9756SOL    HW131900   6.267   1.976   7.238 -0.0708  0.7648  0.7872
 9756SOL    HW231901   6.287   1.842   7.170 -0.7263  0.6538  0.8074
 9757SOL     OW31902   7.521   7.450   3.668  0.2325  0.2153  0.6043
 9757SOL    HW131903   7.470   7.465   3.747 -0.0562 -0.6591  0.5963
 9757SOL    HW231904   7.455   7.442   3.598  0.1748 -2.6944  0.8572
 9758SOL     OW31905   5.200   7.255   3.362 -0.3848  0.0333 -0.7003
 9758SOL    HW131906   5.217   7.173   3.407  0.7031  0.1391 -0.8946
 9758SOL    HW231907   5.208   7.234   3.269 -1.5795  0.0469 -0.8249
 9759SOL     OW31908   2.811   5.162   8.221 -0.3994  0.1147  0.1850
 9759SOL    HW131909   2.841   5.078   8.255 -0.1001 -0.0622 -0.4967
 9759SOL    HW231910   2.787   5.212   8.299 -3.0293 -1.4850  0.5164
 9760SOL     OW31911   7.105   6.625   8.681 -0.3209  0.0541 -0.3288
 9760SOL    HW131912   7.117   6.531   8.695 -0.6958 -0.2266 -1.6967
 9760SOL    HW231913   7.147   6.642   8.597  0.1346  1.2099  0.1210
 9761SOL     OW31914   3.265   9.586   6.707  0.2259 -0.3266 -0.5103
 9761SOL    HW131915   3.333   9.636   6.661 -1.6496  1.4142 -1.5421
 9761SOL    HW231916   3.266   9.500   6.666  1.7205 -0.3082 -0.5630
 9762SOL     OW31917   7.376   9.198   6.592  0.6736  0.0573 -0.0128
 9762SOL    HW131918   7.288   9.237   6.592  0.9091  0.5949 -0.0364
 9762SOL    HW231919   7.429   9.258   6.539  0.5586 -1.4230 -1.9238
 9763SOL     OW31920   2.789   0.777   6.247 -0.1978  0.1523  0.1546
 9763SOL    HW131921   2.802   0.868   6.217  0.0549  0.2726  0.6241
 9763SOL    HW231922   2.798   0.725   6.167  0.1942  0.4968 -0.0307
 9764SOL     OW31923   9.927   5.160   1.226 -0.3553  0.0855 -0.6542
 9764SOL    HW131924   9.891   5.086   1.274 -0.4380 -0.2491 -1.2145
 9764SOL    HW231925   9.904   5.237   1.278 -0.4684 -0.2671 -0.1843
 9765SOL     OW31926   9.460   6.025   4.203 -0.3256  0.1593 -0.2159
 9765SOL    HW131927   9.479   6.117   4.224  0.2220 -0.0045  0.0343
 9765SOL    HW231928   9.534   5.977   4.240 -1.2333 -0.5084  0.7815
 9766SOL     OW31929   7.051   3.369   7.778 -0.1725  0.2665  0.2181
 9766SOL    HW131930   7.063   3.407   7.691 -1.2024  1.4158  0.5424
 9766SOL    HW231931   7.071   3.441   7.838 -2.0462  0.3229  0.8610
 9767SOL     OW31932   4.028   0.944   6.888  0.2571  0.1687 -0.1507
 9767SOL    HW131933   4.016   0.912   6.799 -0.6456  0.3150 -0.0888
 9767SOL    HW231934   4.047   0.865   6.939  0.1677  0.0061 -0.3691
 9768SOL     OW31935   1.522  10.065   0.282 -0.5370  0.0537 -0.4025
 9768SOL    HW131936   1.610  10.100   0.294 -0.3808  0.1690 -1.7334
 9768SOL    HW231937   1.510  10.003   0.354 -0.3935  1.9793  1.3717
 9769SOL     OW31938   2.298   0.375   7.416 -0.6497 -0.0235 -0.0260
 9769SOL    HW131939   2.264   0.427   7.490 -1.1940 -0.4152  0.0068
 9769SOL    HW231940   2.369   0.428   7.380 -0.0619 -0.0457  1.0738
 9770SOL     OW31941   7.120   0.780   6.660 -0.4027  0.1353  0.7144
 9770SOL    HW131942   7.134   0.845   6.728 -0.3374  0.2896  0.5519
 9770SOL    HW231943   7.055   0.820   6.602 -1.1706 -0.3738  1.1976
 9771SOL     OW31944   6.617   7.409   2.086  0.0334 -0.2263 -0.1300
 9771SOL    HW131945   6.684   7.460   2.131 -0.2345 -0.7525  0.8935
 9771SOL    HW231946   6.638   7.419   1.993  0.3837  1.1654  0.0796
 9772SOL     OW31947   7.601   6.042   5.312  0.2878  0.0996  0.4245
 9772SOL    HW131948   7.624   6.075   5.225  2.9796 -0.8888  0.6616
 9772SOL    HW231949   7.676   5.989   5.338 -0.8622 -0.4267  2.9776
 9773SOL     OW31950   3.673   4.221   2.527 -0.0550 -0.2939 -0.3341
 9773SOL    HW131951   3.645   4.182   2.610  1.1201 -3.7384 -1.4150
 9773SOL    HW231952   3.607   4.192   2.463  0.6046 -0.0935 -1.1142
 9774SOL     OW31953   7.491   7.913   2.233 -0.6552  0.0805 -0.1934
 9774SOL    HW131954   7.570   7.860   2.243  0.5486  1.1190 -3.0222
 9774SOL    HW231955   7.419   7.851   2.237  0.5457 -1.4363 -1.0182
 9775SOL     OW31956   8.460   5.421   8.047  0.5408  0.6869 -0.0604
 9775SOL    HW131957   8.484   5.441   8.138 -1.1508  1.7993  0.1942
 9775SOL    HW231958   8.539   5.382   8.010  1.4781  0.7590  1.7130
 9776SOL     OW31959   8.352   5.815   0.854 -0.4298  0.4627 -0.0833
 9776SOL    HW131960   8.427   5.870   0.875  0.5706 -1.0814  0.4983
 9776SOL    HW231961   8.322   5.781   0.938 -0.9029 -0.0419 -0.4453
 9777SOL     OW31962   1.167   7.113   6.329  0.6328  0.1867 -0.8709
 9777SOL    HW131963   1.075   7.123   6.305  0.2252  0.4324  0.6765
 9777SOL    HW231964   1.168   7.041   6.392  1.1610  1.5631  0.7793
 9778SOL     OW31965   9.865   4.921   8.778 -0.2434  0.3261  0.0261
 9778SOL    HW131966   9.797   4.974   8.820 -0.2543  1.5856 -1.5217
 9778SOL    HW231967   9.930   4.907   8.847 -2.0281 -0.9241  1.5549
 9779SOL     OW31968   4.002   4.107  10.104 -0.4895 -0.1073  0.1195
 9779SOL    HW131969   4.068   4.107  10.034 -2.0822 -1.7638 -1.4867
 9779SOL    HW231970   3.934   4.167  10.072 -0.9805 -0.4497  0.5053
 9780SOL     OW31971   9.578   7.051   1.881 -0.5234  0.0673 -0.1661
 9780SOL    HW131972   9.556   6.980   1.940  1.8437 -0.0779  0.6167
 9780SOL    HW231973   9.663   7.028   1.845 -0.5383  1.6221 -1.3192
 9781SOL     OW31974   9.766   3.727   7.987 -0.6842 -0.0692 -0.0928
 9781SOL    HW131975   9.735   3.639   8.009 -0.5882 -0.5757 -1.8496
 9781SOL    HW231976   9.846   3.713   7.937 -1.2093  0.9695 -1.2764
 9782SOL     OW31977   8.858  10.203   0.694  0.0088  0.5402  0.2022
 9782SOL    HW131978   8.871  10.196   0.600  1.4813  1.0094  0.3404
 9782SOL    HW231979   8.936  10.162   0.732 -0.4175  0.6288  1.2198
 9783SOL     OW31980   0.570   1.614   4.633  0.6139 -0.4068  0.0531
 9783SOL    HW131981   0.477   1.622   4.651  0.4743 -0.1875 -0.7219
 9783SOL    HW231982   0.604   1.703   4.641  0.7438 -0.4731  0.2534
 9784SOL     OW31983  10.140   8.011   2.856 -0.1728 -0.2487 -0.1058
 9784SOL    HW131984  10.225   7.974   2.833 -0.4252  0.4551 -2.3509
 9784SOL    HW231985  10.141   8.099   2.819 -1.0167  0.6737  1.8723
 9785SOL     OW31986   4.959   2.995   6.244  0.3169 -0.1285 -0.3345
 9785SOL    HW131987   5.020   2.993   6.170 -0.3215 -1.5664 -0.8715
 9785SOL    HW231988   4.919   3.082   6.240  0.2559 -0.1938 -1.7365
 9786SOL     OW31989   0.679   9.753   5.945  0.3034 -0.3151  0.1958
 9786SOL    HW131990   0.713   9.842   5.943 -3.4500  1.3296 -1.3563
 9786SOL    HW231991   0.642   9.742   6.033 -2.3403  1.1869 -0.6136
 9787SOL     OW31992   0.524   6.797   6.687  0.0795  0.1547 -0.0668
 9787SOL    HW131993   0.578   6.795   6.766 -0.1083  0.6696  0.0783
 9787SOL    HW231994   0.447   6.849   6.711  0.9705  2.0734 -1.1707
 9788SOL     OW31995   6.791   8.148   2.163 -0.4271  0.0455 -0.9208
 9788SOL    HW131996   6.829   8.206   2.097  0.1025  1.8441  0.8660
 9788SOL    HW231997   6.815   8.187   2.247  0.3693 -3.0522  0.4472
 9789SOL     OW31998   2.689   2.464   8.800 -0.2307 -0.5026  0.1312
 9789SOL    HW131999   2.663   2.504   8.716 -2.2084 -0.4916  0.6940
 9789SOL    HW232000   2.774   2.504   8.820  0.0492 -0.1265 -1.6147
 9790SOL     OW32001   8.166   4.213   5.141  0.8307  0.2424  0.3232
 9790SOL    HW132002   8.178   4.308   5.143  2.5168  0.0493  0.7457
 9790SOL    HW232003   8.139   4.194   5.052  2.4583  0.9444 -0.3616
 9791SOL     OW32004   8.496   6.406   9.898 -0.0103 -0.5077  0.5443
 9791SOL    HW132005   8.511   6.457   9.978 -1.1396  0.9486 -0.1201
 9791SOL    HW232006   8.584   6.389   9.864  0.4252  2.1352  0.1396
 9792SOL     OW32007   4.939   7.051   1.628 -0.0152  0.1418  0.0672
 9792SOL    HW132008   5.006   7.095   1.575 -0.3772  1.5103  0.7090
 9792SOL    HW232009   4.860   7.104   1.617 -0.6207 -0.6647  0.4280
 9793SOL     OW32010   2.633   5.115   4.097  0.3934  0.7483  0.0817
 9793SOL    HW132011   2.667   5.139   4.183  2.4132  0.8295 -0.6877
 9793SOL    HW232012   2.711   5.100   4.044 -0.7363 -2.5198 -0.8891
 9794SOL     OW32013   3.131   4.691   6.510  0.2411 -0.6261 -0.7682
 9794SOL    HW132014   3.061   4.731   6.561  0.5379 -0.4193 -0.5214
 9794SOL    HW232015   3.116   4.597   6.517 -0.3414 -0.5684 -1.1851
 9795SOL     OW32016   8.013   1.848   6.416 -0.4629  0.0615 -0.0806
 9795SOL    HW132017   8.017   1.842   6.511 -0.6846 -0.7205 -0.1121
 9795SOL    HW232018   7.932   1.896   6.398 -0.1230  0.7228  0.1339
 9796SOL     OW32019   3.053   9.559   2.958  0.0898  0.6046 -0.3599
 9796SOL    HW132020   3.086   9.643   2.990  0.6079 -0.5851  2.5115
 9796SOL    HW232021   3.088   9.494   3.019  1.0519 -1.9717 -3.3852
 9797SOL     OW32022   7.753  10.256   9.473  0.4490  0.2102  0.0531
 9797SOL    HW132023   7.778  10.201   9.548  1.7269  1.2133  0.3959
 9797SOL    HW232024   7.718  10.194   9.409  0.1413 -0.7749  1.1376
 9798SOL     OW32025   5.851   7.705   2.995  0.1159 -0.2344 -0.4577
 9798SOL    HW132026   5.760   7.731   3.000  0.0337 -0.2798 -1.4300
 9798SOL    HW232027   5.851   7.630   2.935  0.5059 -1.6858  1.2726
 9799SOL     OW32028   0.970   7.054   3.800 -0.4038 -0.5161 -0.1136
 9799SOL    HW132029   0.941   6.964   3.784 -1.7125  0.1993 -2.0987
 9799SOL    HW232030   1.011   7.081   3.719  0.4150  0.5540  0.6320
 9800SOL     OW32031   3.475   1.485   6.488 -0.0582 -0.7668 -0.3548
 9800SOL    HW132032   3.448   1.403   6.447 -1.8347  0.3467 -1.5419
 9800SOL    HW232033   3.436   1.482   6.576 -1.2799 -0.6349 -0.8752
 9801SOL     OW32034   7.254   3.897   3.206  0.5532  0.3228  0.3110
 9801SOL    HW132035   7.213   3.965   3.260 -1.7090 -0.4332 -0.3143
 9801SOL    HW232036   7.181   3.838   3.184  1.5532  0.0772 -2.7509
 9802SOL     OW32037   1.245   3.075   6.179 -0.3246 -0.5742 -0.3218
 9802SOL    HW132038   1.288   3.121   6.107  1.7151 -0.4403  0.9157
 9802SOL    HW232039   1.306   3.007   6.205 -1.2705 -0.9990  0.9143
 9803SOL     OW32040   0.613   5.457   4.608  0.0556  0.1934 -0.0080
 9803SOL    HW132041   0.699   5.436   4.570 -0.4206 -2.0943  0.0296
 9803SOL    HW232042   0.573   5.372   4.626 -0.5077  1.1214  4.0191
 9804SOL     OW32043   1.943   0.383   5.346 -0.5503  0.2234  1.2360
 9804SOL    HW132044   1.920   0.475   5.357  1.5299  1.0165 -0.4123
 9804SOL    HW232045   2.033   0.376   5.375  0.1772 -0.6974 -1.0197
 9805SOL     OW32046   4.668   6.976   8.173 -0.2159  0.5990  0.5297
 9805SOL    HW132047   4.576   6.969   8.147 -0.0134 -3.5453  0.2808
 9805SOL    HW232048   4.716   6.961   8.092  0.6720  0.8749  0.9998
 9806SOL     OW32049   3.415   9.617   8.893  0.1733 -0.1866 -0.0366
 9806SOL    HW132050   3.347   9.662   8.843  0.7497 -0.3255 -0.9545
 9806SOL    HW232051   3.388   9.526   8.894  0.2915 -0.2228 -0.2969
 9807SOL     OW32052   2.138   6.836   9.954 -0.0615 -0.3406  0.0829
 9807SOL    HW132053   2.155   6.903   9.888 -0.2594 -0.8251 -0.4742
 9807SOL    HW232054   2.197   6.857  10.026  1.5189 -0.8847 -1.0215
 9808SOL     OW32055   3.483   1.954   8.485 -0.2407 -0.2989  1.1109
 9808SOL    HW132056   3.394   1.977   8.457  0.1362  0.1231  0.2241
 9808SOL    HW232057   3.539   2.021   8.445  0.6781 -1.6286  0.0652
 9809SOL     OW32058   6.978   4.211   6.827  0.3181 -0.1214 -0.3981
 9809SOL    HW132059   6.943   4.228   6.915 -0.8881 -1.4405 -0.5854
 9809SOL    HW232060   6.947   4.286   6.775  2.1805  1.3864  0.5323
 9810SOL     OW32061   3.194   6.915   0.979  0.2137 -0.3078  0.7719
 9810SOL    HW132062   3.117   6.958   1.015  0.4437 -1.2039  2.4037
 9810SOL    HW232063   3.253   6.987   0.957 -1.4119  0.4567 -1.4435
 9811SOL     OW32064   1.891   7.286   5.193 -0.1007 -0.4623 -0.2311
 9811SOL    HW132065   1.964   7.343   5.215 -0.5873  0.2100 -0.3476
 9811SOL    HW232066   1.874   7.237   5.274 -1.4420  1.5144  0.7704
 9812SOL     OW32067   3.121   5.617   7.860 -0.1120 -0.5637 -0.3450
 9812SOL    HW132068   3.158   5.544   7.810  0.6158  0.0084 -0.6721
 9812SOL    HW232069   3.183   5.689   7.845  1.1041 -0.8150  2.7488
 9813SOL     OW32070   6.835   6.151   9.574 -0.3771 -0.4964  0.1675
 9813SOL    HW132071   6.915   6.179   9.619 -0.4196  0.1138 -0.1240
 9813SOL    HW232072   6.764   6.186   9.628 -0.4529 -1.3034  0.5920
 9814SOL     OW32073   0.481   4.030   5.485  0.1107 -0.1138 -0.0635
 9814SOL    HW132074   0.476   3.982   5.568 -2.3049  1.6912  0.9655
 9814SOL    HW232075   0.470   4.122   5.510 -1.1439  0.4497 -2.4133
 9815SOL     OW32076   4.976   7.821   7.585 -0.1386  0.4048 -0.1796
 9815SOL    HW132077   5.036   7.884   7.626  0.9922  0.1304 -1.3517
 9815SOL    HW232078   4.990   7.832   7.491 -1.1759 -0.4210 -0.4522
 9816SOL     OW32079   1.603   3.102   6.934 -0.4009 -0.6614  0.1037
 9816SOL    HW132080   1.674   3.049   6.971  1.2312  0.1421 -1.6644
 9816SOL    HW232081   1.600   3.180   6.989 -0.4123 -1.0179  0.6165
 9817SOL     OW32082   1.272   4.016   8.136 -0.0318  0.2298 -0.5048
 9817SOL    HW132083   1.306   3.931   8.164  0.3939 -0.1420 -2.0467
 9817SOL    HW232084   1.348   4.063   8.103 -0.5362  0.5597 -1.2239
 9818SOL     OW32085   0.717   0.543   8.495 -0.1700  0.0222  0.0387
 9818SOL    HW132086   0.781   0.606   8.528 -0.8768  0.8685 -0.1310
 9818SOL    HW232087   0.632   0.580   8.521 -0.7766  0.7143 -2.5830
 9819SOL     OW32088   4.805   8.561   6.825  0.4162 -1.2927  1.0592
 9819SOL    HW132089   4.886   8.608   6.847 -0.3978  0.3274  0.7156
 9819SOL    HW232090   4.766   8.540   6.910  0.0850 -0.0447  1.2376
 9820SOL     OW32091   9.549   5.989   2.617  0.1095 -0.1260 -0.0121
 9820SOL    HW132092   9.630   6.030   2.648  0.1808  1.5418 -2.1414
 9820SOL    HW232093   9.504   6.059   2.569 -1.9913 -1.3735  0.0307
 9821SOL     OW32094   3.270   2.792   9.087 -0.1658 -0.3800  0.4599
 9821SOL    HW132095   3.252   2.698   9.091  0.4558 -0.7456 -2.7889
 9821SOL    HW232096   3.187   2.831   9.058  0.1737 -0.2093 -0.2937
 9822SOL     OW32097   2.940   6.742   9.216  0.2434 -0.0037  0.3703
 9822SOL    HW132098   3.013   6.681   9.206  0.0970 -0.0373 -0.6341
 9822SOL    HW232099   2.867   6.700   9.170  0.0553  0.7851 -0.0732
 9823SOL     OW32100   2.561   9.551   2.275  0.2322  0.9057  0.5044
 9823SOL    HW132101   2.607   9.594   2.202 -0.8850  1.5362  0.1497
 9823SOL    HW232102   2.631   9.522   2.334  1.2419 -0.4834 -1.2561
 9824SOL     OW32103   9.577   2.497   5.483 -0.4130  0.3461 -0.4640
 9824SOL    HW132104   9.636   2.571   5.493 -1.3182  1.1452 -0.8950
 9824SOL    HW232105   9.503   2.517   5.539 -1.5949  0.7720 -2.0907
 9825SOL     OW32106   2.884   3.694   5.952 -0.3628  0.3165 -0.5358
 9825SOL    HW132107   2.969   3.692   5.996  0.2218  1.8332 -1.5417
 9825SOL    HW232108   2.892   3.629   5.882 -0.4126 -0.2792 -0.0019
 9826SOL     OW32109   6.710   4.775   3.607  0.0233  0.0499 -0.4477
 9826SOL    HW132110   6.662   4.816   3.535  0.8171  1.0255 -0.4391
 9826SOL    HW232111   6.797   4.756   3.569 -0.3200 -1.6630 -0.4633
 9827SOL     OW32112   9.237   5.808   7.370  0.1863  0.2290  0.2884
 9827SOL    HW132113   9.155   5.851   7.392  0.6090  0.1192  2.3390
 9827SOL    HW232114   9.255   5.835   7.280 -0.9647  2.0607  0.5425
 9828SOL     OW32115   4.598   4.578   9.715  0.4445 -0.5978  0.2771
 9828SOL    HW132116   4.616   4.487   9.737 -0.9222 -0.8041  0.6274
 9828SOL    HW232117   4.502   4.584   9.711  0.5394  0.5409 -0.9708
 9829SOL     OW32118   0.761   6.461   4.348  0.4045  0.3094  0.2054
 9829SOL    HW132119   0.843   6.483   4.303  1.0760 -2.0461  0.1594
 9829SOL    HW232120   0.693   6.503   4.294  1.4449  0.7984 -0.7787
 9830SOL     OW32121   8.195   9.854   8.378 -0.2751 -0.4228  0.3624
 9830SOL    HW132122   8.105   9.836   8.408 -0.5787  0.2354 -0.1516
 9830SOL    HW232123   8.199   9.949   8.370  0.5441 -0.4330  0.5878
 9831SOL     OW32124   3.666   8.513   1.299 -0.6246 -0.5186 -0.0602
 9831SOL    HW132125   3.762   8.517   1.302 -0.6552  0.0860  0.4002
 9831SOL    HW232126   3.638   8.594   1.342 -1.3448 -1.0724  0.5354
 9832SOL     OW32127   1.974   3.145   8.489 -0.2724  0.2453  0.0533
 9832SOL    HW132128   1.905   3.172   8.550 -0.2415  0.8314 -0.1720
 9832SOL    HW232129   2.009   3.226   8.454 -0.6884 -0.0869 -1.2026
 9833SOL     OW32130   4.076   6.814   7.470 -0.5461 -0.6838 -0.0769
 9833SOL    HW132131   4.140   6.856   7.413  0.2580  0.0110  1.2976
 9833SOL    HW232132   4.055   6.880   7.536 -1.1701 -1.5940  0.6631
 9834SOL     OW32133   5.843   0.108   2.035  0.6821 -0.2365 -0.3530
 9834SOL    HW132134   5.868   0.020   2.060 -1.8208 -0.6937  0.8413
 9834SOL    HW232135   5.748   0.104   2.023  0.7499  1.8261 -2.3483
 9835SOL     OW32136   5.780   8.499   2.129 -0.2621 -0.1897  0.1934
 9835SOL    HW132137   5.685   8.495   2.143 -0.1030 -0.9788  1.2160
 9835SOL    HW232138   5.796   8.434   2.061 -0.6302  1.1201 -1.1862
 9836SOL     OW32139   3.187   2.620   3.132  0.2423  0.5822 -0.0722
 9836SOL    HW132140   3.227   2.696   3.090  0.3564  0.3073 -0.4638
 9836SOL    HW232141   3.144   2.656   3.210  1.1506  0.9044  0.2999
 9837SOL     OW32142   1.942   6.641   3.356 -0.4118  0.9722 -0.0214
 9837SOL    HW132143   1.862   6.598   3.387 -0.3194  0.2106 -0.8013
 9837SOL    HW232144   1.991   6.659   3.436 -0.1063 -1.0792  0.3204
 9838SOL     OW32145   8.183   7.249   4.452  0.1309 -0.3124  0.0016
 9838SOL    HW132146   8.187   7.263   4.546 -2.2134 -0.5236  0.2055
 9838SOL    HW232147   8.092   7.223   4.436  0.6496 -0.9529 -2.2343
 9839SOL     OW32148   8.281   7.129   0.243 -0.5097 -0.2061  0.1378
 9839SOL    HW132149   8.324   7.044   0.247 -1.7848 -0.9869 -1.3458
 9839SOL    HW232150   8.191   7.111   0.272 -1.0910  0.3748 -1.2205
 9840SOL     OW32151   9.449   8.149   3.433  0.0423 -0.1309  0.4755
 9840SOL    HW132152   9.462   8.055   3.421  0.2482  0.1892 -2.7688
 9840SOL    HW232153   9.355   8.160   3.445 -0.3008 -0.6384 -1.4886
 9841SOL     OW32154   6.541   4.218   1.355 -0.2051 -0.3970  0.4778
 9841SOL    HW132155   6.486   4.272   1.298  0.9050 -0.2829 -0.5331
 9841SOL    HW232156   6.495   4.134   1.360 -1.1171  0.1011  0.7260
 9842SOL     OW32157   6.566   1.823   6.220 -0.4098 -0.4509 -0.4721
 9842SOL    HW132158   6.551   1.861   6.307 -0.6885 -0.9962 -0.2735
 9842SOL    HW232159   6.591   1.732   6.238 -1.0299 -0.7337 -0.9846
 9843SOL     OW32160   6.719  10.114   4.326  0.4459 -0.2810 -0.6781
 9843SOL    HW132161   6.644  10.162   4.361  0.6998  0.5599 -1.2581
 9843SOL    HW232162   6.794  10.151   4.373  0.6868  0.1919 -1.4282
 9844SOL     OW32163   7.129  10.117   6.006 -0.0686 -0.1076 -0.0792
 9844SOL    HW132164   7.077  10.040   5.983  0.8831 -1.1674  1.2019
 9844SOL    HW232165   7.135  10.115   6.101 -1.0601  2.2732  0.1162
 9845SOL     OW32166   8.487   5.038   8.645 -0.4456 -0.1635 -0.4703
 9845SOL    HW132167   8.494   4.949   8.680  0.8759 -0.7106 -2.0294
 9845SOL    HW232168   8.460   5.091   8.720 -1.0131 -1.8223  0.5473
 9846SOL     OW32169   8.619   2.871   1.885 -0.7554  0.1386  0.0456
 9846SOL    HW132170   8.563   2.888   1.961 -0.3682  0.1201  0.3378
 9846SOL    HW232171   8.653   2.783   1.900  2.0465  1.3505  1.6132
 9847SOL     OW32172   9.935   8.194   0.749 -0.1482 -0.1348 -0.4953
 9847SOL    HW132173   9.993   8.269   0.757  0.1083 -0.4997  1.7133
 9847SOL    HW232174   9.848   8.228   0.769  0.0438 -0.4755  1.0512
 9848SOL     OW32175   4.243   0.597   2.886 -0.3710  0.3334 -0.2361
 9848SOL    HW132176   4.282   0.596   2.973  0.6848  2.0102 -0.6548
 9848SOL    HW232177   4.317   0.593   2.826 -0.9277  1.5917 -1.0529
 9849SOL     OW32178   9.919   4.242   0.439 -0.3349 -0.1380 -0.1724
 9849SOL    HW132179   9.989   4.179   0.420  0.0213 -0.2502  1.3794
 9849SOL    HW232180   9.959   4.327   0.420 -0.0703 -0.2603 -0.1746
 9850SOL     OW32181  10.057   4.401   2.915  0.5737 -0.2325  0.1103
 9850SOL    HW132182  10.050   4.486   2.872 -1.6244 -1.2574 -1.7941
 9850SOL    HW232183  10.135   4.361   2.877 -0.4605 -0.4845 -1.8727
 9851SOL     OW32184   4.378   4.178   4.998 -0.2654  0.4067 -0.5765
 9851SOL    HW132185   4.460   4.146   5.034 -2.4564 -2.8453  2.1433
 9851SOL    HW232186   4.348   4.243   5.062 -0.0970  1.2164 -1.3012
 9852SOL     OW32187   7.146   7.397   5.021 -0.0128  0.0040 -0.1368
 9852SOL    HW132188   7.183   7.318   4.983  2.4178  1.7178 -1.5729
 9852SOL    HW232189   7.219   7.439   5.065 -1.0553  1.8476 -0.0586
 9853SOL     OW32190   6.540   9.548   1.945  0.0400 -0.2603 -0.0226
 9853SOL    HW132191   6.497   9.632   1.962 -0.5479 -0.7250  0.8478
 9853SOL    HW232192   6.470   9.492   1.912  0.3357 -0.5441 -0.1715
 9854SOL     OW32193   2.607   3.700   6.020  0.2634 -0.1915  0.5248
 9854SOL    HW132194   2.558   3.677   5.941  0.1497  0.3734  0.4308
 9854SOL    HW232195   2.699   3.697   5.993  0.2352 -0.2314  0.4333
 9855SOL     OW32196   1.237   5.955   2.853  0.0130 -0.1662 -0.2181
 9855SOL    HW132197   1.243   6.048   2.876  2.9162  0.4195 -2.6850
 9855SOL    HW232198   1.153   5.947   2.808 -1.3129  0.6697  1.9220
 9856SOL     OW32199   8.754   9.431   5.836  0.2841 -0.2329 -0.5003
 9856SOL    HW132200   8.671   9.454   5.877  0.1329 -1.3070 -0.1860
 9856SOL    HW232201   8.802   9.382   5.903  0.7542 -0.4923 -1.0121
 9857SOL     OW32202   5.202   9.899   2.384 -0.1818  0.2271 -0.1629
 9857SOL    HW132203   5.109   9.915   2.400 -0.0308  0.0928  0.9588
 9857SOL    HW232204   5.245   9.925   2.466  0.6563 -0.7320 -0.2785
 9858SOL     OW32205   7.314   3.358  10.094  0.2067 -0.2652 -0.1650
 9858SOL    HW132206   7.250   3.297  10.132 -0.8363  0.2688 -0.9775
 9858SOL    HW232207   7.359   3.306  10.027 -0.4162 -0.2591 -0.5976
 9859SOL     OW32208   1.603   1.040   0.782 -0.0812  0.6496 -0.2256
 9859SOL    HW132209   1.550   1.049   0.861  1.8443  0.3777  1.1668
 9859SOL    HW232210   1.592   0.949   0.756 -0.5642  0.6844 -0.1396
 9860SOL     OW32211   5.365   7.106   2.688  0.0305 -0.3278 -0.1868
 9860SOL    HW132212   5.420   7.119   2.765 -0.2080  0.8707 -0.1971
 9860SOL    HW232213   5.301   7.040   2.715 -1.3484  1.5184  1.3941
 9861SOL     OW32214   4.596   3.034   5.450  0.1884 -0.1049 -0.1103
 9861SOL    HW132215   4.678   2.990   5.474 -0.2234 -1.0657 -0.4423
 9861SOL    HW232216   4.603   3.120   5.492  1.6189  0.0532 -0.6090
 9862SOL     OW32217   7.269   5.752   0.123  0.1839  0.1434  0.8014
 9862SOL    HW132218   7.253   5.679   0.063 -0.7157  0.0904  1.0983
 9862SOL    HW232219   7.214   5.734   0.199 -1.2035  1.8635  0.2701
 9863SOL     OW32220   3.616  10.077   8.775  1.0621 -0.8561 -0.2963
 9863SOL    HW132221   3.661  10.019   8.837  2.1103  0.3252  0.0981
 9863SOL    HW232222   3.686  10.131   8.739 -0.0921  1.6133  0.9366
 9864SOL     OW32223   7.571   0.400   2.654 -0.0263 -0.1902  0.2558
 9864SOL    HW132224   7.514   0.352   2.594 -2.5941  2.6095  0.2405
 9864SOL    HW232225   7.605   0.473   2.602  1.5600 -0.3337  1.0045
 9865SOL     OW32226   7.482   1.570   0.644 -0.0862 -0.6250  0.0241
 9865SOL    HW132227   7.540   1.585   0.569  1.5310 -0.2344  1.2918
 9865SOL    HW232228   7.415   1.510   0.611  0.6880 -0.6066 -1.6777
 9866SOL     OW32229   5.805   6.393   8.087  0.0981 -0.0349 -0.4637
 9866SOL    HW132230   5.761   6.318   8.128  1.3289  0.5769  2.2081
 9866SOL    HW232231   5.896   6.386   8.116  0.3308  2.2706 -0.4399
 9867SOL     OW32232   1.494   4.907   5.402 -0.4218  0.3665  0.4302
 9867SOL    HW132233   1.483   4.894   5.307  0.6992 -3.2213  0.6296
 9867SOL    HW232234   1.408   4.935   5.432 -0.9584  1.0422 -1.5511
 9868SOL     OW32235   0.486   5.462   1.244  0.5382  0.0734  0.5972
 9868SOL    HW132236   0.473   5.407   1.320  2.1953 -0.0830  0.7992
 9868SOL    HW232237   0.467   5.551   1.275 -0.3287 -0.1644  0.7610
 9869SOL     OW32238   3.028   8.576   2.348  0.2354  0.0884 -0.2135
 9869SOL    HW132239   3.007   8.652   2.402  1.6166  0.4910 -0.2026
 9869SOL    HW232240   3.092   8.608   2.285  0.2427 -0.8789 -0.7143
 9870SOL     OW32241   4.865   3.056   6.959 -0.0432  0.4200 -0.1611
 9870SOL    HW132242   4.913   3.030   6.880  0.5221  1.6038 -0.2311
 9870SOL    HW232243   4.869   2.980   7.016  0.8501  0.0577 -0.6816
 9871SOL     OW32244   2.886   3.526   8.663 -0.5131 -0.2320 -0.2261
 9871SOL    HW132245   2.856   3.453   8.609 -2.0153  0.8242 -0.8850
 9871SOL    HW232246   2.957   3.566   8.612 -0.3774 -0.6057 -0.3349
 9872SOL     OW32247   4.447   3.246   8.381  0.5130  0.3231  0.0084
 9872SOL    HW132248   4.525   3.191   8.396 -0.5617 -1.2114  0.2326
 9872SOL    HW232249   4.472   3.303   8.308  2.3638  0.9421  1.0594
 9873SOL     OW32250   0.873   8.669   3.630  0.6401 -0.2832  0.0398
 9873SOL    HW132251   0.881   8.726   3.554 -2.4542  1.4876  0.8768
 9873SOL    HW232252   0.835   8.588   3.595  1.8884 -0.5856 -0.6604
 9874SOL     OW32253   4.991   1.908   6.765 -0.2238 -0.0349 -0.1217
 9874SOL    HW132254   4.993   1.838   6.830 -0.5107  0.8560  0.8722
 9874SOL    HW232255   4.907   1.897   6.720 -0.3687 -0.1971  0.1852
 9875SOL     OW32256   4.363   8.715   2.696  0.2378 -0.7831  0.4466
 9875SOL    HW132257   4.357   8.711   2.792  0.5504 -1.2847  0.4530
 9875SOL    HW232258   4.440   8.769   2.679  1.1845 -2.0626  0.5163
 9876SOL     OW32259   1.527   9.765   6.002  0.0855  0.1430 -0.2118
 9876SOL    HW132260   1.436   9.781   5.976  0.2848 -0.2086 -1.1527
 9876SOL    HW232261   1.520   9.707   6.078 -0.4897  0.8839  0.3246
 9877SOL     OW32262   0.816   8.390   7.357  0.1507 -0.0512  0.1127
 9877SOL    HW132263   0.751   8.459   7.369 -1.1969 -1.1394 -0.6033
 9877SOL    HW232264   0.781   8.315   7.406  1.9934 -0.0405  1.5773
 9878SOL     OW32265   6.409   7.557   2.453  0.4194  0.0455  0.0195
 9878SOL    HW132266   6.451   7.624   2.399 -0.4443 -0.1994 -0.9811
 9878SOL    HW232267   6.418   7.477   2.403  0.4007 -0.3760  0.6747
 9879SOL     OW32268   7.149  10.131   1.006  0.1486  0.4420 -0.3335
 9879SOL    HW132269   7.242  10.140   1.027  0.5357 -0.8506 -1.3879
 9879SOL    HW232270   7.146  10.126   0.911 -0.7919 -1.5085 -0.2367
 9880SOL     OW32271  10.096   5.304   7.569  0.2876  0.7170 -0.4391
 9880SOL    HW132272  10.162   5.235   7.574  1.3158  1.7353  0.7773
 9880SOL    HW232273  10.122   5.357   7.494 -0.1376  0.1758 -0.9827
 9881SOL     OW32274   7.522   8.737   6.869 -0.6092 -0.0835  0.0103
 9881SOL    HW132275   7.549   8.683   6.795  1.2066 -0.5672  0.9531
 9881SOL    HW232276   7.475   8.810   6.830 -0.8337 -1.0018 -1.4942
 9882SOL     OW32277   3.674   6.295   7.191  0.3014 -0.2442 -0.4191
 9882SOL    HW132278   3.648   6.372   7.140 -2.7670 -0.7667  0.1342
 9882SOL    HW232279   3.756   6.321   7.234 -1.2556  3.3121  0.8338
 9883SOL     OW32280   0.740   8.055   4.530 -0.1032  0.6684 -0.2183
 9883SOL    HW132281   0.822   8.064   4.579 -0.1882 -3.8298  1.1876
 9883SOL    HW232282   0.767   8.055   4.438  1.0980  1.4542  0.1079
 9884SOL     OW32283   6.714   6.389   3.951 -0.0343 -0.4071 -0.1320
 9884SOL    HW132284   6.683   6.391   4.041 -1.3689 -1.4917 -0.5303
 9884SOL    HW232285   6.661   6.454   3.905 -0.1665 -0.6755 -0.3633
 9885SOL     OW32286   9.159   4.708   4.213  0.3425 -0.4621  0.2380
 9885SOL    HW132287   9.195   4.665   4.135 -0.8671 -1.3701  0.1607
 9885SOL    HW232288   9.186   4.652   4.285 -0.4786 -0.8894  0.2259
 9886SOL     OW32289   0.884   8.853   1.644  0.5666  0.0942  0.3753
 9886SOL    HW132290   0.847   8.928   1.599  0.6426  1.1900  2.0496
 9886SOL    HW232291   0.858   8.863   1.736  2.0665 -0.9443  0.9801
 9887SOL     OW32292   6.011   9.002   8.552 -0.0475 -0.6648  0.3201
 9887SOL    HW132293   6.042   8.924   8.507 -0.3092 -1.3859  1.3642
 9887SOL    HW232294   6.055   9.000   8.637 -1.1054 -0.4073  0.8811
 9888SOL     OW32295   2.965   2.474   1.955 -0.4811  0.0425 -0.0569
 9888SOL    HW132296   3.043   2.527   1.943 -0.9080  0.6803 -0.0856
 9888SOL    HW232297   2.986   2.415   2.027  0.1648 -0.0642 -0.3296
 9889SOL     OW32298   7.038   2.596   4.272 -0.0111 -0.1895 -0.4827
 9889SOL    HW132299   7.077   2.684   4.276 -0.5520  0.0219  2.3378
 9889SOL    HW232300   6.955   2.604   4.319 -1.6261 -1.5762 -2.8499
 9890SOL     OW32301   2.603   9.499   1.071  0.7957  0.1797  0.0011
 9890SOL    HW132302   2.583   9.546   0.990 -2.2107 -1.1003 -0.1402
 9890SOL    HW232303   2.575   9.409   1.053  1.0672 -0.3682  2.1056
 9891SOL     OW32304   1.971   6.592   8.837 -0.0576  0.2624  0.6926
 9891SOL    HW132305   1.914   6.614   8.911 -2.0223 -0.3417 -0.5560
 9891SOL    HW232306   1.911   6.578   8.764  1.5605 -2.1967 -0.3011
 9892SOL     OW32307   4.956   8.810   9.762 -0.0903 -0.2122  0.1656
 9892SOL    HW132308   4.917   8.793   9.848  2.3313  0.3134  1.4356
 9892SOL    HW232309   4.940   8.903   9.747 -2.8870 -0.8125 -1.3077
 9893SOL     OW32310   9.326   9.366   8.462  0.1769 -0.0087 -0.2872
 9893SOL    HW132311   9.347   9.279   8.495  0.3769  0.2448  0.2754
 9893SOL    HW232312   9.287   9.351   8.376  2.3796 -0.5150 -1.2689
 9894SOL     OW32313   1.251   7.850   4.676  0.0422  0.0301 -0.4730
 9894SOL    HW132314   1.199   7.917   4.630  1.3205  1.3986 -0.0160
 9894SOL    HW232315   1.339   7.888   4.682 -0.0813  0.0647  3.3055
 9895SOL     OW32316   2.456   8.568   0.037  0.3096 -0.5634 -0.9012
 9895SOL    HW132317   2.442   8.538  -0.053  0.2868  1.4916 -1.6516
 9895SOL    HW232318   2.377   8.542   0.084  0.6385 -2.3088 -1.2678
 9896SOL     OW32319   0.964   5.736   3.930  0.3387  0.3367  0.1384
 9896SOL    HW132320   1.034   5.704   3.872 -0.6038 -0.3280 -0.6599
 9896SOL    HW232321   0.921   5.805   3.880 -0.3070 -0.0514  0.1495
 9897SOL     OW32322   0.955   5.477   0.651 -0.4229  0.0560  0.6883
 9897SOL    HW132323   1.010   5.539   0.604 -1.1188 -0.6434 -1.1475
 9897SOL    HW232324   0.989   5.478   0.740  0.0600  2.5074  0.5676
 9898SOL     OW32325   4.847   5.771   0.281 -0.0013 -0.1358 -0.2344
 9898SOL    HW132326   4.792   5.843   0.310  0.4770 -0.4470  1.5339
 9898SOL    HW232327   4.825   5.698   0.339  1.2308 -0.6973 -0.4330
 9899SOL     OW32328   8.413   6.689   3.127 -0.5769  0.1814  0.1253
 9899SOL    HW132329   8.366   6.675   3.044  0.2122  0.8809 -0.4499
 9899SOL    HW232330   8.482   6.752   3.105 -0.6700  0.7582  1.4318
 9900SOL     OW32331   7.068   5.129   4.494 -0.3483  0.0316 -0.4779
 9900SOL    HW132332   7.064   5.216   4.455 -1.7065  1.2486  2.1113
 9900SOL    HW232333   6.977   5.099   4.495 -0.2071 -0.4220  0.6501
 9901SOL     OW32334   0.260   9.189   8.960 -0.0120 -0.6840  0.1337
 9901SOL    HW132335   0.259   9.093   8.968  0.6200 -0.7448 -0.4210
 9901SOL    HW232336   0.184   9.218   9.011 -2.8238 -1.7530 -3.0390
 9902SOL     OW32337   3.857   0.157   1.362  0.4667 -0.7888  0.2252
 9902SOL    HW132338   3.820   0.101   1.293 -0.9941  0.7967 -0.3624
 9902SOL    HW232339   3.821   0.243   1.344  1.0113 -0.0717  2.3066
 9903SOL     OW32340   5.066   2.122   3.105  0.2066 -0.2218 -0.1233
 9903SOL    HW132341   5.047   2.029   3.115 -2.2462  0.1164 -0.9607
 9903SOL    HW232342   5.154   2.133   3.141 -0.1199 -2.5481  1.6007
 9904SOL     OW32343   5.923  10.226  10.121  0.3111 -0.4261  0.0947
 9904SOL    HW132344   5.847  10.277  10.095  0.5906  0.8653  1.6063
 9904SOL    HW232345   5.894  10.177  10.198  0.8655 -0.2699  0.4110
 9905SOL     OW32346   8.110   3.669   9.262 -0.0734  0.1314 -0.5871
 9905SOL    HW132347   8.053   3.745   9.252  1.1061  1.3495  1.3197
 9905SOL    HW232348   8.197   3.702   9.238  0.0348 -1.4355 -2.5476
 9906SOL     OW32349   5.008   1.464   5.651  0.3653  0.3801 -0.0476
 9906SOL    HW132350   5.081   1.409   5.680  0.1198  0.7435  1.3124
 9906SOL    HW232351   5.035   1.553   5.672 -0.7052  0.4709  1.0647
 9907SOL     OW32352  10.023   6.101   8.330  0.3419 -0.3029 -0.3264
 9907SOL    HW132353  10.117   6.100   8.344  0.4357 -0.0110 -0.9305
 9907SOL    HW232354   9.991   6.022   8.374  0.6218  0.5564  1.5594
 9908SOL     OW32355  10.238   4.103   4.682  0.2846  0.2325 -0.3059
 9908SOL    HW132356  10.241   4.197   4.663 -0.6701  0.3703  0.1701
 9908SOL    HW232357  10.306   4.090   4.748  2.3023  0.0824 -2.3000
 9909SOL     OW32358   0.290   4.887   7.550  0.2023  0.4880  0.2450
 9909SOL    HW132359   0.382   4.911   7.541  0.3021  0.3290  0.8179
 9909SOL    HW232360   0.271   4.898   7.643 -0.9938  2.7255 -0.1960
 9910SOL     OW32361   3.957   6.252   0.553 -0.3832 -0.3912  0.1478
 9910SOL    HW132362   3.935   6.258   0.646  2.0803  1.4690  0.7276
 9910SOL    HW232363   3.917   6.330   0.514  0.2413 -0.0962  0.0789
 9911SOL     OW32364   6.841   3.356   7.385 -0.1637  0.0444  0.1429
 9911SOL    HW132365   6.910   3.402   7.336  0.9696 -0.1021  1.5232
 9911SOL    HW232366   6.822   3.413   7.459 -0.3455 -0.6861  0.6657
 9912SOL     OW32367   2.531   1.216   1.245 -0.2088 -0.2659 -0.2964
 9912SOL    HW132368   2.604   1.274   1.266 -0.6696  0.3677 -0.4395
 9912SOL    HW232369   2.463   1.237   1.310 -0.1663 -1.0513  0.0155
 9913SOL     OW32370   6.275   8.073  10.047  0.1923  0.1957  0.4520
 9913SOL    HW132371   6.262   8.059  10.141 -2.0522 -0.8541  0.0568
 9913SOL    HW232372   6.312   7.991  10.015 -0.5047 -0.0210  0.1904
 9914SOL     OW32373   0.324  10.334   7.112  0.8600 -0.2635 -0.2970
 9914SOL    HW132374   0.406  10.300   7.149  0.2828  1.2130  2.6414
 9914SOL    HW232375   0.256  10.281   7.153  0.2092  0.7793  0.0010
 9915SOL     OW32376   3.714   9.643   3.298  0.6515  0.1445  0.1261
 9915SOL    HW132377   3.744   9.592   3.222  0.4336 -2.3617  1.6054
 9915SOL    HW232378   3.650   9.704   3.262  0.1652 -1.3257 -1.6608
 9916SOL     OW32379   9.161   1.534   1.105 -0.1221  0.4083 -0.3148
 9916SOL    HW132380   9.070   1.505   1.106 -0.9008  2.6500  0.1811
 9916SOL    HW232381   9.184   1.545   1.197  1.0517 -1.1440 -0.3801
 9917SOL     OW32382   8.178   6.956   3.736 -0.4995  0.1171 -0.6784
 9917SOL    HW132383   8.164   7.048   3.714  2.1836  0.9497  0.7084
 9917SOL    HW232384   8.259   6.932   3.691  0.1069 -0.8425  0.8481
 9918SOL     OW32385   9.421   3.886   0.071 -0.5389 -0.5330 -0.0647
 9918SOL    HW132386   9.479   3.895   0.146 -0.3739  1.1948 -0.3490
 9918SOL    HW232387   9.432   3.796   0.041  1.0820 -0.5776  0.6229
 9919SOL     OW32388   4.454   6.630   3.506  0.2100  0.1378  0.1126
 9919SOL    HW132389   4.368   6.663   3.480  0.6059  2.2749  1.2907
 9919SOL    HW232390   4.508   6.641   3.429 -0.1962  0.2133 -0.1651
 9920SOL     OW32391   7.150   4.277   2.387 -0.1622  0.5633  0.6363
 9920SOL    HW132392   7.149   4.196   2.439  0.1719  1.6818  2.4598
 9920SOL    HW232393   7.088   4.260   2.316  0.7963 -1.7231  0.2579
 9921SOL     OW32394   2.783   4.469   2.382 -0.8466 -0.1305  0.1524
 9921SOL    HW132395   2.696   4.503   2.403  0.1546  1.6853  1.6827
 9921SOL    HW232396   2.812   4.427   2.463 -0.0826 -0.2346 -0.1714
 9922SOL     OW32397   9.747   4.356   8.161  0.4679  0.3286  0.2199
 9922SOL    HW132398   9.790   4.421   8.216  0.1915  1.3549 -0.7233
 9922SOL    HW232399   9.654   4.370   8.176  0.4122  0.0194  0.1610
 9923SOL     OW32400   1.347   0.748   0.240 -0.2747 -0.5146 -0.1606
 9923SOL    HW132401   1.263   0.795   0.242 -0.1336 -0.2734  0.0865
 9923SOL    HW232402   1.336   0.679   0.306 -0.2956 -0.5144 -0.1636
 9924SOL     OW32403   4.184   4.705   0.284 -0.1683  0.0297  0.1090
 9924SOL    HW132404   4.096   4.701   0.321  0.5503 -0.2708  1.8411
 9924SOL    HW232405   4.221   4.787   0.316  0.2211  0.1351 -0.5771
 9925SOL     OW32406   3.045   5.633   6.272 -0.0341  0.2606  0.0562
 9925SOL    HW132407   3.068   5.544   6.297  0.5025  0.1048 -0.9409
 9925SOL    HW232408   2.961   5.625   6.226 -0.9023  0.5167  1.5435
 9926SOL     OW32409   9.449   3.103   8.247  0.1597 -0.0487 -0.1658
 9926SOL    HW132410   9.513   3.132   8.313 -0.6144  1.2834  0.0340
 9926SOL    HW232411   9.364   3.125   8.285 -0.4993 -2.3044 -0.1816
 9927SOL     OW32412   6.511   8.176   8.833  0.1047 -1.0077  0.0113
 9927SOL    HW132413   6.574   8.111   8.802  0.1106 -0.1535 -1.8836
 9927SOL    HW232414   6.540   8.258   8.795 -0.2323  0.0475  1.9041
 9928SOL     OW32415   4.232   1.267   1.663  0.0945 -0.5599 -0.2035
 9928SOL    HW132416   4.150   1.234   1.626 -0.7900  2.1666 -0.9220
 9928SOL    HW232417   4.204   1.334   1.726  1.7518 -1.2250  1.2990
 9929SOL     OW32418   7.529   4.613   7.759  0.3448  0.4146 -0.4482
 9929SOL    HW132419   7.600   4.561   7.797  0.6267  0.9365 -0.2513
 9929SOL    HW232420   7.469   4.629   7.832 -0.7075 -1.1980 -0.9043
 9930SOL     OW32421   9.582   4.714   2.687 -0.2737 -0.3259  0.4094
 9930SOL    HW132422   9.547   4.700   2.599  0.0719  0.8687  0.0636
 9930SOL    HW232423   9.524   4.664   2.744 -2.0394  0.9186 -0.2321
 9931SOL     OW32424  10.143   2.034   0.574 -0.0479 -0.0218  0.1403
 9931SOL    HW132425  10.135   1.980   0.495 -1.9825 -0.3671  0.5191
 9931SOL    HW232426  10.237   2.039   0.590  0.4372  0.2561 -2.3029
 9932SOL     OW32427   2.303   5.298   9.279 -0.5032  0.3921 -0.4246
 9932SOL    HW132428   2.368   5.293   9.349 -1.6182  0.5579  0.6632
 9932SOL    HW232429   2.250   5.375   9.301 -0.9311  0.3944 -1.4043
 9933SOL     OW32430   2.553   3.413   8.363  0.5969  0.5042 -0.3951
 9933SOL    HW132431   2.574   3.504   8.343  1.4311  0.0285 -1.8456
 9933SOL    HW232432   2.507   3.381   8.286  0.0026 -0.2144  0.2389
 9934SOL     OW32433   7.329   6.105  10.319 -0.4859  0.9541 -0.1122
 9934SOL    HW132434   7.235   6.118  10.336 -1.2284 -0.7738 -2.3077
 9934SOL    HW232435   7.360   6.055  10.395 -1.2898  1.6605  0.7073
 9935SOL     OW32436   2.231   0.890   8.339  0.7136 -0.1647  0.2688
 9935SOL    HW132437   2.148   0.902   8.385  0.0645  0.9463 -1.0989
 9935SOL    HW232438   2.255   0.799   8.355  0.3546  0.0671  2.4627
 9936SOL     OW32439   2.292   8.550   2.573  0.1227  0.3465 -0.6996
 9936SOL    HW132440   2.372   8.579   2.529  1.0290  0.2411  0.8290
 9936SOL    HW232441   2.223   8.603   2.533  1.1684  1.6352 -0.8854
 9937SOL     OW32442   2.492   0.770   0.749 -0.4476 -0.0800  0.8932
 9937SOL    HW132443   2.473   0.678   0.731 -1.0488  0.3561 -0.8107
 9937SOL    HW232444   2.513   0.771   0.843  1.0524 -2.1790  0.6669
 9938SOL     OW32445   8.321   9.677   3.593  0.0474 -0.3527 -0.5407
 9938SOL    HW132446   8.290   9.758   3.552  3.5239  0.9518 -0.9268
 9938SOL    HW232447   8.307   9.610   3.526 -1.4731  0.1698 -0.8056
 9939SOL     OW32448   9.653   9.676   2.917  0.2981 -0.4213  0.1271
 9939SOL    HW132449   9.715   9.703   2.849 -0.1768 -1.0410 -0.5756
 9939SOL    HW232450   9.674   9.731   2.992 -0.8172  2.1232 -1.2988
 9940SOL     OW32451   4.010   3.205   6.870  0.0224  0.6458  0.0214
 9940SOL    HW132452   4.038   3.130   6.922  1.3126  1.7078  0.9202
 9940SOL    HW232453   3.917   3.190   6.855  0.1736 -0.9334  0.5123
 9941SOL     OW32454   1.952   4.617   9.090 -0.4501 -0.5604 -0.0702
 9941SOL    HW132455   2.024   4.578   9.139 -0.3411  1.9880  2.0290
 9941SOL    HW232456   1.982   4.616   8.999  1.1883 -1.7083  0.4383
 9942SOL     OW32457   1.240   6.906   4.767 -0.0421 -0.5278 -0.1343
 9942SOL    HW132458   1.286   6.947   4.840  1.1115  2.0479 -2.1564
 9942SOL    HW232459   1.275   6.816   4.765  3.2312  0.5906 -0.0877
 9943SOL     OW32460   9.658   9.007   1.439 -0.1053 -0.2488  0.5792
 9943SOL    HW132461   9.581   9.019   1.383 -0.7921 -0.3143  1.4758
 9943SOL    HW232462   9.650   8.917   1.471  1.0048 -0.6679 -0.2586
 9944SOL     OW32463   8.359   4.243   9.173  0.6333 -0.3598  0.2529
 9944SOL    HW132464   8.309   4.303   9.228  1.9028  0.3720  0.6389
 9944SOL    HW232465   8.374   4.292   9.092 -0.3800 -1.0688 -0.3919
 9945SOL     OW32466   6.594   5.699   5.454 -0.3585 -0.0905 -0.0208
 9945SOL    HW132467   6.639   5.774   5.414 -1.3545  1.1539  1.0654
 9945SOL    HW232468   6.625   5.698   5.545 -2.8366  1.1931  0.9483
 9946SOL     OW32469   2.863   6.208   3.332  0.8275  0.1052  0.0378
 9946SOL    HW132470   2.828   6.128   3.293 -1.8240  1.2523 -0.1781
 9946SOL    HW232471   2.896   6.180   3.418 -3.4123 -0.7943  1.6108
 9947SOL     OW32472   5.106   3.196   7.875 -0.3246 -0.3136  0.6105
 9947SOL    HW132473   5.145   3.165   7.793  1.0801  2.2584  0.1619
 9947SOL    HW232474   5.168   3.169   7.942 -0.1728 -0.2885  0.4833
 9948SOL     OW32475   2.153   8.731   7.406 -0.3313 -0.0864  0.0723
 9948SOL    HW132476   2.178   8.707   7.316 -1.3286  1.3256 -0.6261
 9948SOL    HW232477   2.172   8.825   7.411 -2.7819  0.4545  0.4127
 9949SOL     OW32478   7.341   8.305   2.792 -0.1720 -0.4475  0.9723
 9949SOL    HW132479   7.311   8.377   2.736 -0.9375 -0.2958  1.5615
 9949SOL    HW232480   7.261   8.261   2.821  0.1215  0.0612  2.7123
 9950SOL     OW32481   5.599   9.734   6.675  0.9031  0.8279 -0.3402
 9950SOL    HW132482   5.670   9.764   6.620  0.8280  2.3531  0.3313
 9950SOL    HW232483   5.602   9.791   6.752 -1.5944  1.5897 -0.7021
 9951SOL     OW32484   0.941   8.572   5.098 -0.2768 -0.1549  0.0091
 9951SOL    HW132485   1.024   8.526   5.082  0.1518  0.5149  0.2983
 9951SOL    HW232486   0.906   8.532   5.177 -0.2428 -0.4467 -0.1194
 9952SOL     OW32487   2.861   9.691   6.837  0.6074  0.0394  0.0491
 9952SOL    HW132488   2.896   9.606   6.812  1.0966 -0.3048  1.7535
 9952SOL    HW232489   2.872   9.695   6.932 -0.6495  1.4468  0.1876
 9953SOL     OW32490   0.199   3.398   4.428  0.0231  0.1183  0.0804
 9953SOL    HW132491   0.237   3.335   4.368  0.7086 -0.1277  0.7513
 9953SOL    HW232492   0.127   3.352   4.470 -1.1038  0.6074 -1.2469
 9954SOL     OW32493   1.337   4.149   5.843 -0.4596 -0.1137  0.6694
 9954SOL    HW132494   1.352   4.186   5.756 -1.1891 -0.8176  0.2345
 9954SOL    HW232495   1.252   4.184   5.869  0.1971  0.9079  1.5536
 9955SOL     OW32496   2.155   9.583   4.365  0.4990 -0.3593  0.3165
 9955SOL    HW132497   2.168   9.647   4.435 -0.4777 -1.4297  1.5409
 9955SOL    HW232498   2.106   9.512   4.407  1.9666 -2.1621 -0.8303
 9956SOL     OW32499   1.354   0.722   9.378  0.3262 -0.1167 -0.0383
 9956SOL    HW132500   1.450   0.718   9.379  0.3184 -0.6088  1.6322
 9956SOL    HW232501   1.325   0.632   9.393 -0.4126 -0.0029 -0.7080
 9957SOL     OW32502   7.528   6.483   4.017 -0.3546 -0.0021  0.1438
 9957SOL    HW132503   7.534   6.455   3.925 -0.0750 -1.0961  0.4817
 9957SOL    HW232504   7.575   6.567   4.019 -0.8107  0.2886 -0.8099
 9958SOL     OW32505   3.406   3.669   5.146  0.0289 -0.4116 -0.1767
 9958SOL    HW132506   3.442   3.738   5.201 -0.3689 -0.2160 -0.1598
 9958SOL    HW232507   3.456   3.674   5.065 -0.0892 -0.0138 -0.2261
 9959SOL     OW32508   2.566   1.427   9.531 -0.2664  0.4610  0.1453
 9959SOL    HW132509   2.600   1.508   9.492  2.3140 -1.4019 -1.8421
 9959SOL    HW232510   2.638   1.364   9.523 -2.1920 -2.1141  1.4605
 9960SOL     OW32511   4.316   9.253   7.470  0.0680  0.1028 -0.0096
 9960SOL    HW132512   4.326   9.347   7.459  1.0450 -0.0808 -0.9043
 9960SOL    HW232513   4.406   9.220   7.473 -0.2331 -0.6587  1.7914
 9961SOL     OW32514   1.757   9.820   3.834  0.7083  0.1895 -0.1163
 9961SOL    HW132515   1.762   9.824   3.739  3.0965  0.5458 -0.0337
 9961SOL    HW232516   1.670   9.855   3.855 -0.9183 -2.1814 -2.2186
 9962SOL     OW32517   7.752   6.665   0.894 -0.0883 -0.0107  0.3661
 9962SOL    HW132518   7.773   6.753   0.924  0.7422  0.6713 -2.0049
 9962SOL    HW232519   7.831   6.614   0.911 -0.2143 -0.0542  0.8296
 9963SOL     OW32520   0.335   1.619   8.478 -0.4404  0.1752 -0.3803
 9963SOL    HW132521   0.263   1.556   8.467 -1.0043  0.7868 -0.2405
 9963SOL    HW232522   0.351   1.653   8.390 -0.8446  0.5985 -0.2951
 9964SOL     OW32523   1.467   0.390   1.689  0.3047 -0.6630  0.4186
 9964SOL    HW132524   1.379   0.361   1.664 -0.7111  0.3959  2.4928
 9964SOL    HW232525   1.465   0.485   1.678  0.2964 -0.3234  2.7710
 9965SOL     OW32526  10.161   0.726   9.744 -0.3815 -0.2244 -0.2592
 9965SOL    HW132527  10.222   0.683   9.803  1.5441  0.5831 -1.5250
 9965SOL    HW232528  10.088   0.753   9.799  0.4194 -1.1990  1.3476
 9966SOL     OW32529   3.768   3.948   0.975  0.1544  0.0398  0.4751
 9966SOL    HW132530   3.675   3.975   0.975 -0.1119 -0.8345  1.3255
 9966SOL    HW232531   3.816   4.031   0.968 -0.6871  0.5342  0.3295
 9967SOL     OW32532   2.468   2.539   3.645 -0.3533 -0.2917  0.1148
 9967SOL    HW132533   2.556   2.501   3.636 -0.3938 -0.4152  0.2411
 9967SOL    HW232534   2.440   2.514   3.733 -0.1317  0.5615  0.4377
 9968SOL     OW32535   4.572   9.627   1.396 -0.2205  0.4365 -0.8058
 9968SOL    HW132536   4.665   9.628   1.417 -0.0629  0.6234 -1.4967
 9968SOL    HW232537   4.530   9.591   1.474  0.1488  2.9755  0.6879
 9969SOL     OW32538   9.360   8.585   3.953  0.0380  0.4106 -0.4110
 9969SOL    HW132539   9.340   8.527   4.026  0.4437 -1.1056 -1.4620
 9969SOL    HW232540   9.416   8.653   3.991  0.5770 -0.5680  0.6007
 9970SOL     OW32541   1.513   2.485   2.022 -0.0528  0.0780  0.3439
 9970SOL    HW132542   1.530   2.392   2.038 -0.7232  0.0777  1.1175
 9970SOL    HW232543   1.591   2.529   2.055 -0.1491 -0.1414  0.8684
 9971SOL     OW32544   1.453   4.424   8.281 -0.6116 -0.3531 -0.9688
 9971SOL    HW132545   1.420   4.384   8.361  0.5133  0.7213  0.0787
 9971SOL    HW232546   1.491   4.352   8.231  1.1668 -0.6940  0.7571
 9972SOL     OW32547   6.320   8.663   9.511 -0.5177 -0.1278 -0.8335
 9972SOL    HW132548   6.286   8.598   9.573 -1.4207 -0.1396 -1.3219
 9972SOL    HW232549   6.332   8.614   9.430 -0.4347  0.1380 -0.9833
 9973SOL     OW32550   1.187   7.262   4.848  0.0012  0.2015 -0.5594
 9973SOL    HW132551   1.243   7.251   4.771  0.8023  0.7006 -0.0603
 9973SOL    HW232552   1.111   7.310   4.815  0.5234  0.7644 -0.9649
 9974SOL     OW32553   3.556   7.960   6.009  0.4664 -0.1662  1.1249
 9974SOL    HW132554   3.495   7.907   6.061  0.1816  0.3907  1.3655
 9974SOL    HW232555   3.620   7.897   5.976 -0.4205 -0.8193  0.5972
 9975SOL     OW32556   0.714   6.537   6.952 -0.6740  0.5061  0.4747
 9975SOL    HW132557   0.761   6.484   6.888 -2.7297 -1.1230  0.2311
 9975SOL    HW232558   0.720   6.626   6.917  0.9738  0.1559 -0.2591
 9976SOL     OW32559   2.955  10.278  10.157 -0.2803 -0.2647  0.0416
 9976SOL    HW132560   2.972  10.205  10.216 -0.4710 -0.2702  0.0917
 9976SOL    HW232561   2.898  10.337  10.207  0.7685  0.4623  0.4039
 9977SOL     OW32562   2.344   6.432   6.498 -0.3015 -0.1084 -0.0726
 9977SOL    HW132563   2.250   6.447   6.510 -0.6545 -1.5796 -0.6949
 9977SOL    HW232564   2.366   6.367   6.565  0.6464  1.3769  1.1045
 9978SOL     OW32565   6.723   0.207   0.442 -0.0776  0.0824  0.0441
 9978SOL    HW132566   6.643   0.164   0.472 -0.8290  0.7448 -0.9457
 9978SOL    HW232567   6.742   0.165   0.358  1.0632 -0.6000  0.6163
 9979SOL     OW32568   8.936   3.110   0.709  0.1724 -0.0924  0.4686
 9979SOL    HW132569   8.898   3.088   0.794  1.0872 -1.9940  0.4500
 9979SOL    HW232570   8.949   3.205   0.712 -0.5498 -0.0065  2.1248
 9980SOL     OW32571   6.222   2.481   4.451  0.1116  0.6105 -0.2092
 9980SOL    HW132572   6.293   2.501   4.391  1.0536  0.4002  0.8119
 9980SOL    HW232573   6.190   2.395   4.424  0.4151  0.5902 -0.4992
 9981SOL     OW32574   1.470   9.819   7.833 -0.5928 -0.0393 -0.2879
 9981SOL    HW132575   1.384   9.803   7.872 -0.2705 -2.4621 -0.4272
 9981SOL    HW232576   1.458   9.801   7.740  0.0644 -0.3650 -0.3123
 9982SOL     OW32577   0.328   8.626  10.244 -0.6778  0.0463 -0.1768
 9982SOL    HW132578   0.302   8.700  10.299 -0.8164  1.2263 -1.7490
 9982SOL    HW232579   0.332   8.663  10.156  1.4211 -1.3002 -0.7047
 9983SOL     OW32580   3.140   6.770   1.540 -0.7334 -0.3786  0.2103
 9983SOL    HW132581   3.214   6.817   1.501 -1.0949  1.2272  1.3699
 9983SOL    HW232582   3.133   6.690   1.488  2.3089 -0.9923  0.5084
 9984SOL     OW32583   4.047   0.243   9.554  0.0707 -0.0979  0.0677
 9984SOL    HW132584   3.965   0.282   9.584  0.6266  1.2939 -0.1522
 9984SOL    HW232585   4.025   0.151   9.538 -1.1249 -0.0460  1.2159
 9985SOL     OW32586   0.113   5.533   1.515  0.8527  0.5753  0.3273
 9985SOL    HW132587   0.061   5.571   1.445  0.6366  1.1991  0.8117
 9985SOL    HW232588   0.122   5.441   1.492  2.0200  1.0515 -1.2614
 9986SOL     OW32589   1.583   9.442  10.297 -0.3346 -0.0324 -0.5901
 9986SOL    HW132590   1.546   9.516  10.248  0.1533 -0.3451 -1.4366
 9986SOL    HW232591   1.580   9.369  10.236 -0.5346 -0.6478  0.1478
 9987SOL     OW32592   9.845   2.241   7.573  0.1238 -0.1743  0.1020
 9987SOL    HW132593   9.888   2.272   7.653 -1.4913 -0.3883  1.1203
 9987SOL    HW232594   9.844   2.317   7.515  1.2369  0.0132  0.3068
 9988SOL     OW32595   3.383   3.479   6.772 -0.2851 -0.1129  0.7410
 9988SOL    HW132596   3.368   3.519   6.858 -0.8539  2.3070 -0.3920
 9988SOL    HW232597   3.349   3.543   6.709  0.0961 -1.8018 -1.3101
 9989SOL     OW32598   0.409   4.802   3.896  0.0622  0.3189 -0.3788
 9989SOL    HW132599   0.367   4.842   3.820  1.5371 -0.9053 -1.9451
 9989SOL    HW232600   0.502   4.801   3.873  0.6133  0.3667  1.6904
 9990SOL     OW32601   3.296   7.119   6.865 -0.6824 -0.2042  0.4317
 9990SOL    HW132602   3.308   7.206   6.827 -0.7314 -0.9531 -1.3970
 9990SOL    HW232603   3.215   7.125   6.915 -1.5483  0.3993 -0.9895
 9991SOL     OW32604   8.966   2.492  10.185 -0.6106 -0.4082 -0.3850
 9991SOL    HW132605   9.057   2.462  10.181  0.5417  2.6204  0.7064
 9991SOL    HW232606   8.952   2.538  10.102 -1.0896 -0.6601 -0.4501
 9992SOL     OW32607   3.214   5.819   1.240  0.5303 -0.5498  0.0688
 9992SOL    HW132608   3.287   5.757   1.250  0.5853 -0.6175 -0.6741
 9992SOL    HW232609   3.162   5.808   1.320  1.5256 -0.2411  0.7760
 9993SOL     OW32610   6.912   1.077   3.665 -0.1558  0.0798 -0.4641
 9993SOL    HW132611   6.819   1.099   3.671 -0.0150  0.6157 -0.0933
 9993SOL    HW232612   6.957   1.157   3.693  0.4512  0.2471 -1.8766
 9994SOL     OW32613   5.098   5.606   9.290 -0.3133 -0.3658 -0.1496
 9994SOL    HW132614   5.027   5.650   9.242  1.2071  3.4981  0.7601
 9994SOL    HW232615   5.079   5.623   9.382 -0.0168 -2.4532  0.3487
 9995SOL     OW32616   9.075   5.886   1.638  0.0437  0.2273 -0.3735
 9995SOL    HW132617   8.982   5.868   1.623 -0.5355  1.3676  1.5767
 9995SOL    HW232618   9.086   5.977   1.610  0.7006 -0.0178 -0.9572
 9996SOL     OW32619   0.446   7.186   4.911  1.0761  0.2887  0.0742
 9996SOL    HW132620   0.520   7.245   4.902  0.0565  1.5520 -0.2826
 9996SOL    HW232621   0.437   7.173   5.005  1.6032  0.3008  0.1325
 9997SOL     OW32622   3.236   4.627   8.497  0.5148  0.0882  0.8751
 9997SOL    HW132623   3.262   4.536   8.509  0.0350 -0.4117 -1.4869
 9997SOL    HW232624   3.142   4.628   8.519 -0.4313 -0.8831 -2.5372
 9998SOL     OW32625   6.610   2.704   2.152 -0.3927  0.5785  0.4808
 9998SOL    HW132626   6.666   2.661   2.216 -0.4487 -1.4119 -0.7115
 9998SOL    HW232627   6.665   2.773   2.114  0.8544 -0.5274  0.2100
 9999SOL     OW32628   1.646   1.126   3.347 -0.0972 -0.2635  0.7065
 9999SOL    HW132629   1.642   1.071   3.269  0.1737 -1.6323  1.6195
 9999SOL    HW232630   1.702   1.199   3.322 -1.2424  0.1289 -0.8344
10000SOL     OW32631   2.485   6.311   3.076 -0.1790  0.0866  0.1061
10000SOL    HW132632   2.512   6.262   2.999  0.2812 -1.1630  1.0350
10000SOL    HW232633   2.550   6.290   3.143 -0.6222  1.0653  0.8773
10001SOL     OW32634   8.730   7.758   7.451  0.1594  0.1057  0.3569
10001SOL    HW132635   8.768   7.678   7.414 -1.1047 -0.9755  1.3273
10001SOL    HW232636   8.675   7.793   7.381 -0.3071 -0.6058  0.3562
10002SOL     OW32637   6.508   1.321   8.237  0.0815 -0.0350  0.1294
10002SOL    HW132638   6.574   1.338   8.170  1.3202 -0.5890  1.1557
10002SOL    HW232639   6.557   1.321   8.320 -1.3361  0.2672  1.0057
10003SOL     OW32640   3.147  10.067   4.328  0.5005  0.2166  0.4075
10003SOL    HW132641   3.187  10.064   4.415  0.8790 -0.7157  0.2200
10003SOL    HW232642   3.142  10.160   4.307  0.0881  0.4743  1.5638
10004SOL     OW32643   6.895   8.105  10.011  0.5137  0.1757 -0.6346
10004SOL    HW132644   6.803   8.105  10.035  0.0756  2.8303 -1.9417
10004SOL    HW232645   6.911   8.193   9.975  4.0146  0.5083  1.2723
10005SOL     OW32646   9.260   9.228   7.976 -0.6275  1.0055 -0.1503
10005SOL    HW132647   9.345   9.258   7.944 -0.8049 -0.3588 -2.0668
10005SOL    HW232648   9.199   9.247   7.905 -1.1451 -1.7355 -0.5681
10006SOL     OW32649   5.545   0.919   1.493 -0.0577 -0.0816  0.5040
10006SOL    HW132650   5.538   0.930   1.588  0.8695 -1.0260  0.6990
10006SOL    HW232651   5.536   0.825   1.478 -0.1937  0.0575 -0.3448
10007SOL     OW32652   5.775   0.820   5.799 -0.3803 -0.2128 -0.7584
10007SOL    HW132653   5.805   0.877   5.728  0.7863 -0.7632 -0.7181
10007SOL    HW232654   5.683   0.845   5.811 -0.3695  0.4722 -1.8871
10008SOL     OW32655   6.197   8.567   5.453 -0.0028  0.1919  0.2866
10008SOL    HW132656   6.114   8.612   5.462 -0.3603 -0.4681  0.3767
10008SOL    HW232657   6.259   8.634   5.424 -0.7238  0.5321 -0.4732
10009SOL     OW32658   5.583   0.739   3.025 -0.0520 -0.2450  0.4283
10009SOL    HW132659   5.513   0.722   3.088 -0.9136  0.4811 -0.3012
10009SOL    HW232660   5.537   0.750   2.941  0.9925 -0.3312 -0.1671
10010SOL     OW32661   2.895   4.145   9.213  0.6186  0.1442  0.5606
10010SOL    HW132662   2.854   4.218   9.167 -0.1883 -0.6428  0.0163
10010SOL    HW232663   2.851   4.143   9.299  1.6273  1.1627  1.1259
10011SOL     OW32664   6.299   4.469   7.976 -0.0353  0.2524 -0.0046
10011SOL    HW132665   6.239   4.542   7.966 -0.2229 -0.0494 -1.1404
10011SOL    HW232666   6.257   4.396   7.931  0.8207 -0.1640 -0.1555
10012SOL     OW32667   5.676   8.221   9.111  0.3787 -0.3752  0.2081
10012SOL    HW132668   5.699   8.231   9.018  1.2476  2.5052  0.6190
10012SOL    HW232669   5.584   8.248   9.116  0.5782  0.3179  0.2727
10013SOL     OW32670   5.420   1.922   6.136  0.3758  0.7634 -0.1168
10013SOL    HW132671   5.413   2.004   6.087 -1.3976 -0.2485 -1.7233
10013SOL    HW232672   5.337   1.915   6.183  0.8946  0.3286  0.7637
10014SOL     OW32673   6.876   0.236   3.736 -0.2753 -0.5756 -0.0591
10014SOL    HW132674   6.923   0.226   3.653  0.2573 -0.0872  0.1762
10014SOL    HW232675   6.809   0.302   3.718  0.5006  0.2975  0.1572
10015SOL     OW32676   1.141   3.109   7.395 -0.1691 -0.1512 -0.2631
10015SOL    HW132677   1.173   3.176   7.334  1.0346  0.1740  0.6903
10015SOL    HW232678   1.174   3.027   7.360  0.4335  0.0249 -0.1213
10016SOL     OW32679   0.953   0.422   2.295 -0.1217 -0.1244 -0.0846
10016SOL    HW132680   0.960   0.338   2.249 -2.6667 -0.3168 -0.2411
10016SOL    HW232681   0.864   0.452   2.276  0.8778  2.9137 -0.4992
10017SOL     OW32682   4.410   7.763   8.591 -0.1814 -0.3484  0.1263
10017SOL    HW132683   4.453   7.719   8.517 -1.6310  1.0100 -1.6113
10017SOL    HW232684   4.325   7.789   8.556 -0.2387  1.8666  1.7694
10018SOL     OW32685   2.487   7.593   1.910 -0.2740 -0.3697 -0.2730
10018SOL    HW132686   2.498   7.681   1.947  1.2829  0.4403 -2.4426
10018SOL    HW232687   2.393   7.584   1.898 -0.4831  0.9393  0.2050
10019SOL     OW32688   0.422   4.479   4.033  0.1386 -0.1358 -0.6034
10019SOL    HW132689   0.361   4.550   4.051  0.8756  0.3958 -0.1797
10019SOL    HW232690   0.505   4.507   4.071  0.8878 -0.4625 -1.9026
10020SOL     OW32691   6.152   2.651   6.845 -0.0700 -0.0477  0.4435
10020SOL    HW132692   6.176   2.636   6.937  0.8198  1.2904  0.4610
10020SOL    HW232693   6.102   2.733   6.847 -0.1404 -0.0747 -0.2522
10021SOL     OW32694   5.517   9.852   4.435 -1.0780 -0.0238  0.0259
10021SOL    HW132695   5.517   9.806   4.519 -3.0238  0.9084  0.6062
10021SOL    HW232696   5.596   9.905   4.436  0.7091 -2.4725 -0.2347
10022SOL     OW32697   3.556   5.246   8.351  0.1199  0.1004  0.4843
10022SOL    HW132698   3.479   5.193   8.330 -1.7564  2.8437 -0.2257
10022SOL    HW232699   3.591   5.272   8.266  1.5632 -0.7086  0.8128
10023SOL     OW32700   8.954   1.943   6.036  0.8754 -0.1748 -0.3927
10023SOL    HW132701   8.953   2.024   5.985  1.1807 -0.1979 -0.4372
10023SOL    HW232702   8.926   1.970   6.124 -0.8648 -0.3383 -0.8440
10024SOL     OW32703   7.079   5.535   6.592  0.2850 -0.2710 -0.2705
10024SOL    HW132704   7.055   5.545   6.500  0.6701  0.3852 -0.3081
10024SOL    HW232705   7.002   5.564   6.640  0.9318  1.8667 -0.3890
10025SOL     OW32706   8.862   9.498   2.558  0.7150  0.0856 -0.0267
10025SOL    HW132707   8.882   9.591   2.567 -1.7821  0.6796  0.2928
10025SOL    HW232708   8.941   9.453   2.588  1.3657  2.1149  1.5210
10026SOL     OW32709   7.899   7.565   1.775  0.2946 -0.0833  0.1575
10026SOL    HW132710   7.917   7.653   1.808  0.0249 -0.1460  0.4739
10026SOL    HW232711   7.840   7.527   1.839 -0.0760 -0.2802 -0.2984
10027SOL     OW32712   5.292   8.494   3.544  0.7252 -0.2923  0.6697
10027SOL    HW132713   5.340   8.570   3.512 -1.7755  1.5439  0.9130
10027SOL    HW232714   5.223   8.480   3.479  0.7281 -1.9621  0.9802
10028SOL     OW32715   6.289   3.891   9.306  0.2169 -0.0386  0.3296
10028SOL    HW132716   6.194   3.901   9.316  0.4698  1.4792  1.5071
10028SOL    HW232717   6.317   3.848   9.387  0.5738 -0.3247  0.0593
10029SOL     OW32718   9.632   2.489   6.638 -0.8550  0.3924  0.2494
10029SOL    HW132719   9.575   2.414   6.654 -1.4129  1.0846  1.7401
10029SOL    HW232720   9.720   2.452   6.630 -1.1645 -0.4461  0.6173
10030SOL     OW32721   2.477   8.527   4.932  0.2031  0.9171  0.2785
10030SOL    HW132722   2.560   8.558   4.895  0.8098 -0.7895  0.1285
10030SOL    HW232723   2.428   8.494   4.856 -0.4254  1.4998  0.4282
10031SOL     OW32724   0.079   6.735   0.394 -0.4689 -0.0038 -0.6098
10031SOL    HW132725   0.030   6.809   0.431 -2.3030 -0.9296 -1.0880
10031SOL    HW232726   0.132   6.775   0.324 -0.8900  0.9548 -0.4050
10032SOL     OW32727   6.066   8.399   9.458  0.4714 -0.5227 -0.0661
10032SOL    HW132728   6.017   8.389   9.376  1.4053 -1.8527 -0.4928
10032SOL    HW232729   6.158   8.403   9.430  0.7523 -0.2084  0.8785
10033SOL     OW32730   3.467   6.559   2.115 -0.1234  0.3224  0.1298
10033SOL    HW132731   3.404   6.490   2.096  1.0769 -0.5740 -0.6726
10033SOL    HW232732   3.421   6.617   2.176 -0.8116 -1.7096  1.6218
10034SOL     OW32733   9.558   1.158   1.953  0.2229  0.3578 -0.0987
10034SOL    HW132734   9.638   1.146   1.903  0.5077  0.9203  0.2098
10034SOL    HW232735   9.584   1.212   2.028 -0.6973  1.7777 -0.7438
10035SOL     OW32736   8.239   8.908   7.828 -0.3082 -0.0359 -0.2738
10035SOL    HW132737   8.311   8.861   7.784 -0.1080  0.5661 -0.5915
10035SOL    HW232738   8.165   8.899   7.768 -0.7059 -1.2379  0.3619
10036SOL     OW32739   0.856   1.921   9.526  0.5818 -0.5107  0.9075
10036SOL    HW132740   0.822   1.877   9.449  1.4786  1.6229 -0.8176
10036SOL    HW232741   0.798   1.996   9.538  1.5553  0.2410  1.1058
10037SOL     OW32742   6.038   1.159   5.401  0.3684  0.0900 -0.7645
10037SOL    HW132743   5.978   1.093   5.437  0.7007 -0.2491 -0.8209
10037SOL    HW232744   6.025   1.236   5.456 -0.7434  0.3009 -1.3145
10038SOL     OW32745   5.947   0.720   9.451  0.4426  0.1927  0.3868
10038SOL    HW132746   5.998   0.694   9.375 -0.5193  1.6820 -0.8324
10038SOL    HW232747   5.874   0.657   9.454  0.2931  0.3335 -0.1488
10039SOL     OW32748   3.811   5.632   7.158 -0.2573  0.4882  0.5077
10039SOL    HW132749   3.874   5.583   7.105 -0.3393  2.1332 -1.1920
10039SOL    HW232750   3.747   5.665   7.095 -0.2581  2.6856  1.5753
10040SOL     OW32751   3.196   5.588   0.402  0.5286  0.8294  0.0069
10040SOL    HW132752   3.229   5.498   0.408  1.9026  1.2798 -0.4678
10040SOL    HW232753   3.135   5.586   0.329 -0.6097 -0.0295  0.9261
10041SOL     OW32754   7.255   6.504   5.207 -0.3109 -0.4889 -0.5281
10041SOL    HW132755   7.227   6.430   5.154 -0.5666  0.8386 -2.3441
10041SOL    HW232756   7.319   6.467   5.268 -0.9548 -2.3076 -0.8857
10042SOL     OW32757   3.487   8.658   4.241  0.1696 -0.1208  0.7008
10042SOL    HW132758   3.510   8.709   4.319 -2.4928  1.1011  0.7825
10042SOL    HW232759   3.482   8.723   4.171  1.8868 -1.1138 -0.4276
10043SOL     OW32760   9.890   4.906   8.196  0.3454 -0.1239  0.1034
10043SOL    HW132761   9.886   4.811   8.206  3.6976 -0.4924 -0.7992
10043SOL    HW232762   9.891   4.940   8.285 -2.0851 -0.7812  0.4336
10044SOL     OW32763   4.465   3.258   0.734 -0.1065  0.2206 -0.2338
10044SOL    HW132764   4.532   3.253   0.802 -0.5526 -0.7441  0.1522
10044SOL    HW232765   4.418   3.339   0.752  0.8751  0.8525 -0.4405
10045SOL     OW32766   0.603   3.597   7.595  1.0565  0.5302  0.4606
10045SOL    HW132767   0.560   3.553   7.669 -1.5453  0.1282 -1.1746
10045SOL    HW232768   0.695   3.572   7.603  0.1607 -3.1967  1.0966
10046SOL     OW32769   1.115   8.771   4.269  0.4735  0.2676  0.1014
10046SOL    HW132770   1.131   8.864   4.258 -0.7921  0.6987  1.5002
10046SOL    HW232771   1.147   8.731   4.188  2.3583  1.7148  0.0552
10047SOL     OW32772   7.710   1.828   5.962 -0.1283 -0.3694 -0.6868
10047SOL    HW132773   7.778   1.871   6.015  0.3139 -0.4854 -1.1504
10047SOL    HW232774   7.726   1.735   5.973 -0.2109 -0.3966 -0.7944
10048SOL     OW32775   0.101   0.717   8.481 -0.0707  0.3408 -0.1755
10048SOL    HW132776   0.012   0.736   8.452 -0.4729  1.0895  1.4598
10048SOL    HW232777   0.136   0.660   8.412 -1.0092  1.8336 -1.9953
10049SOL     OW32778   2.455   2.138   3.204 -0.8243 -0.3949 -0.2936
10049SOL    HW132779   2.499   2.092   3.275 -1.6634  0.1634  0.6279
10049SOL    HW232780   2.363   2.140   3.231 -0.9942  0.7351 -0.8929
10050SOL     OW32781   4.081   9.119   3.262  0.2066 -0.2694 -0.3960
10050SOL    HW132782   4.046   9.043   3.215 -3.2374 -0.1048  1.5527
10050SOL    HW232783   4.140   9.081   3.328 -0.5600 -1.1723 -0.2086
10051SOL     OW32784  10.339   6.926   7.389  0.1943  0.6041 -0.1838
10051SOL    HW132785  10.326   7.014   7.353  0.4724  0.8647  0.3426
10051SOL    HW232786  10.380   6.941   7.475  0.5227 -0.0518 -0.2211
10052SOL     OW32787   8.740   4.016   4.323 -0.0379 -0.4688  0.0265
10052SOL    HW132788   8.668   4.054   4.273  1.0224  1.4699 -0.1128
10052SOL    HW232789   8.737   3.922   4.302 -1.3552 -0.1479 -1.4161
10053SOL     OW32790   5.802   6.020   9.941 -0.3411  0.0264  0.0005
10053SOL    HW132791   5.808   5.974   9.857  0.3035  1.3404 -0.7059
10053SOL    HW232792   5.839   6.107   9.923  1.1468 -0.1284  1.9957
10054SOL     OW32793  10.108   8.728   9.535 -0.0477 -0.7754  0.5056
10054SOL    HW132794  10.112   8.695   9.446  1.8564 -2.6323  1.1914
10054SOL    HW232795  10.117   8.650   9.590  1.9402  0.6053  2.2716
10055SOL     OW32796   0.029   6.961   2.459  0.4490  0.1484  1.0933
10055SOL    HW132797  -0.012   7.020   2.522  1.3112  2.2580 -0.2083
10055SOL    HW232798  -0.037   6.894   2.441 -0.1151 -0.0542  3.5592
10056SOL     OW32799   8.818   3.114   1.717 -0.6434  0.2271  0.3283
10056SOL    HW132800   8.833   3.020   1.732 -1.7988 -0.3211 -1.6629
10056SOL    HW232801   8.817   3.152   1.805  0.9511 -1.4179  1.1426
10057SOL     OW32802   6.982   3.632  10.141  0.7648 -0.3302  0.0122
10057SOL    HW132803   7.007   3.569  10.073 -0.2080 -0.4452 -0.2619
10057SOL    HW232804   6.960   3.578  10.217 -1.0654 -0.4302 -0.5406
10058SOL     OW32805   8.565   8.280   3.362  0.0208 -0.4301 -0.5735
10058SOL    HW132806   8.624   8.349   3.330  0.0605  1.7971  3.5722
10058SOL    HW232807   8.623   8.209   3.388  0.7050  0.6700  1.0265
10059SOL     OW32808   0.548   5.397   2.942  0.2725 -0.2318 -0.1481
10059SOL    HW132809   0.519   5.306   2.944  2.1408 -0.9060 -1.1059
10059SOL    HW232810   0.531   5.430   3.030  1.3894 -2.1281  0.8331
10060SOL     OW32811   7.031   7.493   1.209 -0.0112  0.3936  0.0873
10060SOL    HW132812   7.112   7.539   1.183 -1.4812  2.1600 -1.7138
10060SOL    HW232813   7.007   7.443   1.131 -0.5484 -0.3162  0.6997
10061SOL     OW32814   3.952   2.147   4.613  0.1042  0.3857 -0.0078
10061SOL    HW132815   3.943   2.055   4.639  0.6432 -0.2999 -2.0545
10061SOL    HW232816   3.887   2.160   4.544 -0.2388  1.6757  0.5249
10062SOL     OW32817   2.783   3.447   5.111  0.1366 -1.0044  0.0964
10062SOL    HW132818   2.791   3.395   5.031  0.8052 -0.8318  0.0387
10062SOL    HW232819   2.697   3.488   5.105  0.4388 -0.4636 -0.8686
10063SOL     OW32820   8.230   7.419   9.728 -0.2943 -0.0585 -0.0738
10063SOL    HW132821   8.185   7.419   9.644  1.6909 -1.7561 -1.2591
10063SOL    HW232822   8.199   7.497   9.773 -1.6777  0.7178 -2.2491
10064SOL     OW32823   0.788   1.424   6.704 -0.8279  0.4259  0.3573
10064SOL    HW132824   0.723   1.427   6.774 -0.2929  0.9831  0.8415
10064SOL    HW232825   0.829   1.511   6.706  2.8098 -1.1075  2.8335
10065SOL     OW32826   9.915   2.476   9.076 -0.4336 -0.6596 -0.1416
10065SOL    HW132827   9.844   2.485   9.012 -0.1301  1.2861 -0.2731
10065SOL    HW232828   9.980   2.420   9.033 -0.9685 -0.7263 -0.8741
10066SOL     OW32829  10.140   2.653   9.232 -0.1574 -0.0274  0.2569
10066SOL    HW132830  10.054   2.620   9.258 -1.0311  1.6736 -0.2962
10066SOL    HW232831  10.159   2.607   9.150 -1.5771  1.1300 -0.7670
10067SOL     OW32832   9.805   0.433   2.949  0.2519 -0.5734 -0.2041
10067SOL    HW132833   9.811   0.498   2.880 -0.5831  0.8254  0.9681
10067SOL    HW232834   9.849   0.474   3.024 -0.1568 -1.4191  0.5121
10068SOL     OW32835   0.646   2.277   7.268 -0.7979 -0.2460  0.5951
10068SOL    HW132836   0.668   2.334   7.342 -1.6758  0.2201  0.5117
10068SOL    HW232837   0.631   2.191   7.307  1.0612 -0.5720  0.6584
10069SOL     OW32838   6.678   7.328   5.412 -0.2407 -0.3767 -0.7012
10069SOL    HW132839   6.623   7.290   5.343  0.0105  1.5861 -2.0672
10069SOL    HW232840   6.702   7.415   5.378  0.7600  0.2357  1.4244
10070SOL     OW32841   8.357   5.777   7.432 -0.6484  0.3232 -0.1744
10070SOL    HW132842   8.379   5.839   7.502 -0.3683 -0.0900  0.1097
10070SOL    HW232843   8.301   5.712   7.475  0.9715 -0.9315  0.1309
10071SOL     OW32844   6.406   5.608   4.912  0.2216  0.4463  0.6248
10071SOL    HW132845   6.375   5.690   4.952 -0.2854  0.5239  0.0848
10071SOL    HW232846   6.404   5.625   4.818 -0.9401 -0.5438  0.4476
10072SOL     OW32847   5.868   1.977   4.322  0.2398  0.1845  0.0964
10072SOL    HW132848   5.802   1.964   4.255 -1.9573  1.0197  1.9786
10072SOL    HW232849   5.855   1.905   4.383  1.1824  0.2927  0.4411
10073SOL     OW32850   8.692   4.806   7.484 -0.6090  0.0698 -0.4222
10073SOL    HW132851   8.771   4.844   7.446 -0.6918 -0.4141 -1.0948
10073SOL    HW232852   8.724   4.737   7.542 -0.5460 -2.4763 -3.2236
10074SOL     OW32853   6.895  10.307   3.370 -0.2249  0.3799 -0.3194
10074SOL    HW132854   6.827  10.281   3.431 -0.2495  1.0834 -0.0359
10074SOL    HW232855   6.852  10.310   3.285  0.4262 -3.3958 -0.9569
10075SOL     OW32856   4.969   5.866   8.865 -0.2307 -0.2792 -0.1252
10075SOL    HW132857   4.923   5.933   8.915  0.9304 -0.6383  1.4741
10075SOL    HW232858   5.050   5.851   8.913  1.0967 -0.4321 -2.2880
10076SOL     OW32859  10.108   3.064   7.572  0.0911 -0.0008  0.4696
10076SOL    HW132860  10.017   3.057   7.599 -0.4564  2.1333 -0.5898
10076SOL    HW232861  10.104   3.094   7.481  1.8383  0.3880  0.4687
10077SOL     OW32862   5.812   0.561   6.666  0.0597 -0.6576 -0.1368
10077SOL    HW132863   5.786   0.644   6.704 -1.1945 -0.1617 -1.9400
10077SOL    HW232864   5.866   0.519   6.733  1.8277  2.1391  0.3245
10078SOL     OW32865   3.600   5.219   0.917 -0.1223 -0.4354 -0.0610
10078SOL    HW132866   3.558   5.286   0.970  0.9761  1.1115 -1.0632
10078SOL    HW232867   3.684   5.203   0.960  1.1216  1.3898 -1.6076
10079SOL     OW32868   6.874   1.586   3.369 -0.0743  0.1401 -0.0355
10079SOL    HW132869   6.833   1.550   3.291  0.1191 -2.6650  1.0106
10079SOL    HW232870   6.801   1.617   3.423 -0.5201 -1.0201  0.0573
10080SOL     OW32871   2.566   7.487   2.982 -0.5424  0.5175  0.2166
10080SOL    HW132872   2.506   7.490   3.057 -0.6375  0.7377  0.1312
10080SOL    HW232873   2.509   7.476   2.906 -0.4258 -0.0285  0.2034
10081SOL     OW32874   4.947   1.676   7.223 -0.4947 -0.2333 -0.1901
10081SOL    HW132875   4.924   1.762   7.258 -0.5869  0.5671 -2.0707
10081SOL    HW232876   4.864   1.639   7.192 -0.7784 -1.8730  2.2351
10082SOL     OW32877   0.544  10.181   0.262  0.0820  0.7478  0.0500
10082SOL    HW132878   0.500  10.189   0.347  0.7719 -1.0329  0.6424
10082SOL    HW232879   0.552  10.270   0.229 -0.1942  1.4788  1.8778
10083SOL     OW32880   0.279   5.745   1.677  0.3914  0.4873  0.3303
10083SOL    HW132881   0.248   5.675   1.618  1.5006  1.8159 -1.9433
10083SOL    HW232882   0.374   5.736   1.677  0.5907  2.3123 -0.4485
10084SOL     OW32883   8.801   5.238   9.330  0.3632  0.3385  0.4170
10084SOL    HW132884   8.752   5.319   9.346 -0.3004  0.2379 -0.9431
10084SOL    HW232885   8.820   5.203   9.417  0.0378  1.5860  1.0071
10085SOL     OW32886   4.408   9.058   8.267  0.1646 -0.4460 -0.2977
10085SOL    HW132887   4.346   9.059   8.194  0.4248  0.7661 -0.5266
10085SOL    HW232888   4.361   9.097   8.340  1.0692  1.9124 -0.8814
10086SOL     OW32889   0.781   3.404   6.204  0.2860  0.0939 -0.6092
10086SOL    HW132890   0.738   3.483   6.172 -0.0056  0.4086  0.5293
10086SOL    HW232891   0.819   3.429   6.288  0.9443 -0.7430 -0.6446
10087SOL     OW32892   5.298   9.832   4.727  0.9708  0.4213 -0.2532
10087SOL    HW132893   5.293   9.787   4.811 -1.6053  0.7945 -0.1240
10087SOL    HW232894   5.286   9.924   4.749 -1.9608  0.3302 -1.1232
10088SOL     OW32895   4.196   6.472   1.070 -0.9863 -0.7772 -0.4753
10088SOL    HW132896   4.163   6.554   1.108  2.4992 -0.0636  1.4585
10088SOL    HW232897   4.228   6.422   1.146  0.2242 -2.3205 -1.9248
10089SOL     OW32898   9.537   5.560   3.210 -0.1682 -0.2016  0.4512
10089SOL    HW132899   9.620   5.604   3.192 -0.6426  0.4670 -0.1565
10089SOL    HW232900   9.557   5.467   3.205  0.7434 -0.0681  1.2500
10090SOL     OW32901   2.495   7.040   4.562 -0.1403 -0.2847 -0.7862
10090SOL    HW132902   2.517   6.950   4.537  0.4894 -0.7137  1.0947
10090SOL    HW232903   2.401   7.039   4.577 -0.1568 -0.5941 -0.9117
10091SOL     OW32904   0.246   1.369   7.137 -0.7607 -0.0779  0.3551
10091SOL    HW132905   0.340   1.384   7.140 -0.4722 -1.6281 -0.0998
10091SOL    HW232906   0.210   1.451   7.103  0.6407 -0.1837 -1.5749
10092SOL     OW32907   4.927   1.623   6.629  0.5724  0.0120  0.3349
10092SOL    HW132908   4.879   1.588   6.554  2.1940  0.5161 -0.9922
10092SOL    HW232909   5.004   1.567   6.636  0.0094 -0.5923  2.2315
10093SOL     OW32910   6.199   4.829   1.491 -0.1675 -0.0944 -0.4724
10093SOL    HW132911   6.291   4.836   1.464 -0.2188 -0.9125 -0.8810
10093SOL    HW232912   6.179   4.915   1.527  1.1742 -0.3232  0.9538
10094SOL     OW32913   1.324   2.683   9.661 -0.5631 -0.7299  0.2009
10094SOL    HW132914   1.397   2.644   9.708 -0.9456  0.3135  1.7386
10094SOL    HW232915   1.247   2.659   9.712 -0.9388  0.8127  0.3984
10095SOL     OW32916   1.286   9.892   7.011  0.2608  0.4744  0.1574
10095SOL    HW132917   1.208   9.860   6.965 -0.2956 -2.1587  2.5611
10095SOL    HW232918   1.358   9.877   6.951 -0.7326 -0.2032 -0.9030
10096SOL     OW32919   4.042   6.108   2.316 -0.0611 -0.3857 -0.4198
10096SOL    HW132920   4.034   6.192   2.361 -0.9143 -0.3960 -0.5340
10096SOL    HW232921   4.125   6.114   2.268 -1.2408  1.3979 -2.4372
10097SOL     OW32922   9.748   6.716   1.178  0.0812 -0.9473  0.0856
10097SOL    HW132923   9.736   6.693   1.086 -0.1331 -0.0632 -0.1205
10097SOL    HW232924   9.824   6.665   1.206  0.9195 -0.2897 -0.9315
10098SOL     OW32925   5.504   6.158   7.862  0.4464 -0.3519 -0.1723
10098SOL    HW132926   5.440   6.088   7.878  1.6905 -1.7860 -1.2491
10098SOL    HW232927   5.498   6.213   7.940 -1.5191 -0.8819  0.1099
10099SOL     OW32928   5.936   0.324   1.596  0.0406 -0.8452 -0.1804
10099SOL    HW132929   5.973   0.282   1.518 -0.2636  0.3193 -0.9917
10099SOL    HW232930   6.013   0.354   1.645  0.2268 -0.0419 -0.9365
10100SOL     OW32931   8.048   6.090   2.680  0.0918 -0.1406  0.8948
10100SOL    HW132932   8.051   6.002   2.716  0.1706  0.1403  1.6044
10100SOL    HW232933   7.956   6.103   2.656  0.7011 -1.9447 -3.2667
10101SOL     OW32934   3.117   7.108   1.331 -0.0517  0.2359  0.8686
10101SOL    HW132935   3.048   7.057   1.374  0.3398 -0.8680  0.2306
10101SOL    HW232936   3.108   7.088   1.238  0.4194  0.9635  0.6591
10102SOL     OW32937   8.701   9.961   9.963 -0.3742 -0.0776  0.2860
10102SOL    HW132938   8.649   9.905  10.020 -0.9124 -1.1051 -1.1641
10102SOL    HW232939   8.656  10.046   9.963 -1.4378 -0.6261 -0.0697
10103SOL     OW32940   9.335   9.074   0.408  0.0053  0.2083 -0.0637
10103SOL    HW132941   9.409   9.134   0.399 -0.7327  1.4388  1.5906
10103SOL    HW232942   9.375   8.987   0.403  1.4403  0.8380 -0.1372
10104SOL     OW32943   8.021   7.579   2.710 -0.3009  0.2926 -0.2319
10104SOL    HW132944   8.013   7.650   2.772  0.5230  0.1775  0.0143
10104SOL    HW232945   8.085   7.520   2.748  0.6449  0.4957 -1.4349
10105SOL     OW32946   0.965   2.305   9.430  0.4874 -0.6924  0.1442
10105SOL    HW132947   0.950   2.330   9.521  0.5590  2.1156 -0.5327
10105SOL    HW232948   1.039   2.359   9.402 -0.1020 -0.8438 -1.8237
10106SOL     OW32949   6.159   4.996   3.701 -0.0204 -0.3211 -0.6979
10106SOL    HW132950   6.178   5.065   3.637  1.2117  0.3428  0.3223
10106SOL    HW232951   6.185   5.034   3.785 -1.4453 -1.2188  0.2065
10107SOL     OW32952   0.180   1.332   8.685 -0.0327  0.1494 -0.0800
10107SOL    HW132953   0.177   1.366   8.595 -0.2485 -0.1408 -0.1810
10107SOL    HW232954   0.233   1.253   8.679 -0.5189 -0.1782 -0.0490
10108SOL     OW32955   7.611   6.264   8.294 -0.3117  0.0492 -0.2940
10108SOL    HW132956   7.518   6.247   8.278 -0.5091  0.3843  0.4535
10108SOL    HW232957   7.655   6.185   8.265 -0.9927 -0.8080  0.9225
10109SOL     OW32958   8.476   9.948   0.330  0.3283 -0.2443 -0.0318
10109SOL    HW132959   8.522   9.916   0.408  1.2433  2.6340  0.7292
10109SOL    HW232960   8.524  10.026   0.304 -0.5199 -0.6078 -2.9885
10110SOL     OW32961   9.833   1.904   8.744 -0.0096 -0.4466  0.2044
10110SOL    HW132962   9.855   1.996   8.728  1.7129 -0.8670 -0.0037
10110SOL    HW232963   9.811   1.869   8.657  0.7438 -0.5692  0.0553
10111SOL     OW32964   6.635   5.933   2.810 -0.0971 -0.4896  0.5457
10111SOL    HW132965   6.668   5.888   2.732 -2.5087 -2.0600  0.3399
10111SOL    HW232966   6.683   5.893   2.882  0.6621 -0.5080  0.0473
10112SOL     OW32967   3.560   9.600   9.157 -0.6072 -0.3380  0.1631
10112SOL    HW132968   3.530   9.600   9.066  1.0682 -0.1043 -0.4358
10112SOL    HW232969   3.581   9.691   9.175 -0.7951 -0.4070  0.7474
10113SOL     OW32970   5.967   2.668   1.601  0.0254 -0.0744 -0.6802
10113SOL    HW132971   5.913   2.716   1.663  0.2899 -0.1580 -0.3817
10113SOL    HW232972   5.981   2.583   1.643 -0.2907 -0.3470 -1.1223
10114SOL     OW32973   2.446   1.374   2.834  0.2587  0.1887  0.1991
10114SOL    HW132974   2.410   1.315   2.768  2.5785  0.2411 -1.2315
10114SOL    HW232975   2.385   1.448   2.835  0.8554  0.8726 -3.0500
10115SOL     OW32976   7.710   9.571   3.520 -0.1118 -0.2075  0.1130
10115SOL    HW132977   7.723   9.620   3.439  4.0613 -0.9651  0.0790
10115SOL    HW232978   7.646   9.621   3.569  1.3251  3.3836 -1.3518
10116SOL     OW32979  10.014   8.768   5.115 -0.0403  0.1199  0.5676
10116SOL    HW132980  10.051   8.727   5.037 -2.4000 -1.7282  0.2828
10116SOL    HW232981   9.942   8.709   5.141  0.3033  0.9339  3.8287
10117SOL     OW32982   3.800   1.859   9.069 -0.2054 -0.1181 -0.1044
10117SOL    HW132983   3.742   1.923   9.028 -0.4239  0.1744  0.6492
10117SOL    HW232984   3.775   1.860   9.162  0.8817 -0.1214  0.1968
10118SOL     OW32985   7.041   8.840   4.738  0.2774  0.1572 -0.2554
10118SOL    HW132986   6.998   8.887   4.666  1.1646  0.5255 -0.5540
10118SOL    HW232987   7.100   8.778   4.694  1.9920  1.4515  0.1131
10119SOL     OW32988   8.816   1.811   3.629  0.5140  0.1892  0.4429
10119SOL    HW132989   8.737   1.771   3.666  0.3995 -0.7001 -0.7026
10119SOL    HW232990   8.808   1.799   3.535  1.9728  0.1529  0.2908
10120SOL     OW32991   5.698   9.358   3.323  0.1049  0.1116 -0.0173
10120SOL    HW132992   5.643   9.290   3.285 -0.8340  0.7456  0.1649
10120SOL    HW232993   5.732   9.319   3.403 -0.2338 -0.2342 -0.0382
10121SOL     OW32994   2.580   1.243   3.032 -0.3976 -0.1826 -0.1517
10121SOL    HW132995   2.671   1.218   3.017 -0.5026 -0.3672 -0.4865
10121SOL    HW232996   2.553   1.283   2.950 -0.0499  1.5909  0.5491
10122SOL     OW32997   1.026   6.510   4.946  0.1636 -0.0215  0.3520
10122SOL    HW132998   0.990   6.523   4.858 -1.5615 -0.2922  0.9853
10122SOL    HW232999   0.991   6.582   4.998  1.4840  0.3573  0.7615
10123SOL     OW33000   1.653   9.389   8.367  0.2792 -0.2624 -0.1342
10123SOL    HW133001   1.723   9.345   8.414  0.3324 -0.7821 -0.6961
10123SOL    HW233002   1.687   9.403   8.279  0.0290  0.3435 -0.1432
10124SOL     OW33003   4.770   8.539   5.192 -0.3009  0.0489 -0.4260
10124SOL    HW133004   4.795   8.631   5.188  1.0544 -0.2786 -0.1504
10124SOL    HW233005   4.733   8.519   5.106 -2.5554  1.3458  0.1704
10125SOL     OW33006   9.867   0.992   9.156  0.6510 -0.1739 -0.6806
10125SOL    HW133007   9.952   0.952   9.139  1.2478 -0.7364  2.8504
10125SOL    HW233008   9.887   1.077   9.195 -0.2406 -1.0295  1.8273
10126SOL     OW33009   7.878   5.324   2.349  0.2917  0.4037 -0.0554
10126SOL    HW133010   7.797   5.321   2.399  1.1838 -0.3915  1.4057
10126SOL    HW233011   7.928   5.248   2.378  2.5260  2.0617  0.8372
10127SOL     OW33012   5.646   2.715   5.351  0.1618  0.5432  0.0894
10127SOL    HW133013   5.588   2.767   5.406 -1.8507 -0.9012 -0.5411
10127SOL    HW233014   5.592   2.642   5.322  2.5265 -1.2627 -0.0255
10128SOL     OW33015   7.898   4.162  10.330 -0.3971 -0.5789  0.0261
10128SOL    HW133016   7.912   4.245  10.285 -0.2785 -1.1743 -1.0883
10128SOL    HW233017   7.813   4.172  10.373 -0.2387  0.2180  0.1676
10129SOL     OW33018   4.813   2.206   5.589 -0.7599 -0.2604 -0.3274
10129SOL    HW133019   4.784   2.119   5.561 -1.5880 -0.4671  1.1207
10129SOL    HW233020   4.846   2.194   5.678 -0.0644  0.7547 -0.4223
10130SOL     OW33021   8.055   7.520   4.353  0.5633 -0.0097  0.2640
10130SOL    HW133022   7.992   7.453   4.324 -0.2564  0.8677 -0.0233
10130SOL    HW233023   8.070   7.501   4.445 -1.6864  0.9596  0.8823
10131SOL     OW33024   9.557   7.781   1.236  0.5299  0.0422 -0.1186
10131SOL    HW133025   9.581   7.699   1.278 -0.1622  0.1667  0.5313
10131SOL    HW233026   9.607   7.781   1.154  1.0790 -0.6887  0.2087
10132SOL     OW33027   2.223   5.691   5.746 -0.0626 -0.4853  0.1871
10132SOL    HW133028   2.163   5.755   5.786  1.4027  0.8211  0.3893
10132SOL    HW233029   2.292   5.679   5.811 -0.1785 -2.1185  0.0389
10133SOL     OW33030   6.076   5.393   9.206  0.0610 -0.1542 -0.1704
10133SOL    HW133031   6.114   5.406   9.293  0.9814 -0.8543 -0.4543
10133SOL    HW233032   6.128   5.323   9.167 -2.2838 -2.0443 -0.1353
10134SOL     OW33033   5.792   8.739   8.984  0.3918  0.0274  0.4934
10134SOL    HW133034   5.734   8.665   9.001 -0.3386  0.6018  0.5762
10134SOL    HW233035   5.734   8.816   8.985  0.7426  0.4070 -1.7525
10135SOL     OW33036   3.767   8.094   8.858  0.3578 -0.2480  0.2600
10135SOL    HW133037   3.676   8.085   8.885  0.9951 -2.7457  1.8549
10135SOL    HW233038   3.809   8.138   8.932  0.9427 -1.5845  0.7437
10136SOL     OW33039   4.834   4.133   4.376  0.2363 -0.0666  0.1175
10136SOL    HW133040   4.757   4.168   4.419  0.8920  0.7601  0.6503
10136SOL    HW233041   4.858   4.199   4.311  0.2702 -0.5027 -0.3273
10137SOL     OW33042   3.493   1.731   3.300 -0.5619  0.0501  0.0571
10137SOL    HW133043   3.514   1.690   3.216  1.4832 -1.1503  1.0762
10137SOL    HW233044   3.425   1.675   3.338 -0.1376 -0.5135  0.0033
10138SOL     OW33045   3.428   2.927   2.193  0.0586 -0.6278 -0.0208
10138SOL    HW133046   3.384   3.002   2.233 -0.7305 -1.8176  1.4301
10138SOL    HW233047   3.367   2.898   2.124 -0.8641 -1.4201  1.0729
10139SOL     OW33048   6.975   8.522   5.951  0.2765  0.1434  0.2834
10139SOL    HW133049   6.949   8.432   5.932 -1.5495  1.2655 -3.2451
10139SOL    HW233050   7.069   8.524   5.932  0.3427 -0.9953  0.4119
10140SOL     OW33051   8.139   2.245   2.557 -0.0545 -0.2681 -0.0953
10140SOL    HW133052   8.134   2.250   2.461  4.1593  1.0784 -0.4308
10140SOL    HW233053   8.232   2.254   2.577 -0.8699  0.7256  4.2373
10141SOL     OW33054   1.178   3.529   0.932  0.2513  0.1151 -0.9627
10141SOL    HW133055   1.251   3.557   0.987  1.6858 -2.4326 -1.4038
10141SOL    HW233056   1.146   3.449   0.973 -0.4152 -0.3613 -2.3389
10142SOL     OW33057   1.760   2.338   6.406 -0.3682  0.0839 -0.1229
10142SOL    HW133058   1.778   2.280   6.479 -0.4634 -0.3346 -0.4271
10142SOL    HW233059   1.836   2.396   6.401 -0.6998  0.6156  0.7740
10143SOL     OW33060   5.432   2.595   5.137  0.0707  0.1141 -0.1681
10143SOL    HW133061   5.340   2.596   5.110  0.3579  0.9856 -1.1538
10143SOL    HW233062   5.475   2.537   5.075  0.3755  0.5515 -0.3706
10144SOL     OW33063   0.694   5.013   3.815 -0.2710  0.2937 -0.1366
10144SOL    HW133064   0.788   5.029   3.802 -0.2578 -0.3960 -0.9495
10144SOL    HW233065   0.689   4.920   3.835 -0.6396  0.6475  1.5052
10145SOL     OW33066   3.953   5.005   4.453 -0.2629 -0.9518  0.2895
10145SOL    HW133067   3.994   5.085   4.419 -1.2811 -0.5824 -0.1101
10145SOL    HW233068   4.008   4.934   4.419 -0.1393 -0.4903 -0.4969
10146SOL     OW33069   9.074   2.198  10.280  0.6635  0.0318  0.2234
10146SOL    HW133070   9.145   2.191  10.344 -0.0814 -2.0415  0.9059
10146SOL    HW233071   9.012   2.259  10.319  0.3947 -0.9217  1.3688
10147SOL     OW33072   9.674   1.851   8.452  0.1098  0.4726 -0.5162
10147SOL    HW133073   9.718   1.827   8.371  2.2278 -0.7053  0.8779
10147SOL    HW233074   9.655   1.767   8.495  2.3212  1.0174  1.7977
10148SOL     OW33075   5.657   5.849   1.710 -0.0325  0.1983 -0.1589
10148SOL    HW133076   5.636   5.820   1.621 -0.0150 -0.2996 -0.0032
10148SOL    HW233077   5.612   5.933   1.719 -0.3371  0.0750 -0.5086
10149SOL     OW33078   6.432   1.185   2.277  0.0911  0.2008 -0.3187
10149SOL    HW133079   6.455   1.242   2.351  0.8766  0.7884 -0.9956
10149SOL    HW233080   6.377   1.117   2.316  1.6138 -0.3101  1.1157
10150SOL     OW33081   7.991   4.964   0.788 -0.2368  0.1441  0.4715
10150SOL    HW133082   8.082   4.934   0.791  0.2263  0.8289 -2.7638
10150SOL    HW233083   7.991   5.034   0.723 -2.9867  0.5970  0.8435
10151SOL     OW33084   9.186   5.576   2.051  0.0308  0.1927 -0.2012
10151SOL    HW133085   9.106   5.620   2.078 -2.0792 -2.4156 -1.6338
10151SOL    HW233086   9.231   5.555   2.132 -1.8622 -0.1129  0.8372
10152SOL     OW33087   4.209   3.302   4.821  0.2554 -0.7607  0.4440
10152SOL    HW133088   4.186   3.222   4.774 -0.1073 -0.6402  0.4132
10152SOL    HW233089   4.126   3.336   4.853  0.4916 -0.8073  1.1314
10153SOL     OW33090   3.500   7.025   3.459 -0.1816 -0.0582 -0.4490
10153SOL    HW133091   3.409   6.996   3.446  0.4534 -2.3735 -0.2579
10153SOL    HW233092   3.546   6.994   3.380  0.0598  3.2803 -1.7562
10154SOL     OW33093  10.331   0.273   3.407  0.1229 -0.1515  0.1794
10154SOL    HW133094  10.322   0.275   3.312 -1.2233 -0.6941  0.2615
10154SOL    HW233095  10.424   0.258   3.423  0.2226 -0.9467 -1.0641
10155SOL     OW33096   5.882   0.417   8.629 -0.4594 -0.1578 -0.9601
10155SOL    HW133097   5.802   0.403   8.579 -0.6944 -1.4036 -0.2863
10155SOL    HW233098   5.853   0.421   8.720  0.0647  1.1164 -0.8274
10156SOL     OW33099   8.203   0.902   6.722 -0.0350 -0.0854  0.2061
10156SOL    HW133100   8.193   0.810   6.697  1.7719 -1.2184  3.1445
10156SOL    HW233101   8.289   0.926   6.688  0.0014  0.1660  0.4814
10157SOL     OW33102   3.985   1.223   2.536 -0.2774 -0.2007 -0.2844
10157SOL    HW133103   4.024   1.246   2.620  1.0804 -0.7347 -0.7498
10157SOL    HW233104   3.956   1.133   2.546 -1.6014  0.2416  0.1111
10158SOL     OW33105   5.783   1.825   0.179  0.0300  0.1416 -0.1524
10158SOL    HW133106   5.705   1.772   0.166 -0.0323  0.3237 -0.5421
10158SOL    HW233107   5.751   1.914   0.196  0.0610 -0.2685  2.4762
10159SOL     OW33108   6.461   2.694   5.240  0.4333  0.2514  0.4770
10159SOL    HW133109   6.480   2.635   5.313  1.2206 -0.2566 -0.1252
10159SOL    HW233110   6.424   2.637   5.173  2.1903  0.2166 -0.5185
10160SOL     OW33111   7.163   5.769   2.743 -0.1516  0.0501  0.2356
10160SOL    HW133112   7.120   5.824   2.807  1.7865 -2.0124  3.5944
10160SOL    HW233113   7.211   5.830   2.687  0.1005  1.9025  2.3369
10161SOL     OW33114   4.613   7.056   9.259  0.1200 -0.8437 -0.1015
10161SOL    HW133115   4.602   7.131   9.201 -0.7836  1.6057  2.9616
10161SOL    HW233116   4.690   7.011   9.225  0.4295  1.1791 -2.3615
10162SOL     OW33117   8.379   0.915   8.822  0.9905  0.3052 -0.2721
10162SOL    HW133118   8.337   0.909   8.908 -0.0587  0.1216 -0.7756
10162SOL    HW233119   8.460   0.865   8.832  0.5597 -0.2863  0.4317
10163SOL     OW33120   5.650   4.387   4.178  0.4945 -0.4401  0.2464
10163SOL    HW133121   5.669   4.419   4.266  0.0825  1.1989 -0.2370
10163SOL    HW233122   5.737   4.369   4.141  0.7774  0.6558  0.3459
10164SOL     OW33123   1.261   7.989   3.239  0.1610  0.4805 -0.4407
10164SOL    HW133124   1.263   8.084   3.254  0.4133  0.1424  1.9568
10164SOL    HW233125   1.347   7.969   3.201  0.2063  1.1649 -0.7075
10165SOL     OW33126   3.792   1.247   4.822  0.3118  0.5492 -0.3655
10165SOL    HW133127   3.821   1.276   4.736  2.0292  0.1722  0.0362
10165SOL    HW233128   3.861   1.187   4.851 -0.0977  0.8492  1.3584
10166SOL     OW33129   1.237   3.386   6.820  0.3622 -0.3101  0.0464
10166SOL    HW133130   1.184   3.435   6.758 -1.9462 -0.0517  2.0738
10166SOL    HW233131   1.304   3.448   6.850  0.3135  0.1326 -0.7427
10167SOL     OW33132   7.729   3.292   9.558 -0.4356  0.2828 -0.2841
10167SOL    HW133133   7.724   3.200   9.533 -0.8704  0.4077 -0.6782
10167SOL    HW233134   7.641   3.313   9.592 -1.3488  1.3262 -3.0115
10168SOL     OW33135   5.888   5.468   2.709  0.0732  0.5929  0.0111
10168SOL    HW133136   5.976   5.499   2.686 -0.2076  1.7897  0.4664
10168SOL    HW233137   5.829   5.532   2.670 -0.6927 -0.9698 -1.5040
10169SOL     OW33138   5.588   7.751   4.085 -0.1622  0.2540 -0.0653
10169SOL    HW133139   5.682   7.742   4.097 -0.2317 -0.6716 -0.1791
10169SOL    HW233140   5.558   7.798   4.163  0.2273 -0.4998  0.5553
10170SOL     OW33141   4.705   6.341   1.964  0.3475 -0.1539 -0.0189
10170SOL    HW133142   4.652   6.299   2.032  0.0116  0.5402  0.1590
10170SOL    HW233143   4.654   6.418   1.938  0.9971  0.2060 -0.2610
10171SOL     OW33144   1.102  10.293   2.477  0.6320  0.4320  0.2721
10171SOL    HW133145   1.144  10.211   2.452  1.4250  1.0212 -0.3678
10171SOL    HW233146   1.171  10.341   2.523  0.8435  1.6388 -1.2617
10172SOL     OW33147   0.089   2.428   6.379  0.0184 -0.4607 -0.4269
10172SOL    HW133148   0.046   2.484   6.443  0.2865 -0.8540  0.1116
10172SOL    HW233149   0.155   2.380   6.430  0.3216 -0.6892 -1.0210
10173SOL     OW33150   5.861   5.839   0.337  0.4206 -0.3602 -0.0233
10173SOL    HW133151   5.820   5.926   0.338 -0.0021 -0.5393 -0.8799
10173SOL    HW233152   5.949   5.854   0.373 -0.2636  0.0745  1.5756
10174SOL     OW33153   6.705   5.457   1.121  0.2618 -0.5933 -0.0710
10174SOL    HW133154   6.661   5.378   1.091  1.0239 -1.0433 -0.0256
10174SOL    HW233155   6.795   5.429   1.139  0.9360  0.5705 -1.4197
10175SOL     OW33156   6.841   9.708   1.234 -0.2975  0.8114  0.0204
10175SOL    HW133157   6.859   9.642   1.300 -0.2022 -0.6358 -1.3746
10175SOL    HW233158   6.745   9.715   1.232 -0.2794  1.2834  0.6919
10176SOL     OW33159   1.731   4.235   2.375  0.7147  0.0076 -0.2191
10176SOL    HW133160   1.671   4.169   2.410 -0.0273 -0.0497 -1.4991
10176SOL    HW233161   1.808   4.185   2.347  1.2162  0.0302  1.0769
10177SOL     OW33162   1.831   6.733   1.837 -0.4273 -0.3623 -0.0459
10177SOL    HW133163   1.779   6.688   1.771  1.1775  0.8331 -2.2431
10177SOL    HW233164   1.790   6.820   1.844  0.1432 -0.0578 -0.4140
10178SOL     OW33165   0.531   1.686   8.667 -0.4502  0.1347  0.5539
10178SOL    HW133166   0.590   1.751   8.628  0.9501 -1.3830  0.0500
10178SOL    HW233167   0.466   1.669   8.599  0.1474 -0.1945  0.0556
10179SOL     OW33168   2.274   1.690   8.825 -0.1477 -0.4629 -0.0264
10179SOL    HW133169   2.235   1.624   8.768 -0.8664  0.0463 -0.1318
10179SOL    HW233170   2.224   1.684   8.906  1.5976 -1.9857  1.0354
10180SOL     OW33171   6.250   4.635   5.723  0.3510 -0.5788  0.4338
10180SOL    HW133172   6.218   4.711   5.773 -1.1164 -2.2442  2.1921
10180SOL    HW233173   6.271   4.671   5.637 -0.8804  1.7129  0.9889
10181SOL     OW33174   2.586   9.784   5.231  0.1196  0.7041 -0.0887
10181SOL    HW133175   2.504   9.764   5.185  0.3201 -0.0382 -0.1433
10181SOL    HW233176   2.594   9.879   5.227 -1.8415  1.0401  1.7432
10182SOL     OW33177   8.655   0.330  10.228  0.0164  0.5000 -0.7869
10182SOL    HW133178   8.660   0.338  10.133  1.5007  2.0349 -0.6199
10182SOL    HW233179   8.643   0.420  10.259  0.2333  0.0997  0.5141
10183SOL     OW33180   9.098   4.716   3.180  0.2244  0.6596  0.3267
10183SOL    HW133181   9.149   4.647   3.223 -0.1133 -0.8572 -1.6001
10183SOL    HW233182   9.008   4.701   3.209  0.2188  0.5908  0.2728
10184SOL     OW33183   4.948   6.759   4.762 -0.2658 -0.0943  0.7827
10184SOL    HW133184   4.917   6.734   4.849  0.0980 -0.1328  0.9011
10184SOL    HW233185   4.971   6.676   4.720 -0.9282 -0.1255  0.4565
10185SOL     OW33186   5.015   5.762  10.093  0.2020 -0.4213 -0.2632
10185SOL    HW133187   5.008   5.760  10.189  2.6957  1.6572  0.0615
10185SOL    HW233188   4.948   5.825  10.066 -0.4742 -0.9741  0.0947
10186SOL     OW33189   4.987   4.316   2.974  0.4761 -0.6212  0.4402
10186SOL    HW133190   5.046   4.392   2.980 -0.2924 -0.0091  0.3838
10186SOL    HW233191   5.042   4.247   2.936  0.9995  0.1200 -0.1996
10187SOL     OW33192   2.441   5.975   5.035  0.5859 -0.1969  0.2249
10187SOL    HW133193   2.403   6.061   5.018  0.8257 -0.1978 -0.3493
10187SOL    HW233194   2.368   5.924   5.070  0.8963  0.7712  2.4017
10188SOL     OW33195   4.422   8.713   4.982 -0.4713  0.0112  0.2170
10188SOL    HW133196   4.470   8.640   4.942 -0.0642 -0.8794  2.1841
10188SOL    HW233197   4.480   8.744   5.052 -0.9278  1.8280 -0.1523
10189SOL     OW33198   0.719   8.426   9.028  0.1062  0.3381 -0.1924
10189SOL    HW133199   0.657   8.498   9.037  1.7481  1.7293  0.6412
10189SOL    HW233200   0.667   8.353   8.995 -1.8815  1.5171  0.1851
10190SOL     OW33201   5.535   9.220   3.101  0.0719 -0.6079 -0.0291
10190SOL    HW133202   5.615   9.270   3.087  0.6708 -1.1499  1.2657
10190SOL    HW233203   5.528   9.163   3.025 -2.0585  3.1227 -2.9951
10191SOL     OW33204  10.140   0.835   8.417 -0.4268  0.3623  0.1354
10191SOL    HW133205  10.111   0.744   8.411 -1.5518  0.6745  0.5652
10191SOL    HW233206  10.101   0.877   8.340 -0.5809  0.6470  0.3667
10192SOL     OW33207   4.827   3.708   3.381 -0.4969 -0.3312 -0.4403
10192SOL    HW133208   4.868   3.651   3.315  0.0796  1.2319 -1.4893
10192SOL    HW233209   4.743   3.733   3.343 -0.2579  0.4085 -0.4927
10193SOL     OW33210   8.258   3.853   2.742  0.4110  0.7514 -0.4806
10193SOL    HW133211   8.279   3.928   2.685  1.9707 -0.5302 -1.6854
10193SOL    HW233212   8.297   3.778   2.698 -0.6907 -0.7320  0.9442
10194SOL     OW33213   9.658   1.225   9.279 -0.3037  0.1276 -0.3207
10194SOL    HW133214   9.753   1.212   9.281 -0.0692  1.5481 -0.9659
10194SOL    HW233215   9.647   1.320   9.277 -1.8125  0.0616  1.7352
10195SOL     OW33216   7.113   8.556   9.467 -0.1162 -0.3939 -0.1563
10195SOL    HW133217   7.187   8.517   9.420  0.0366 -1.0390  0.5929
10195SOL    HW233218   7.078   8.485   9.520 -1.0051  0.0249 -0.1651
10196SOL     OW33219  10.302   0.641   9.467  0.1877  0.5014 -0.0246
10196SOL    HW133220  10.280   0.618   9.377 -0.1067  0.3052  0.0964
10196SOL    HW233221  10.241   0.712   9.489 -1.4309 -1.0697  0.8316
10197SOL     OW33222   5.636   7.465   6.809 -0.0587 -0.1240 -0.1790
10197SOL    HW133223   5.562   7.472   6.749  0.0461 -1.4836 -0.4992
10197SOL    HW233224   5.597   7.470   6.896 -0.3588  0.5208 -0.3412
10198SOL     OW33225   0.504   0.342   4.672 -0.3142 -0.3039  0.6366
10198SOL    HW133226   0.525   0.392   4.593  1.4691  0.7566  1.6985
10198SOL    HW233227   0.477   0.256   4.640 -0.6259  0.4161 -1.1420
10199SOL     OW33228   2.542   3.452   1.550 -0.4590  0.8476 -0.1183
10199SOL    HW133229   2.544   3.393   1.475  1.1287 -1.5340  1.6190
10199SOL    HW233230   2.600   3.524   1.525  0.0986  0.0708 -1.1660
10200SOL     OW33231   1.165   5.088   1.822  0.1398 -0.6334  0.0617
10200SOL    HW133232   1.260   5.084   1.807 -0.1526 -1.8327 -1.8308
10200SOL    HW233233   1.129   5.120   1.740 -1.0358  1.1697  1.2342
10201SOL     OW33234   0.318   2.970   0.877 -0.4452 -0.5348 -0.2150
10201SOL    HW133235   0.385   2.932   0.821 -1.2397  0.6024 -2.0369
10201SOL    HW233236   0.356   3.053   0.906 -1.0969  0.2082 -1.4169
10202SOL     OW33237   6.908  10.070   2.421 -0.7527 -0.0591  0.2284
10202SOL    HW133238   6.931  10.115   2.502 -0.8450  1.3123 -0.4803
10202SOL    HW233239   6.840  10.008   2.447 -2.0739  1.5949  0.9327
10203SOL     OW33240   3.209   4.948   8.639  0.2410  0.1223  0.1124
10203SOL    HW133241   3.179   4.860   8.620  0.5863  0.2057 -0.8611
10203SOL    HW233242   3.280   4.936   8.702  0.1474 -0.2766  0.1409
10204SOL     OW33243   3.400   7.976   5.772 -0.4056  0.6832  0.3755
10204SOL    HW133244   3.441   7.930   5.845 -2.4373 -0.0300  1.1387
10204SOL    HW233245   3.439   8.063   5.774  0.7173  0.1851  1.3194
10205SOL     OW33246   2.060   8.310   2.947 -0.3045  0.7594 -0.2222
10205SOL    HW133247   2.082   8.276   2.860  1.9299 -0.1458  0.6226
10205SOL    HW233248   2.100   8.397   2.950 -0.6487  0.9172 -0.2068
10206SOL     OW33249   0.998   4.184   4.457 -0.6235 -0.0270  0.1660
10206SOL    HW133250   0.974   4.273   4.435  0.2532  0.2272  0.2100
10206SOL    HW233251   1.058   4.192   4.531 -0.4334 -0.6429  0.0911
10207SOL     OW33252   9.260   2.645   9.214  0.5418 -0.0642  0.1851
10207SOL    HW133253   9.246   2.591   9.137 -0.0318  0.2406  0.0727
10207SOL    HW233254   9.210   2.602   9.283 -1.5662  1.3619 -0.3633
10208SOL     OW33255   4.029   6.225   5.989  0.3251  0.0298  0.3710
10208SOL    HW133256   4.057   6.285   5.920 -3.0627  1.8112  0.3830
10208SOL    HW233257   3.971   6.163   5.945 -1.5258  0.9159  1.4728
10209SOL     OW33258   5.773   3.002   5.198  0.0066  0.1120 -0.1086
10209SOL    HW133259   5.748   3.058   5.272  0.4505 -0.9431  0.8775
10209SOL    HW233260   5.786   3.063   5.125  0.1037  1.2453  0.8165
10210SOL     OW33261   3.825   9.597   0.392  0.5334  0.2654 -0.3971
10210SOL    HW133262   3.815   9.576   0.299 -0.6433  1.2182 -0.5201
10210SOL    HW233263   3.802   9.515   0.437  1.0330 -0.1814 -0.9286
10211SOL     OW33264   3.368   0.328   0.795  0.3650 -0.3949  0.3650
10211SOL    HW133265   3.314   0.370   0.728  0.1595  0.1179  0.8485
10211SOL    HW233266   3.444   0.385   0.804 -0.6365  0.7322  2.1178
10212SOL     OW33267   3.316   8.069   0.107 -0.2499 -0.0524  0.4879
10212SOL    HW133268   3.222   8.074   0.089  0.1121  3.1127 -1.3145
10212SOL    HW233269   3.324   8.083   0.201 -1.5438  0.4126  0.5396
10213SOL     OW33270   8.735   0.374   3.554 -0.3716  0.4894 -0.2906
10213SOL    HW133271   8.706   0.287   3.582  0.9875 -0.0969 -0.6229
10213SOL    HW233272   8.669   0.403   3.491 -1.2176  0.0205  0.3536
10214SOL     OW33273   8.489   4.764   7.311 -0.4055  0.0667 -0.2096
10214SOL    HW133274   8.450   4.851   7.310  1.6097  1.0467  0.7070
10214SOL    HW233275   8.555   4.768   7.381  1.8461 -1.2039 -2.1103
10215SOL     OW33276   1.981   6.678   5.638  0.1971 -0.6954 -0.2430
10215SOL    HW133277   1.937   6.604   5.679 -0.1237 -0.1319  0.4617
10215SOL    HW233278   2.054   6.699   5.696 -2.0411  2.0607  1.8501
10216SOL     OW33279   6.446   7.560   1.233 -0.1170  0.0833  0.4970
10216SOL    HW133280   6.498   7.539   1.311  0.1775 -1.5537 -0.1066
10216SOL    HW233281   6.501   7.533   1.160 -1.1886 -0.2376 -0.2101
10217SOL     OW33282   7.907   5.650   5.000  0.7872  0.4037 -0.3964
10217SOL    HW133283   7.985   5.598   5.020  1.1309  1.5606  1.4918
10217SOL    HW233284   7.848   5.588   4.959  2.2095 -0.8213 -0.6913
10218SOL     OW33285   0.934   1.523   0.539  0.2817  0.0798  0.6127
10218SOL    HW133286   0.881   1.601   0.526  0.1801  0.0251  0.7055
10218SOL    HW233287   0.872   1.454   0.562  0.2717 -0.2287 -0.2899
10219SOL     OW33288   0.498   0.925   7.113 -1.0015 -0.7717 -0.3177
10219SOL    HW133289   0.509   0.924   7.208  2.0478  2.1595 -0.4267
10219SOL    HW233290   0.424   0.984   7.098 -0.2267  0.3957  0.2784
10220SOL     OW33291   1.980   6.331   5.419  0.0868  0.0686 -0.0502
10220SOL    HW133292   2.004   6.299   5.506  1.2585 -1.1851 -0.7955
10220SOL    HW233293   2.035   6.408   5.406  1.4963 -0.9671 -0.4863
10221SOL     OW33294   5.527   2.408   6.529 -0.0595 -0.4924 -0.4324
10221SOL    HW133295   5.540   2.389   6.622  0.2069  1.4143 -0.0552
10221SOL    HW233296   5.615   2.409   6.493 -0.0571  0.2091 -0.4070
10222SOL     OW33297   1.233  10.067   2.445 -0.5806  0.3785 -0.6192
10222SOL    HW133298   1.273  10.011   2.378 -0.9579 -1.8211  0.8608
10222SOL    HW233299   1.188  10.005   2.503  1.1304  1.9081  2.6214
10223SOL     OW33300   0.247   9.352   4.080 -0.2300  0.1568 -0.1010
10223SOL    HW133301   0.216   9.263   4.096  0.2173 -0.1849 -1.0594
10223SOL    HW233302   0.256   9.390   4.167  0.1412 -0.9329  0.3618
10224SOL     OW33303   0.830   9.992  10.031 -0.4046  0.4333 -0.1128
10224SOL    HW133304   0.860   9.982  10.121  1.3395 -0.8813 -0.7742
10224SOL    HW233305   0.858  10.080  10.006 -0.5876  0.6741  0.5070
10225SOL     OW33306   2.353   4.618   3.972 -0.1478  0.1479  0.1014
10225SOL    HW133307   2.383   4.580   4.055 -0.0429 -0.3215 -0.1467
10225SOL    HW233308   2.432   4.656   3.933  0.6586 -2.9440 -1.5571
10226SOL     OW33309   2.284   2.008   8.250  0.2764  0.1876  0.0710
10226SOL    HW133310   2.227   1.937   8.278 -0.6630  0.2900 -1.4830
10226SOL    HW233311   2.225   2.082   8.236  0.9448  0.6354 -0.4179
10227SOL     OW33312   7.397   7.328   5.707 -0.1826 -0.2085 -0.1612
10227SOL    HW133313   7.477   7.349   5.660 -0.2710 -1.9312 -1.1395
10227SOL    HW233314   7.381   7.405   5.762  3.0672 -0.5090  1.3987
10228SOL     OW33315   8.646   2.677   3.627  0.0879  0.1790 -0.2317
10228SOL    HW133316   8.660   2.608   3.693 -0.9438  0.9173  0.8042
10228SOL    HW233317   8.726   2.729   3.630  0.2236 -0.0440  0.1385
10229SOL     OW33318   6.854   5.913   3.962  0.0454  0.1236  0.6217
10229SOL    HW133319   6.812   5.980   4.016 -0.0655 -0.2265  0.9748
10229SOL    HW233320   6.859   5.952   3.875 -2.5555 -0.4263  0.1339
10230SOL     OW33321   1.878   0.879   9.364  0.7510  0.1785  0.1908
10230SOL    HW133322   1.813   0.886   9.294  2.0144 -1.1873 -1.1787
10230SOL    HW233323   1.944   0.944   9.343  1.6215 -0.8843 -0.4757
10231SOL     OW33324   8.460   1.264   1.177  0.2080  0.0408 -0.5033
10231SOL    HW133325   8.529   1.232   1.235 -0.1133  1.3573  0.6578
10231SOL    HW233326   8.414   1.185   1.148  0.5421 -0.6670  0.8297
10232SOL     OW33327   1.817   5.930   3.856 -0.4861  0.1331 -0.0993
10232SOL    HW133328   1.818   6.026   3.854 -1.1334  0.1372 -1.3448
10232SOL    HW233329   1.848   5.908   3.944  0.6545  1.4488 -0.1260
10233SOL     OW33330   0.480   7.042   3.204 -0.7144 -0.2482 -0.7731
10233SOL    HW133331   0.576   7.044   3.202 -0.5983 -1.1841  1.2455
10233SOL    HW233332   0.458   6.949   3.215 -1.8648 -0.0591 -1.3480
10234SOL     OW33333   2.409   0.174   7.574 -0.6529 -0.0018  0.7154
10234SOL    HW133334   2.454   0.256   7.593 -0.7070 -0.0266  0.9587
10234SOL    HW233335   2.366   0.188   7.490 -0.7478  0.2562  0.8063
10235SOL     OW33336   1.627   3.058   6.653 -0.3078 -0.2245 -0.7578
10235SOL    HW133337   1.613   3.080   6.745 -1.7792 -2.0457 -0.4696
10235SOL    HW233338   1.620   3.141   6.607  0.9752  0.8020  0.8096
10236SOL     OW33339   6.182   0.407   7.881  0.3774 -0.9346  0.0668
10236SOL    HW133340   6.132   0.406   7.800 -0.6457 -1.5152  0.6873
10236SOL    HW233341   6.261   0.357   7.861  0.0679 -1.1978 -0.5240
10237SOL     OW33342   2.753   8.136   6.098 -0.1272  0.3825  0.1095
10237SOL    HW133343   2.772   8.219   6.142  2.7650 -0.1132 -0.0090
10237SOL    HW233344   2.782   8.150   6.007  1.3026 -0.9807  0.3094
10238SOL     OW33345   4.110   9.741   2.764 -0.2479  0.0288 -0.4305
10238SOL    HW133346   4.109   9.701   2.677 -0.2728  0.3823 -0.5915
10238SOL    HW233347   4.102   9.666   2.824 -0.3019 -0.2091 -0.7301
10239SOL     OW33348   8.105   6.746   1.394  0.5197 -0.1542  0.1702
10239SOL    HW133349   8.133   6.703   1.475  0.8881 -0.0232  0.1114
10239SOL    HW233350   8.159   6.824   1.388  1.4952 -0.8813 -0.9251
10240SOL     OW33351   3.966   6.110   4.288  0.3475  0.0842 -0.4183
10240SOL    HW133352   3.909   6.124   4.212 -0.9068  0.2124  0.5165
10240SOL    HW233353   3.967   6.015   4.299 -0.2406  0.1130 -0.0486
10241SOL     OW33354   2.795   5.290   1.411  0.5410 -0.5549 -0.2930
10241SOL    HW133355   2.853   5.219   1.384  1.8778 -0.5276  2.2192
10241SOL    HW233356   2.852   5.367   1.417 -0.5928  0.4353 -1.5451
10242SOL     OW33357   5.860   7.229   9.589  0.5524 -0.1667 -0.0224
10242SOL    HW133358   5.888   7.138   9.580  0.4520 -0.0736 -1.5458
10242SOL    HW233359   5.941   7.279   9.592  0.5927 -0.1866 -0.7378
10243SOL     OW33360   4.489   9.330   0.352  0.5107  0.0180 -0.4620
10243SOL    HW133361   4.402   9.349   0.385 -0.3490 -1.4337 -1.7585
10243SOL    HW233362   4.487   9.361   0.261  2.1370  2.0497  0.0940
10244SOL     OW33363   1.497   3.379   1.958 -0.6033 -0.2756 -0.2661
10244SOL    HW133364   1.408   3.412   1.971 -1.0019 -0.7422 -1.6485
10244SOL    HW233365   1.489   3.285   1.972 -0.1592 -0.2344  0.3176
10245SOL     OW33366   4.483   8.481   6.080 -0.3147 -0.3511 -0.1343
10245SOL    HW133367   4.396   8.516   6.101  0.3179  1.9937 -1.1336
10245SOL    HW233368   4.539   8.510   6.152 -0.0231 -0.4586 -0.3144
10246SOL     OW33369   6.797   6.474   0.092 -0.2402 -0.2750 -0.2124
10246SOL    HW133370   6.860   6.415   0.133  0.5641  0.6247 -0.1243
10246SOL    HW233371   6.850   6.541   0.049 -1.0973 -0.2547 -1.3170
10247SOL     OW33372   0.163   2.558   3.448 -0.5784  0.4374  0.3597
10247SOL    HW133373   0.196   2.594   3.365  0.2437 -0.9148  0.0767
10247SOL    HW233374   0.085   2.508   3.423 -0.1666 -0.2083  0.3485
10248SOL     OW33375   7.513   0.029   3.693  1.3185  0.1559 -0.7914
10248SOL    HW133376   7.496  -0.005   3.781 -0.3792  2.2989 -0.2096
10248SOL    HW233377   7.459  -0.025   3.635  0.4729  0.3450 -0.1901
10249SOL     OW33378   5.824   8.712   2.792 -0.2792 -0.4726 -0.1317
10249SOL    HW133379   5.810   8.697   2.699  1.4448 -0.4835 -0.4086
10249SOL    HW233380   5.916   8.736   2.800 -0.7800  1.2046  1.3761
10250SOL     OW33381   5.202   4.121   2.949  0.3340 -0.5726 -0.4840
10250SOL    HW133382   5.277   4.068   2.921 -0.0943 -1.1813 -0.5032
10250SOL    HW233383   5.125   4.069   2.924 -0.0833 -0.3278  0.2680
10251SOL     OW33384   7.141   4.582   3.118 -0.0928  0.2601  0.3860
10251SOL    HW133385   7.130   4.489   3.100  0.4137  0.3099 -0.2221
10251SOL    HW233386   7.055   4.620   3.103 -0.0959  0.0224 -0.2414
10252SOL     OW33387   6.838   2.088   4.633  0.5091 -0.3276 -0.1077
10252SOL    HW133388   6.762   2.055   4.584  0.2892 -2.6020  1.6100
10252SOL    HW233389   6.906   2.098   4.567 -0.0504 -2.3872 -1.0808
10253SOL     OW33390   1.991   9.254   0.561  0.5113 -0.3260  0.1690
10253SOL    HW133391   1.996   9.185   0.626  0.4937  0.4090  0.9757
10253SOL    HW233392   2.029   9.216   0.482  1.9641 -0.7418  1.0378
10254SOL     OW33393   9.062   7.419   3.173 -0.3077 -0.3798  0.2008
10254SOL    HW133394   9.063   7.324   3.161 -0.6866 -0.6139  1.7112
10254SOL    HW233395   9.143   7.450   3.132  0.2736 -1.4779  0.4928
10255SOL     OW33396   7.805   0.301   7.242  0.8130 -0.0854 -0.2697
10255SOL    HW133397   7.826   0.309   7.336 -0.6352 -1.7981  0.2527
10255SOL    HW233398   7.711   0.318   7.237  0.5502 -1.6704 -1.1457
10256SOL     OW33399   3.181   1.944   4.955  0.1901 -0.4747  0.1165
10256SOL    HW133400   3.188   1.893   4.874  0.7123 -2.1930  1.1790
10256SOL    HW233401   3.244   1.903   5.015  0.5242  1.3596  1.1085
10257SOL     OW33402   1.604   6.561   5.439 -0.7438  0.1813 -0.5884
10257SOL    HW133403   1.512   6.585   5.433 -0.7323  0.4000  0.0774
10257SOL    HW233404   1.649   6.627   5.386 -0.7263  1.6106  1.1242
10258SOL     OW33405   1.668   0.944   9.745  0.5706  0.0731 -0.2248
10258SOL    HW133406   1.697   1.027   9.709  1.9342  0.2913  1.2368
10258SOL    HW233407   1.744   0.886   9.736 -0.3552 -1.0298 -1.2061
10259SOL     OW33408   2.121   8.633   7.116  1.1763  0.0494 -0.2283
10259SOL    HW133409   2.122   8.624   7.021  0.3557  0.6444 -0.3032
10259SOL    HW233410   2.032   8.663   7.136  0.9717 -1.1515  0.8267
10260SOL     OW33411   7.833   1.335   5.471 -0.0340 -0.2780 -0.0251
10260SOL    HW133412   7.806   1.254   5.428  0.0895  0.5463 -1.7356
10260SOL    HW233413   7.809   1.404   5.409  1.5431  0.8513  0.5777
10261SOL     OW33414   5.512   4.378   9.222  0.4902 -0.6095  0.5230
10261SOL    HW133415   5.576   4.418   9.163 -0.5738  0.8620  0.3307
10261SOL    HW233416   5.505   4.439   9.295 -3.0411  0.9896 -0.9617
10262SOL     OW33417   1.227   3.949   5.998 -0.1118 -0.4211 -0.1772
10262SOL    HW133418   1.295   3.981   5.938  0.8976 -0.6079  0.8390
10262SOL    HW233419   1.170   4.025   6.012  0.6364  0.1169 -0.0191
10263SOL     OW33420   1.378   6.833   5.441  0.2415 -0.2101  0.2420
10263SOL    HW133421   1.473   6.831   5.452  0.2187  0.2707  0.5475
10263SOL    HW233422   1.362   6.906   5.382  0.1099 -0.7304 -0.3776
10264SOL     OW33423   8.983   6.513   0.773  0.0553  0.2909 -0.1297
10264SOL    HW133424   8.954   6.598   0.738  1.3475  0.1450 -1.6238
10264SOL    HW233425   8.960   6.450   0.706  1.6141 -0.1480 -0.2871
10265SOL     OW33426   2.767   3.333   8.529  0.8728  0.1646  0.6612
10265SOL    HW133427   2.771   3.237   8.527 -1.4204 -0.0172  1.1573
10265SOL    HW233428   2.688   3.354   8.479  2.1467  1.9272 -0.7171
10266SOL     OW33429  10.322   0.519   7.596 -0.0731  1.0445  0.2254
10266SOL    HW133430  10.375   0.504   7.674  1.4334 -3.0246 -1.3091
10266SOL    HW233431  10.276   0.436   7.583 -2.1562  2.4238 -1.9183
10267SOL     OW33432   6.876   4.092   9.065 -0.2856 -0.6969 -0.0756
10267SOL    HW133433   6.879   4.045   8.982 -0.3901  0.5477 -0.8061
10267SOL    HW233434   6.844   4.027   9.128  0.1884 -1.7702 -0.9131
10268SOL     OW33435   9.766   5.354   3.512 -0.1138 -0.3474 -0.1355
10268SOL    HW133436   9.859   5.342   3.493 -0.0900  0.3306 -0.4748
10268SOL    HW233437   9.730   5.395   3.433 -0.7217 -0.7082 -0.0502
10269SOL     OW33438   2.389  10.220   1.938 -0.1018  0.0760  0.2746
10269SOL    HW133439   2.478  10.249   1.953 -0.5902  0.6951  2.1680
10269SOL    HW233440   2.394  10.124   1.938  0.6102  0.1105 -0.0443
10270SOL     OW33441   0.601   4.353   1.633 -0.1443  0.1751  0.3504
10270SOL    HW133442   0.581   4.262   1.655 -0.2144  0.4893  1.6620
10270SOL    HW233443   0.656   4.383   1.704  1.3285  0.6797 -0.9426
10271SOL     OW33444   2.773   3.625   3.208  0.6548 -0.3211 -0.0041
10271SOL    HW133445   2.823   3.706   3.194  0.8136 -0.4456 -0.1671
10271SOL    HW233446   2.839   3.560   3.232  0.5638 -0.4751 -0.1686
10272SOL     OW33447   9.313   0.574   9.970 -0.3771 -0.3970  0.0958
10272SOL    HW133448   9.397   0.610  10.000 -1.3535  2.6226 -0.5036
10272SOL    HW233449   9.337   0.492   9.926  1.8083 -1.5114  3.0092
10273SOL     OW33450   0.502   4.908   1.188 -0.2473 -0.0187 -0.1873
10273SOL    HW133451   0.409   4.928   1.178  0.1035  1.8092 -0.1562
10273SOL    HW233452   0.535   4.975   1.247  1.2061 -0.2968 -0.6327
10274SOL     OW33453   5.950   0.575   0.848  0.4786 -0.4029 -1.0099
10274SOL    HW133454   5.925   0.485   0.825  0.2855 -0.1025 -2.0268
10274SOL    HW233455   5.976   0.615   0.765 -0.4667  0.8022 -0.7687
10275SOL     OW33456   6.009   0.127   0.921 -0.4090  0.0613 -0.2784
10275SOL    HW133457   5.985   0.083   1.002 -0.1072 -2.0680 -1.2865
10275SOL    HW233458   6.086   0.179   0.943  0.1821 -1.1655  0.6144
10276SOL     OW33459   4.705   4.597   4.149  0.4273  0.2477  0.5084
10276SOL    HW133460   4.786   4.633   4.113  1.5776 -2.4352  0.1684
10276SOL    HW233461   4.712   4.612   4.243 -0.0007  2.4024  0.2478
10277SOL     OW33462   2.251   3.038   1.532  0.2286  0.5851 -0.4808
10277SOL    HW133463   2.267   2.996   1.447  0.2964  0.2858 -0.3245
10277SOL    HW233464   2.209   3.121   1.511 -2.3270 -0.6648 -0.7172
10278SOL     OW33465   1.688   1.810   8.280 -0.1183 -0.6606  0.1079
10278SOL    HW133466   1.735   1.810   8.196  0.1180  0.1349  0.2308
10278SOL    HW233467   1.704   1.897   8.316 -1.0917 -0.6200  0.4884
10279SOL     OW33468   7.759   0.262   9.200 -0.6065 -0.4460  0.5402
10279SOL    HW133469   7.752   0.290   9.291  1.5391 -1.0506  0.9306
10279SOL    HW233470   7.717   0.176   9.198  1.9071 -1.7742  1.6649
10280SOL     OW33471   9.196   0.245   9.631  0.0270  0.8187  0.1556
10280SOL    HW133472   9.277   0.293   9.611  0.5394 -0.0688  0.0683
10280SOL    HW233473   9.197   0.236   9.726 -0.1237  1.0702  0.1814
10281SOL     OW33474   0.651   8.325   0.988 -0.0973  0.3402 -0.1903
10281SOL    HW133475   0.694   8.410   0.998  1.7550 -0.6632  0.9736
10281SOL    HW233476   0.559   8.343   1.006  0.3576  1.9776  0.7309
10282SOL     OW33477   9.885   5.194   6.684  0.4248 -0.6208 -0.1987
10282SOL    HW133478   9.856   5.283   6.703  1.2222 -0.4598  0.3202
10282SOL    HW233479   9.980   5.200   6.678  0.4023 -1.1828 -1.5808
10283SOL     OW33480   7.330   9.712  10.086 -0.0599 -0.5425  0.1135
10283SOL    HW133481   7.310   9.626  10.122  0.4942 -1.0116 -0.6716
10283SOL    HW233482   7.424   9.724  10.103  0.0715 -0.5081 -0.6151
10284SOL     OW33483   4.918   0.346  10.320  0.1134  0.4214 -0.4920
10284SOL    HW133484   4.991   0.315  10.374 -0.0550 -0.7689 -0.9176
10284SOL    HW233485   4.939   0.314  10.232 -1.1045 -0.2693 -0.5505
10285SOL     OW33486   4.778   9.371   7.439  0.0452  0.2534 -0.4889
10285SOL    HW133487   4.758   9.464   7.424  1.0608  0.7468  0.9895
10285SOL    HW233488   4.695   9.326   7.422 -0.8521  1.5901  0.1111
10286SOL     OW33489   6.332   4.173   9.274  0.4098  0.3860  0.4517
10286SOL    HW133490   6.295   4.208   9.355  1.1094  2.5347 -0.0840
10286SOL    HW233491   6.321   4.078   9.281 -1.4833  0.6598  2.0788
10287SOL     OW33492   6.372   9.138   2.275  0.2027  0.2943  0.1227
10287SOL    HW133493   6.393   9.058   2.226 -0.4751 -1.2253  2.1629
10287SOL    HW233494   6.457   9.182   2.286  0.3418  0.9021 -2.6034
10288SOL     OW33495   5.166   6.250   9.158  0.0805  0.0910  0.1809
10288SOL    HW133496   5.218   6.315   9.206 -1.8897  1.4026  0.7009
10288SOL    HW233497   5.166   6.173   9.214  1.3598  0.0952  0.2047
10289SOL     OW33498   9.300   5.743   9.075  0.0465 -0.1099  0.4308
10289SOL    HW133499   9.252   5.728   9.157 -0.2015  0.6276  0.4305
10289SOL    HW233500   9.231   5.749   9.008  0.2067 -0.0355  0.2732
10290SOL     OW33501   1.087   0.668   6.921 -0.4937 -0.1034  0.0755
10290SOL    HW133502   1.059   0.723   6.849 -0.9837 -0.4352  0.0065
10290SOL    HW233503   1.012   0.666   6.981 -0.4449 -0.6027  0.1291
10291SOL     OW33504   4.785   0.447   0.742  0.0927  0.3544  0.4995
10291SOL    HW133505   4.817   0.362   0.774  0.5158  0.5360  0.5643
10291SOL    HW233506   4.754   0.428   0.653 -0.5513 -0.0303  0.7933
10292SOL     OW33507   2.128   4.879   9.782  0.0024 -0.3451  0.1546
10292SOL    HW133508   2.171   4.962   9.803  1.3489 -1.2962  1.3597
10292SOL    HW233509   2.068   4.864   9.855 -0.0615 -0.5464  0.0611
10293SOL     OW33510   9.512   3.322   9.148 -0.0435  0.0168  0.5096
10293SOL    HW133511   9.596   3.308   9.106  0.2746 -1.9173  1.6389
10293SOL    HW233512   9.447   3.306   9.079  0.4885 -1.6401  0.3568
10294SOL     OW33513   3.336   7.674   8.658 -0.8040 -0.6991 -0.2027
10294SOL    HW133514   3.372   7.589   8.685 -0.1422 -0.6390 -0.8689
10294SOL    HW233515   3.381   7.738   8.712 -1.6044 -0.7905  0.5952
10295SOL     OW33516   0.922   3.138   1.672 -0.3466 -0.8152  0.0355
10295SOL    HW133517   0.828   3.125   1.683 -0.3264 -1.6645 -0.6633
10295SOL    HW233518   0.937   3.227   1.702 -1.2306 -0.9542  0.9557
10296SOL     OW33519   5.615   2.574   6.171 -0.3173 -0.0555 -0.5769
10296SOL    HW133520   5.539   2.515   6.174  0.0812 -0.5476  0.3592
10296SOL    HW233521   5.602   2.626   6.092 -1.9402  0.2692 -0.1386
10297SOL     OW33522   0.002   2.831   2.481 -0.0067  0.3814 -0.9129
10297SOL    HW133523  -0.047   2.901   2.524 -1.6089 -1.4322  0.3882
10297SOL    HW233524   0.093   2.860   2.484 -0.2841  1.2953  1.9117
10298SOL     OW33525   4.202   5.242   5.570 -0.5287 -0.5133 -0.1205
10298SOL    HW133526   4.165   5.252   5.657  2.6506  2.7334  1.1320
10298SOL    HW233527   4.144   5.293   5.513  0.5181  2.6760  1.3907
10299SOL     OW33528   7.076   8.749   7.533 -0.6263 -0.5356 -0.1755
10299SOL    HW133529   7.059   8.787   7.446  0.3101 -1.4609 -0.7800
10299SOL    HW233530   7.129   8.815   7.578  0.1168 -0.6702 -0.8391
10300SOL     OW33531   4.653   0.199   8.770 -0.2988 -0.1075  0.2194
10300SOL    HW133532   4.737   0.224   8.808 -0.4389  1.2152 -0.2764
10300SOL    HW233533   4.667   0.111   8.735  0.4488 -0.4736  1.4077
10301SOL     OW33534   4.596   2.710   5.561 -0.3941  0.3947  0.3766
10301SOL    HW133535   4.532   2.781   5.554 -0.7585  0.0178 -0.2339
10301SOL    HW233536   4.680   2.751   5.538 -0.4202  0.8715  1.0975
10302SOL     OW33537   9.159   1.274   4.816  0.1110  0.2798 -0.0917
10302SOL    HW133538   9.173   1.182   4.794  2.6088  0.4097  0.6219
10302SOL    HW233539   9.227   1.321   4.767  0.4436  1.4458  1.4036
10303SOL     OW33540   1.640   3.760   1.522  0.4620  0.6863 -0.0590
10303SOL    HW133541   1.609   3.688   1.577  1.4003  0.3962  0.1140
10303SOL    HW233542   1.686   3.818   1.583 -0.8457  1.7780 -0.0875
10304SOL     OW33543   6.251   2.084   1.900 -0.0513 -0.4913  0.2994
10304SOL    HW133544   6.182   2.151   1.896 -2.2444 -2.6247 -2.9951
10304SOL    HW233545   6.323   2.121   1.850 -1.5772 -0.7407 -2.2753
10305SOL     OW33546   7.369   3.334   3.039 -0.0388 -0.7525  0.1292
10305SOL    HW133547   7.366   3.378   3.123  2.0255 -0.3345  0.0375
10305SOL    HW233548   7.277   3.317   3.017 -0.7085  0.7170  1.6044
10306SOL     OW33549   4.469   5.154   5.016  1.0322 -1.2047 -0.3862
10306SOL    HW133550   4.467   5.216   4.943  0.9629 -0.5205  0.1888
10306SOL    HW233551   4.399   5.091   4.996 -2.2306  1.5707  1.3114
10307SOL     OW33552   0.063   2.494   5.053 -0.3874  0.5064  0.2977
10307SOL    HW133553   0.093   2.452   5.134 -1.4354 -2.4530 -0.7376
10307SOL    HW233554   0.132   2.474   4.989 -0.7043  0.7452 -0.1196
10308SOL     OW33555   0.119   3.446   0.985 -0.3143  0.0321  0.1403
10308SOL    HW133556   0.162   3.468   1.068  1.9941  0.0179 -0.9830
10308SOL    HW233557   0.120   3.351   0.983  5.2513 -0.2701 -2.3701
10309SOL     OW33558   5.192   0.421   4.232 -0.4219  0.4339  0.1247
10309SOL    HW133559   5.098   0.408   4.244 -0.5144  0.1332 -0.8724
10309SOL    HW233560   5.232   0.342   4.268 -0.5656  0.4254  0.2673
10310SOL     OW33561   9.717   4.140   5.279 -0.1636 -0.5115  0.0731
10310SOL    HW133562   9.642   4.200   5.273 -0.2833 -0.5717  0.9306
10310SOL    HW233563   9.774   4.168   5.207  0.2060  1.2254  0.9725
10311SOL     OW33564   9.608   5.517   9.807 -0.3825 -0.1830  0.2265
10311SOL    HW133565   9.571   5.556   9.887  1.2438  0.0070  0.9452
10311SOL    HW233566   9.648   5.435   9.837 -0.0280 -0.2664 -0.4552
10312SOL     OW33567   1.496   8.508   0.902 -0.4104  0.4695  0.4726
10312SOL    HW133568   1.435   8.535   0.833  1.7509  2.6095 -0.7434
10312SOL    HW233569   1.566   8.573   0.899  2.6562 -2.5166  0.9043
10313SOL     OW33570   2.431   5.139  10.054  0.2064 -0.2339 -0.3631
10313SOL    HW133571   2.432   5.081   9.978 -1.9639  0.1004 -0.7092
10313SOL    HW233572   2.405   5.082  10.127 -1.9673  0.2049 -0.7097
10314SOL     OW33573   7.173   3.053   2.280  0.4902 -0.4797  0.3247
10314SOL    HW133574   7.254   3.063   2.331 -0.0353 -0.0076  1.0888
10314SOL    HW233575   7.173   2.962   2.252  1.3211 -0.4684  0.2622
10315SOL     OW33576  10.339   9.047   7.808 -0.2166  0.2506  0.0504
10315SOL    HW133577  10.369   9.077   7.722 -0.0513  2.2542  0.7428
10315SOL    HW233578  10.408   9.076   7.869 -0.4529 -0.8974  0.9136
10316SOL     OW33579   9.527   7.553   2.307 -0.0738  0.1293 -0.2370
10316SOL    HW133580   9.471   7.554   2.229 -1.4133  0.1119  0.6960
10316SOL    HW233581   9.514   7.638   2.347  1.9259  0.7982 -0.8975
10317SOL     OW33582   4.222   6.233   0.927 -0.1280 -0.6999  0.1068
10317SOL    HW133583   4.231   6.256   0.835  1.4330 -0.3952  0.3193
10317SOL    HW233584   4.208   6.316   0.972 -0.5873 -0.8198  0.1967
10318SOL     OW33585   8.380   7.836   2.755 -0.3793 -0.4141  0.2440
10318SOL    HW133586   8.340   7.905   2.809 -0.6798 -1.3065  1.2054
10318SOL    HW233587   8.337   7.844   2.670  0.7216  1.5942 -0.1857
10319SOL     OW33588   4.240   2.387   5.677  0.3249 -0.7413  0.4779
10319SOL    HW133589   4.160   2.429   5.709  0.5774  0.5343 -0.4912
10319SOL    HW233590   4.253   2.313   5.736  0.5660  1.2583  3.1324
10320SOL     OW33591   1.122   8.727   2.560  0.3728  0.1219 -0.2100
10320SOL    HW133592   1.204   8.743   2.607  1.3638  0.7189 -2.0432
10320SOL    HW233593   1.145   8.738   2.468 -1.6840 -0.1597 -0.7996
10321SOL     OW33594   3.029   3.465   2.950 -0.3376 -0.3547  1.0468
10321SOL    HW133595   3.012   3.559   2.943 -1.4566 -0.6697 -1.4636
10321SOL    HW233596   2.960   3.424   2.897  1.5990 -2.4549 -0.0144
10322SOL     OW33597   8.112   0.015   0.344 -0.0621  0.3317 -0.1941
10322SOL    HW133598   8.151  -0.070   0.327 -0.1832  0.3474 -0.5693
10322SOL    HW233599   8.156   0.047   0.422  1.5528  0.8684 -1.2661
10323SOL     OW33600   1.477   6.527   7.069 -0.7394  0.2174  0.4140
10323SOL    HW133601   1.512   6.607   7.030 -2.5478  1.8645  1.9647
10323SOL    HW233602   1.547   6.463   7.057  0.8053  2.0019 -0.8671
10324SOL     OW33603   4.892   5.947   9.864 -0.2050  0.4508  0.2137
10324SOL    HW133604   4.986   5.945   9.843  0.1685 -0.7325  1.7695
10324SOL    HW233605   4.850   5.981   9.785  1.5951  1.6788 -0.2734
10325SOL     OW33606   7.175   9.128   9.200 -0.4859 -0.0345  0.1846
10325SOL    HW133607   7.150   9.160   9.113  0.1713 -1.7367 -0.6648
10325SOL    HW233608   7.102   9.073   9.227 -0.4377  0.0452  0.4792
10326SOL     OW33609   0.125   8.448   5.106  0.0307 -0.5126 -0.0576
10326SOL    HW133610   0.037   8.429   5.073 -0.3924  1.7589 -0.3976
10326SOL    HW233611   0.111   8.511   5.177  1.3468 -0.7660  0.4586
10327SOL     OW33612   8.391  10.292   2.348  0.3382 -0.2749  0.1485
10327SOL    HW133613   8.445  10.319   2.423 -2.6612  1.7709  1.7690
10327SOL    HW233614   8.442  10.318   2.271  1.9825  0.8877  1.5539
10328SOL     OW33615   5.675   8.731   7.883 -0.0826  0.0990 -0.1803
10328SOL    HW133616   5.714   8.813   7.913  0.1950 -0.2881  0.5396
10328SOL    HW233617   5.699   8.725   7.790 -0.9925  1.3411 -0.5297
10329SOL     OW33618   3.664   9.176   2.428 -0.0138 -0.4422 -0.2195
10329SOL    HW133619   3.675   9.152   2.336 -0.7199 -1.1867 -0.1239
10329SOL    HW233620   3.662   9.272   2.428 -2.6258 -0.4067 -1.3479
10330SOL     OW33621   7.203   0.664   0.753  0.1858 -0.0587 -0.2053
10330SOL    HW133622   7.162   0.580   0.773  1.5180 -0.3988  1.3371
10330SOL    HW233623   7.208   0.709   0.837  3.5159 -0.3490 -0.1140
10331SOL     OW33624   2.541   1.711   5.896  0.4907 -0.4651  0.4614
10331SOL    HW133625   2.503   1.796   5.873  0.4390 -0.9102 -1.3012
10331SOL    HW233626   2.546   1.664   5.812  2.2381 -1.5101  1.1047
10332SOL     OW33627   4.958   8.088  10.245 -0.7066  0.2115 -0.1778
10332SOL    HW133628   5.005   8.062  10.166 -0.0924 -0.2719  0.3282
10332SOL    HW233629   4.872   8.115  10.215 -0.3038  0.5343 -1.0664
10333SOL     OW33630   2.083   6.031   0.105  0.5923  0.0421 -0.0569
10333SOL    HW133631   2.101   6.049   0.197  2.5480 -0.1518 -0.3620
10333SOL    HW233632   2.016   5.962   0.107 -2.2118  2.5556  1.1251
10334SOL     OW33633   7.564   1.742   9.904  0.6964  0.5568  0.0587
10334SOL    HW133634   7.519   1.827   9.898  1.6829  1.2306  1.4598
10334SOL    HW233635   7.648   1.763   9.946  0.0159 -1.4112  2.6658
10335SOL     OW33636   6.161   1.150   7.703 -0.6413  0.0105 -0.3776
10335SOL    HW133637   6.150   1.223   7.764 -2.1441  0.4184 -1.0849
10335SOL    HW233638   6.091   1.089   7.726  1.4453 -2.0107  1.1842
10336SOL     OW33639   2.466   5.694   3.002 -0.3337 -0.0654  0.5765
10336SOL    HW133640   2.379   5.703   3.039 -0.0570  0.2676  1.1627
10336SOL    HW233641   2.462   5.740   2.919 -0.9207 -0.6876  0.2527
10337SOL     OW33642   6.111   6.305   2.315 -0.4191  0.6802 -0.2023
10337SOL    HW133643   6.090   6.390   2.355 -0.5967  0.9048 -0.7697
10337SOL    HW233644   6.112   6.322   2.221  0.0281  0.1576 -0.2977
10338SOL     OW33645   7.895   3.231   0.940 -0.1039  0.0454 -0.1662
10338SOL    HW133646   7.825   3.297   0.938  0.1327  0.4851  2.4102
10338SOL    HW233647   7.878   3.176   0.864 -2.3743  1.0231 -0.4595
10339SOL     OW33648   4.615   0.838   1.425  0.4113  0.1533 -0.1373
10339SOL    HW133649   4.644   0.855   1.336 -0.1811 -0.7924 -0.5252
10339SOL    HW233650   4.695   0.841   1.478  0.4790  3.1987 -0.2609
10340SOL     OW33651   9.204   7.768   2.346  0.0721 -0.5567 -0.2258
10340SOL    HW133652   9.207   7.679   2.382 -2.1177 -0.3540  0.6359
10340SOL    HW233653   9.218   7.757   2.252  2.0134 -1.5396  0.1275
10341SOL     OW33654   4.412   6.559   1.492  0.3815  0.1390  0.3147
10341SOL    HW133655   4.429   6.495   1.560  0.2359  0.0310  0.2501
10341SOL    HW233656   4.459   6.637   1.520 -0.3037  0.3426  0.9257
10342SOL     OW33657   5.941   3.977   6.676  0.0796 -0.2161  0.4314
10342SOL    HW133658   5.977   3.984   6.588 -1.5547  1.0683 -0.2080
10342SOL    HW233659   6.012   4.004   6.734  0.9071 -0.2056 -0.5652
10343SOL     OW33660   1.932   8.938   0.167 -0.0822 -0.7605 -0.5549
10343SOL    HW133661   1.841   8.919   0.189 -0.3247  0.7663 -0.1428
10343SOL    HW233662   1.963   8.858   0.124 -1.2699 -1.7162  0.2872
10344SOL     OW33663   4.751   9.883   2.510  0.2361  0.1991 -0.1517
10344SOL    HW133664   4.684   9.879   2.578 -0.5284 -0.0209 -0.8961
10344SOL    HW233665   4.812   9.812   2.532 -1.2619 -1.4259 -0.9413
10345SOL     OW33666   8.317   2.517   9.842  0.0121 -0.9060  0.2802
10345SOL    HW133667   8.235   2.565   9.846 -0.2034 -1.3450  1.9396
10345SOL    HW233668   8.384   2.586   9.834 -0.4107 -0.4173  0.8002
10346SOL     OW33669   4.851   7.943   3.072  0.3565  0.1870  0.6889
10346SOL    HW133670   4.897   7.866   3.039  0.2796  0.7761 -0.8912
10346SOL    HW233671   4.770   7.908   3.108 -0.3122 -0.4062 -1.2227
10347SOL     OW33672   6.495   7.178   5.782 -0.6493 -0.0901 -0.5077
10347SOL    HW133673   6.534   7.241   5.721 -0.0928 -0.8120 -0.9203
10347SOL    HW233674   6.409   7.159   5.744 -0.1653 -0.8119 -1.3024
10348SOL     OW33675   9.452   4.289   6.023 -0.0068  0.1467  0.0170
10348SOL    HW133676   9.477   4.218   6.082 -1.7559 -1.3507 -0.9597
10348SOL    HW233677   9.362   4.270   5.999 -0.1607  2.1008 -1.1879
10349SOL     OW33678   7.673   3.245   2.016  0.1135  0.0961  0.3819
10349SOL    HW133679   7.713   3.332   2.012 -2.6680  1.4363 -2.7028
10349SOL    HW233680   7.617   3.248   2.094 -1.6513  2.0075 -0.8677
10350SOL     OW33681   7.637   6.378  10.036  0.0437 -0.1861  0.0427
10350SOL    HW133682   7.647   6.461   9.989  0.3612  0.6750  1.5697
10350SOL    HW233683   7.571   6.330   9.986  2.3383 -0.5457 -2.8886
10351SOL     OW33684  10.013   8.590   1.158 -0.1067  0.2520  0.0142
10351SOL    HW133685  10.006   8.499   1.130  1.0356 -0.0756  0.7212
10351SOL    HW233686   9.971   8.640   1.088 -0.4543 -0.7832 -0.5397
10352SOL     OW33687   5.295   9.629   4.453 -0.0279  0.2097  0.9294
10352SOL    HW133688   5.351   9.572   4.507 -2.2591 -1.2618  1.8230
10352SOL    HW233689   5.237   9.568   4.407  0.2616  1.5861 -1.3941
10353SOL     OW33690   1.237   4.416   4.876  0.4336  0.1548  0.4587
10353SOL    HW133691   1.291   4.474   4.929  0.3758  0.1351  0.5394
10353SOL    HW233692   1.147   4.438   4.900  0.2086  2.4585 -1.9722
10354SOL     OW33693   4.674   8.715   1.374  0.0718 -0.6294 -0.3575
10354SOL    HW133694   4.670   8.807   1.348  1.3905 -0.7572 -1.1052
10354SOL    HW233695   4.658   8.715   1.468 -0.6625  0.2753 -0.4685
10355SOL     OW33696   5.427   1.120   6.565  0.2674  0.4119  0.1634
10355SOL    HW133697   5.400   1.029   6.555  0.9400  0.1793  0.4339
10355SOL    HW233698   5.522   1.117   6.569  0.3592  1.2379 -0.8969
10356SOL     OW33699   3.694   6.888   7.299  0.0283 -0.0904  0.0239
10356SOL    HW133700   3.669   6.854   7.213  1.7014 -0.2509 -0.4215
10356SOL    HW233701   3.769   6.834   7.326  0.7700  1.2299  0.6971
10357SOL     OW33702   7.240   4.450   4.757  0.2350  0.4232 -0.7905
10357SOL    HW133703   7.279   4.496   4.832  0.6932  0.9619 -1.3485
10357SOL    HW233704   7.308   4.389   4.729 -1.0661 -2.1394  1.1925
10358SOL     OW33705   1.838   3.619   2.715  0.0942  0.0884 -0.1447
10358SOL    HW133706   1.753   3.578   2.698  0.3399 -0.0872 -1.0338
10358SOL    HW233707   1.818   3.711   2.727 -0.2758 -0.0295  0.1707
10359SOL     OW33708  10.261   5.426   1.173 -0.2141  0.1736 -0.1365
10359SOL    HW133709  10.272   5.338   1.208  0.7816 -0.1483 -1.1896
10359SOL    HW233710  10.166   5.439   1.169 -0.3673 -0.8200  0.0990
10360SOL     OW33711   7.027   3.445   6.023 -0.3228  0.5723  0.2187
10360SOL    HW133712   6.946   3.408   6.059  0.1635  1.5532  2.4939
10360SOL    HW233713   7.044   3.394   5.944 -2.1192 -0.9396  0.7462
10361SOL     OW33714   6.002   8.183   8.776  0.0174  0.2904 -0.4092
10361SOL    HW133715   5.986   8.216   8.688  2.6463 -0.0029 -1.0865
10361SOL    HW233716   6.092   8.210   8.795  0.4449 -1.9747  1.0925
10362SOL     OW33717   0.309   0.807   1.846  0.1093  0.1038  0.3739
10362SOL    HW133718   0.237   0.835   1.903 -0.0981 -0.3840  0.3636
10362SOL    HW233719   0.294   0.852   1.763  0.3621  0.7500  0.6723
10363SOL     OW33720   3.083   1.738   1.751 -0.3516 -0.0043  0.4309
10363SOL    HW133721   3.029   1.701   1.820  0.3095  0.7759  1.3844
10363SOL    HW233722   3.023   1.746   1.676 -1.7171  1.3609  1.6122
10364SOL     OW33723   6.695   4.832   8.587  0.3800 -0.1034  0.0448
10364SOL    HW133724   6.665   4.776   8.658 -2.2172  1.3962  0.2483
10364SOL    HW233725   6.717   4.771   8.516 -1.1794 -1.4463  0.6595
10365SOL     OW33726   7.616   1.455   1.870 -0.1782 -0.6222 -0.6445
10365SOL    HW133727   7.599   1.410   1.953  0.8834  1.5025  0.8278
10365SOL    HW233728   7.627   1.547   1.895 -4.7654  1.1513 -3.7042
10366SOL     OW33729   1.940   0.061   1.820  0.1717 -0.2391 -0.0625
10366SOL    HW133730   1.887   0.014   1.756 -1.2239  0.3176  0.6370
10366SOL    HW233731   1.983   0.130   1.769  1.8993 -1.9329 -1.0123
10367SOL     OW33732   4.350  10.158   6.279  0.1615 -0.0741 -0.2952
10367SOL    HW133733   4.386  10.190   6.196  1.9009  1.4776  0.9806
10367SOL    HW233734   4.426  10.137   6.332 -0.9223 -1.4745  0.7842
10368SOL     OW33735   0.777   5.617   3.162  0.1088 -0.3263 -0.4908
10368SOL    HW133736   0.864   5.603   3.200  1.1622  0.0744 -2.5847
10368SOL    HW233737   0.776   5.710   3.140 -1.7544  0.1899  1.4899
10369SOL     OW33738   3.488   5.004   2.566 -0.1931 -0.5433 -0.4043
10369SOL    HW133739   3.556   5.069   2.586  0.6929 -0.8464 -2.2646
10369SOL    HW233740   3.474   5.012   2.472 -1.6484 -1.5635 -0.3033
10370SOL     OW33741   6.265   1.136   3.811  0.2004 -0.0655 -0.1501
10370SOL    HW133742   6.206   1.128   3.886  2.2482 -1.5929  1.4367
10370SOL    HW233743   6.240   1.063   3.753  1.0052 -1.2201  0.9133
10371SOL     OW33744   3.613   5.310   7.764 -0.0715  0.0813  0.4891
10371SOL    HW133745   3.593   5.221   7.795  1.0655 -0.3179  0.1176
10371SOL    HW233746   3.704   5.325   7.790  0.0911  0.7179 -0.4179
10372SOL     OW33747   3.374   3.409   3.905  0.6777  0.0215 -0.3058
10372SOL    HW133748   3.363   3.493   3.860  1.1064 -0.0946 -0.6389
10372SOL    HW233749   3.415   3.431   3.988 -0.8161  0.3168  0.3692
10373SOL     OW33750   7.704   3.917  10.255 -1.0090 -0.6083 -0.5015
10373SOL    HW133751   7.797   3.934  10.271 -0.3052 -3.0076 -1.5045
10373SOL    HW233752   7.680   3.851  10.320 -2.0259  0.0247 -0.2274
10374SOL     OW33753   6.655   4.540   1.158 -0.3161  0.5990  0.7660
10374SOL    HW133754   6.746   4.562   1.178 -0.3816 -0.5125  2.5101
10374SOL    HW233755   6.610   4.549   1.242 -1.9398  1.6409 -0.1837
10375SOL     OW33756   6.365   2.868   3.370 -0.3665 -0.5946  0.1231
10375SOL    HW133757   6.369   2.816   3.290  0.5534 -1.8674  0.9448
10375SOL    HW233758   6.390   2.807   3.439 -0.2680  0.6927  1.2722
10376SOL     OW33759   0.532   3.954   1.233 -0.3808 -0.1883 -0.4314
10376SOL    HW133760   0.542   4.046   1.208 -1.2052 -0.1009 -0.4681
10376SOL    HW233761   0.439   3.946   1.257  0.1342 -0.4872  1.6644
10377SOL     OW33762   8.694   1.318   7.213  0.2962  0.7948  0.1578
10377SOL    HW133763   8.762   1.269   7.167 -0.3524  0.4670 -0.4583
10377SOL    HW233764   8.730   1.331   7.301  0.5895 -0.5538  0.2602
10378SOL     OW33765   1.520   5.111   6.149 -0.0608  0.4967 -0.2209
10378SOL    HW133766   1.460   5.046   6.111 -0.1745  1.1911 -1.2772
10378SOL    HW233767   1.607   5.075   6.132 -0.1426 -0.1619  0.6696
10379SOL     OW33768   4.631   8.214   5.526 -0.2328  0.3629  0.2601
10379SOL    HW133769   4.596   8.125   5.519 -0.0532  0.3831 -1.2115
10379SOL    HW233770   4.556   8.268   5.552 -0.9335  0.1415 -1.2197
10380SOL     OW33771   3.766   8.517   6.616 -0.9936 -0.2239 -0.1913
10380SOL    HW133772   3.844   8.570   6.601 -0.0324 -1.7296 -0.7462
10380SOL    HW233773   3.707   8.539   6.544 -0.3732 -0.3014 -0.7306
10381SOL     OW33774   3.785   7.772   4.928  0.1362 -0.2156 -0.7467
10381SOL    HW133775   3.834   7.704   4.975  0.4393  0.9460  0.6779
10381SOL    HW233776   3.805   7.756   4.835 -0.0491 -2.2378 -0.4880
10382SOL     OW33777   3.444   6.300   4.566  0.1722  0.2498  0.0615
10382SOL    HW133778   3.399   6.278   4.647  0.0653  0.6142  0.0994
10382SOL    HW233779   3.405   6.382   4.537 -1.7499 -1.2079 -1.8195
10383SOL     OW33780   3.747   5.507   2.141 -0.3102  0.0638 -1.4528
10383SOL    HW133781   3.802   5.474   2.070  0.2892  0.3256 -1.1161
10383SOL    HW233782   3.774   5.598   2.153  2.2585 -0.9168  1.5284
10384SOL     OW33783   4.570   2.443   2.952 -0.1385 -0.3850 -0.0923
10384SOL    HW133784   4.548   2.366   3.005 -0.7031 -0.5026 -0.4921
10384SOL    HW233785   4.486   2.486   2.936  0.2061  0.5250  0.4346
10385SOL     OW33786   8.878  10.232   3.131  0.2340 -0.1586  0.1368
10385SOL    HW133787   8.948  10.233   3.065  0.9764  0.1873  0.9055
10385SOL    HW233788   8.894  10.152   3.181 -0.9734 -0.9833 -0.7667
10386SOL     OW33789   0.156   9.228   3.311 -0.0218 -0.0841 -0.1254
10386SOL    HW133790   0.178   9.299   3.250 -0.5690 -0.0837 -0.3272
10386SOL    HW233791   0.143   9.152   3.255  1.3780 -0.5592  0.1557
10387SOL     OW33792   3.066   0.718   3.090  0.3608 -0.3178  0.2968
10387SOL    HW133793   3.011   0.793   3.067 -0.2409 -0.6798  0.5405
10387SOL    HW233794   3.099   0.686   3.006  1.2197  0.6523  0.2376
10388SOL     OW33795   3.304   8.350   9.942  0.1212  0.0775 -0.0606
10388SOL    HW133796   3.310   8.349   9.846 -0.0480  1.1076 -0.0944
10388SOL    HW233797   3.332   8.263   9.969  0.5646 -0.0886 -1.0270
10389SOL     OW33798   6.131   2.407   3.357 -0.0815  0.1716 -0.2819
10389SOL    HW133799   6.218   2.370   3.373 -0.1417 -0.7145 -1.7928
10389SOL    HW233800   6.119   2.471   3.427  0.5797 -1.7204  1.6556
10390SOL     OW33801   3.138   2.656   8.551  0.1203  0.1489  0.0679
10390SOL    HW133802   3.167   2.646   8.460  0.7565 -1.9836  0.4492
10390SOL    HW233803   3.042   2.646   8.546  0.2898 -1.6435 -0.2167
10391SOL     OW33804   3.039   9.739   2.141  0.4385 -0.0376  0.2288
10391SOL    HW133805   3.052   9.815   2.083 -0.6093  1.7165  2.1551
10391SOL    HW233806   3.051   9.663   2.084  1.9138  1.5444 -1.7231
10392SOL     OW33807   3.923   4.430   0.771 -0.0698 -0.0254 -0.4615
10392SOL    HW133808   3.867   4.352   0.764 -0.2632  0.1390 -0.7620
10392SOL    HW233809   3.930   4.462   0.681 -1.3004  1.2247 -0.1422
10393SOL     OW33810  10.346   8.064   9.417  0.0121  0.0175 -0.0257
10393SOL    HW133811  10.345   8.160   9.417 -1.3556  0.0240 -0.4788
10393SOL    HW233812  10.437   8.041   9.436  0.3860  1.4007 -0.0332
10394SOL     OW33813   8.892   0.238   9.520  0.1935  0.2424  0.6451
10394SOL    HW133814   8.965   0.301   9.520 -0.5065  1.1815 -2.1051
10394SOL    HW233815   8.929   0.159   9.560  2.1824  1.2522  0.9326
10395SOL     OW33816   2.844  10.169   0.317 -0.2051  0.0212  0.0647
10395SOL    HW133817   2.821  10.076   0.325  0.7529 -0.1860  0.5192
10395SOL    HW233818   2.760  10.215   0.321 -0.5916 -0.7484  1.0227
10396SOL     OW33819   1.607   5.870   6.003  0.2107 -0.0485 -0.4671
10396SOL    HW133820   1.577   5.959   6.023  1.8093  0.0973  1.5969
10396SOL    HW233821   1.645   5.877   5.915  1.2694  1.5990  0.0775
10397SOL     OW33822   4.998   4.244   2.358 -0.1613 -0.0872  0.3664
10397SOL    HW133823   5.012   4.217   2.268  0.7171 -0.7991  0.7026
10397SOL    HW233824   5.080   4.287   2.383 -0.1017 -0.6005  1.0700
10398SOL     OW33825   3.982   0.262   0.937 -0.3313  0.3172 -0.2434
10398SOL    HW133826   3.942   0.188   0.982  1.4861 -0.3131  0.4654
10398SOL    HW233827   3.949   0.339   0.983 -1.2503 -0.1304 -0.1476
10399SOL     OW33828   7.066  10.315   0.100 -0.7506  0.1915 -0.1102
10399SOL    HW133829   6.989  10.354   0.059 -2.2609 -0.5715  1.8295
10399SOL    HW233830   7.040  10.224   0.118  1.5544 -0.8830 -1.6842
10400SOL     OW33831   6.582   5.860   4.959 -0.4813 -0.1676 -0.1359
10400SOL    HW133832   6.492   5.854   4.990 -0.9377 -0.4508 -1.4492
10400SOL    HW233833   6.612   5.946   4.989 -0.6307 -0.7113  1.6722
10401SOL     OW33834   4.708   8.601   4.106  0.1958 -0.4768 -0.0819
10401SOL    HW133835   4.621   8.576   4.135  0.0054 -0.6760 -0.8055
10401SOL    HW233836   4.749   8.520   4.076  0.8335 -0.4779  0.7482
10402SOL     OW33837   8.045   6.638   5.011 -0.4886  0.3456 -0.4628
10402SOL    HW133838   8.038   6.543   5.011 -0.3987  0.3340  0.6542
10402SOL    HW233839   8.056   6.661   4.918 -2.1729 -0.6023 -0.9378
10403SOL     OW33840   1.592   6.757   7.581  0.3409 -0.4316 -0.5998
10403SOL    HW133841   1.623   6.820   7.646  2.1542 -1.1984 -0.6434
10403SOL    HW233842   1.663   6.752   7.517 -0.3208 -1.5499 -1.2803
10404SOL     OW33843   4.666  10.035   5.445 -0.0184 -0.5734 -0.6588
10404SOL    HW133844   4.675  10.069   5.356  0.0359 -1.6878 -1.0936
10404SOL    HW233845   4.705  10.103   5.501  2.1844 -0.9341 -1.6691
10405SOL     OW33846   2.175  10.009   8.954  0.3656  0.2786  0.0094
10405SOL    HW133847   2.107   9.977   8.895  0.4998  0.9923 -0.5442
10405SOL    HW233848   2.256   9.970   8.921  0.3774  0.2918  0.0228
10406SOL     OW33849   9.244   7.673   9.044 -0.7447  0.1265 -0.0981
10406SOL    HW133850   9.216   7.628   9.124  1.2578 -0.0842  0.5610
10406SOL    HW233851   9.165   7.714   9.010 -1.5631  0.7483  2.3477
10407SOL     OW33852   8.561   7.504   0.925 -0.4302 -0.2626 -1.1237
10407SOL    HW133853   8.550   7.591   0.963 -0.3341 -0.6208 -0.2456
10407SOL    HW233854   8.655   7.489   0.927 -0.4422 -0.3636 -1.3331
10408SOL     OW33855   5.500   7.865   6.248 -0.1407  0.8056 -0.2497
10408SOL    HW133856   5.475   7.907   6.166 -0.7282 -1.3500 -1.2504
10408SOL    HW233857   5.422   7.872   6.303 -0.7630 -0.2380 -0.9680
10409SOL     OW33858   3.305   1.381   3.055  0.2745  0.4593  0.0643
10409SOL    HW133859   3.232   1.442   3.065 -0.6727 -0.6586  0.2530
10409SOL    HW233860   3.267   1.305   3.012  1.4876  0.1013 -0.4182
10410SOL     OW33861   6.131   7.689   5.836  0.4064  0.0725  0.0983
10410SOL    HW133862   6.036   7.689   5.830  0.5178 -0.8849 -2.7175
10410SOL    HW233863   6.149   7.694   5.930 -2.3944 -0.2898  0.7207
10411SOL     OW33864   7.855   2.914   7.114 -0.3643 -0.2677 -0.1562
10411SOL    HW133865   7.804   2.930   7.035  0.2928  0.0427 -0.5264
10411SOL    HW233866   7.847   2.995   7.164 -1.2877 -0.6824  0.3995
10412SOL     OW33867   5.769  10.036   6.336 -0.0516  0.0699 -0.4412
10412SOL    HW133868   5.761  10.082   6.252  0.2969 -1.2604 -1.2378
10412SOL    HW233869   5.679  10.024   6.366 -0.3532 -1.4024 -1.7703
10413SOL     OW33870   8.528  10.015   5.067 -0.3988  0.0396  0.7020
10413SOL    HW133871   8.432  10.015   5.072 -0.6590  2.9120 -1.3348
10413SOL    HW233872   8.547   9.996   4.975  0.9797 -0.0386  0.9836
10414SOL     OW33873   4.910   3.306   6.803  0.0484  0.6864 -0.1983
10414SOL    HW133874   4.889   3.242   6.872  3.0391  0.8913  1.0397
10414SOL    HW233875   4.851   3.379   6.821 -0.6093 -0.0795  0.9139
10415SOL     OW33876   1.913   3.872   9.248  0.5762  0.4268 -0.3986
10415SOL    HW133877   1.861   3.936   9.199 -2.6634 -0.6405  1.3929
10415SOL    HW233878   1.899   3.790   9.201  2.8097  0.4839 -1.3120
10416SOL     OW33879   4.718   2.218   6.829 -0.1212  0.5660 -0.1173
10416SOL    HW133880   4.766   2.289   6.872 -0.3777  0.9842 -0.5097
10416SOL    HW233881   4.638   2.260   6.798 -1.1493 -0.3056  1.2564
10417SOL     OW33882   2.813   5.823  10.206  0.3871 -0.0433 -0.4508
10417SOL    HW133883   2.786   5.875  10.282 -0.5235  0.1432 -0.8829
10417SOL    HW233884   2.734   5.776  10.180  0.4003  0.6288 -1.8559
10418SOL     OW33885   3.524   6.407   0.825 -0.5447 -0.3598 -0.0585
10418SOL    HW133886   3.465   6.360   0.766  0.4466 -0.7418 -0.7543
10418SOL    HW233887   3.564   6.475   0.771  0.7444 -1.0288  0.0279
10419SOL     OW33888   5.254   6.382   5.904  0.0824 -0.0235  0.7327
10419SOL    HW133889   5.216   6.294   5.910  0.9714 -0.4286  0.5032
10419SOL    HW233890   5.186   6.434   5.860  0.7667 -1.3483 -2.1068
10420SOL     OW33891   2.920   8.293  10.210 -0.6318  0.3985  1.0175
10420SOL    HW133892   2.912   8.247  10.127 -1.3858  2.0477  0.1357
10420SOL    HW233893   2.969   8.233  10.266  0.9309 -0.2634 -0.9647
10421SOL     OW33894   1.057   1.758   5.213 -0.5493  0.2189  1.0621
10421SOL    HW133895   1.101   1.718   5.288  0.7431  2.4001  1.5476
10421SOL    HW233896   1.094   1.846   5.207  0.1887 -0.1883 -2.8066
10422SOL     OW33897   2.406   9.013   1.270 -0.3167 -0.0595 -0.0540
10422SOL    HW133898   2.316   8.983   1.254 -0.0470 -0.5149 -0.7328
10422SOL    HW233899   2.456   8.933   1.283  0.2736  0.1099 -1.1913
10423SOL     OW33900   6.532   1.319   1.468  0.3882 -0.1843 -0.0754
10423SOL    HW133901   6.442   1.343   1.491 -0.8818 -0.6066 -3.8196
10423SOL    HW233902   6.587   1.380   1.516 -1.8811  0.3859  2.0072
10424SOL     OW33903   6.312   2.354   6.389 -0.1880  0.8523  0.4062
10424SOL    HW133904   6.371   2.296   6.342 -1.8310 -0.4714 -0.0954
10424SOL    HW233905   6.364   2.434   6.403  0.7324  0.9289 -2.7193
10425SOL     OW33906   0.052   3.406   6.691 -0.2752  0.2541  0.1850
10425SOL    HW133907  -0.005   3.446   6.756 -0.2264  0.2096  0.2559
10425SOL    HW233908  -0.004   3.390   6.615  0.1265  2.2814 -0.6020
10426SOL     OW33909   4.287   7.569   6.996  0.1174  0.0250 -0.0881
10426SOL    HW133910   4.261   7.484   7.032 -0.5123  0.4101  0.3818
10426SOL    HW233911   4.224   7.631   7.032  0.7218  0.7348 -0.2233
10427SOL     OW33912   4.731   5.704  10.321  0.2224  0.5468  0.3792
10427SOL    HW133913   4.767   5.731  10.406 -0.9678  0.6243  0.8728
10427SOL    HW233914   4.666   5.771  10.300 -1.6348 -1.0367  0.8508
10428SOL     OW33915   9.781   5.680   6.697  0.5369 -0.1547 -0.3050
10428SOL    HW133916   9.827   5.762   6.679 -0.5738  0.7530  0.8013
10428SOL    HW233917   9.795   5.666   6.791  0.1074 -0.8539 -0.3431
10429SOL     OW33918   7.101   5.726   3.638 -0.3350 -0.0758  0.4414
10429SOL    HW133919   7.196   5.731   3.631 -0.5488  2.6775 -2.2737
10429SOL    HW233920   7.076   5.807   3.683 -1.4700 -0.0901 -0.1276
10430SOL     OW33921   7.110   1.245   5.147  0.2872 -0.3813 -0.1213
10430SOL    HW133922   7.132   1.273   5.236  1.4126 -0.7193 -0.2753
10430SOL    HW233923   7.190   1.205   5.114  0.1750  0.5542 -1.6255
10431SOL     OW33924   9.388   6.527   3.235 -1.3143 -0.2869  0.2407
10431SOL    HW133925   9.312   6.498   3.285 -0.5874  0.1656  1.6614
10431SOL    HW233926   9.459   6.532   3.299  0.0025 -0.9734 -1.0890
10432SOL     OW33927   3.256   3.031   8.890 -0.1876  1.2742 -0.7540
10432SOL    HW133928   3.289   2.960   8.946 -1.1825  1.5177  0.1914
10432SOL    HW233929   3.276   3.003   8.801 -0.2235 -0.0218 -0.3762
10433SOL     OW33930   0.403   4.202   5.883  0.2666 -0.0834 -0.2672
10433SOL    HW133931   0.471   4.201   5.950 -0.9713  1.2339  1.0909
10433SOL    HW233932   0.380   4.295   5.874 -1.8739 -0.5633 -0.1209
10434SOL     OW33933   7.405   8.417   0.356  0.1944  0.0690 -0.2298
10434SOL    HW133934   7.369   8.349   0.412  0.6736 -0.7085 -0.8472
10434SOL    HW233935   7.391   8.385   0.267 -0.8457  1.4282 -0.5901
10435SOL     OW33936   3.726   6.497   6.664  0.2100 -0.6117  0.1929
10435SOL    HW133937   3.742   6.405   6.684 -1.0546 -0.7505  0.6844
10435SOL    HW233938   3.671   6.496   6.586 -1.2033 -0.3745  1.1351
10436SOL     OW33939   8.188   8.835  10.270  0.3583 -0.6860  0.1251
10436SOL    HW133940   8.117   8.791  10.317 -0.0629 -0.6812 -0.4865
10436SOL    HW233941   8.211   8.909  10.326 -1.2948  0.3120 -0.4329
10437SOL     OW33942   7.078   3.139   5.598  0.2911 -0.5888  0.2518
10437SOL    HW133943   7.020   3.152   5.523 -0.4500 -1.5999  0.6199
10437SOL    HW233944   7.164   3.122   5.559  0.5492  1.6926 -0.2875
10438SOL     OW33945   0.687   6.354   1.679  0.2684 -0.0460  0.3042
10438SOL    HW133946   0.751   6.423   1.661  1.0258 -0.3135  1.7909
10438SOL    HW233947   0.608   6.400   1.706  0.0832  0.2669 -0.7231
10439SOL     OW33948   6.906   6.820   8.017 -0.2366 -0.7099  0.0438
10439SOL    HW133949   6.944   6.873   8.087  0.2644 -0.4735 -0.3916
10439SOL    HW233950   6.842   6.878   7.975 -0.7203 -0.9376  0.4639
10440SOL     OW33951   5.347   6.606   4.903 -0.1244 -0.4084  0.3949
10440SOL    HW133952   5.347   6.673   4.972  0.8792 -1.5738  1.5771
10440SOL    HW233953   5.288   6.641   4.836 -0.3055  1.2498  1.3599
10441SOL     OW33954   6.054   4.585   5.303  0.2705  0.4912 -0.3015
10441SOL    HW133955   6.105   4.654   5.346 -1.8267  0.0523  3.3314
10441SOL    HW233956   5.965   4.620   5.298 -0.6885 -1.5760  0.9616
10442SOL     OW33957   8.605   2.762   0.509 -0.2223 -0.5708 -0.0875
10442SOL    HW133958   8.664   2.835   0.529 -1.2179 -0.0396  1.0330
10442SOL    HW233959   8.603   2.758   0.414 -1.4750  2.0028 -0.2313
10443SOL     OW33960   6.884   6.823   0.264 -0.2750 -0.2571 -0.4408
10443SOL    HW133961   6.902   6.910   0.229  1.5759  0.5878  2.3182
10443SOL    HW233962   6.968   6.778   0.262 -0.3134 -0.5445  1.7460
10444SOL     OW33963   1.742   8.826   4.743  0.1783  0.0420  0.0827
10444SOL    HW133964   1.789   8.745   4.762 -1.1847 -0.6908  0.4257
10444SOL    HW233965   1.809   8.894   4.749  0.7564 -0.6364  3.0881
10445SOL     OW33966   0.739   3.113   7.405 -0.6204  0.4549 -0.1172
10445SOL    HW133967   0.791   3.179   7.359  0.8072  0.3696  1.2617
10445SOL    HW233968   0.650   3.148   7.404 -0.1492  1.7132 -0.6397
10446SOL     OW33969   9.122   4.922  10.058 -0.1193 -0.1563 -0.1599
10446SOL    HW133970   9.128   4.849  10.120 -0.2326  1.1288  1.4361
10446SOL    HW233971   9.181   4.898   9.987  1.4250 -0.8785  1.3098
10447SOL     OW33972   9.729   5.006   1.343 -0.2032 -0.1246 -0.1280
10447SOL    HW133973   9.697   5.072   1.405  0.3197 -2.4568  2.8192
10447SOL    HW233974   9.658   4.943   1.335  0.7482 -1.2626  0.2515
10448SOL     OW33975   4.540   2.982   5.992  0.6891 -0.1410  0.2452
10448SOL    HW133976   4.484   2.909   5.965 -2.6247  1.8393  1.1317
10448SOL    HW233977   4.547   2.972   6.087  1.8024 -0.3110  0.1502
10449SOL     OW33978   6.426   8.015   4.255  0.1934 -0.5394 -0.1701
10449SOL    HW133979   6.355   7.975   4.306  0.6052 -1.1558 -0.0688
10449SOL    HW233980   6.385   8.091   4.214 -0.3043 -0.3904  0.5759
10450SOL     OW33981   6.307   2.967   0.144  0.4363  0.2957 -0.5647
10450SOL    HW133982   6.234   2.923   0.187  0.4091 -2.0101 -2.7126
10450SOL    HW233983   6.268   3.046   0.106 -0.9027 -0.7010 -1.3629
10451SOL     OW33984   1.332   2.434   4.587  0.2983 -0.0884  0.0136
10451SOL    HW133985   1.372   2.358   4.546 -1.5457 -1.3856  0.4655
10451SOL    HW233986   1.380   2.445   4.669 -0.2589 -1.6575  0.5928
10452SOL     OW33987   4.419   4.757   3.273 -0.2215 -0.3840  0.0059
10452SOL    HW133988   4.461   4.815   3.210  0.6339 -0.1728  0.7467
10452SOL    HW233989   4.442   4.669   3.243  0.7754 -0.2698  0.4065
10453SOL     OW33990   7.062   4.282   8.782 -0.0917  0.7594 -0.0787
10453SOL    HW133991   7.069   4.263   8.688  1.3744 -0.4377  0.2364
10453SOL    HW233992   6.968   4.277   8.800 -0.3269  0.2120 -1.3217
10454SOL     OW33993   8.671   8.688   7.740 -0.4489  0.2966 -0.2843
10454SOL    HW133994   8.677   8.777   7.705  0.3891  0.4216  0.1557
10454SOL    HW233995   8.738   8.639   7.691  1.9714  0.8612  2.2507
10455SOL     OW33996   7.343   7.080   0.328  0.1527 -0.2432  0.0335
10455SOL    HW133997   7.270   7.020   0.343  0.7871 -0.5876  2.0818
10455SOL    HW233998   7.417   7.023   0.310  0.1579  0.0727 -1.0189
10456SOL     OW33999   7.998   6.318   2.986  0.4614  0.6928 -0.0247
10456SOL    HW134000   7.973   6.274   3.067 -1.1299 -0.0568 -0.8830
10456SOL    HW234001   8.073   6.268   2.953  0.9283  0.8254  0.8139
10457SOL     OW34002   2.296   3.523   1.538 -0.7982 -0.5706  0.6092
10457SOL    HW134003   2.372   3.465   1.551 -0.2875 -0.1338 -0.3079
10457SOL    HW234004   2.291   3.574   1.618  1.6812  1.4180 -0.3611
10458SOL     OW34005   2.778   0.980   6.069 -0.4110  0.1340  0.0895
10458SOL    HW134006   2.811   0.915   6.007 -1.1233  0.1809 -0.3422
10458SOL    HW234007   2.685   0.988   6.050 -0.3594  1.2158  0.1998
10459SOL     OW34008   0.772   7.536   2.885 -0.1494 -0.6865 -0.6469
10459SOL    HW134009   0.762   7.465   2.948 -0.3504 -0.3931 -0.3441
10459SOL    HW234010   0.835   7.595   2.925  0.3147 -0.8858 -1.0735
10460SOL     OW34011   8.249   6.059   6.801  0.4050 -0.6720 -0.4795
10460SOL    HW134012   8.213   6.118   6.735 -1.4983 -1.2111  0.0390
10460SOL    HW234013   8.317   6.111   6.844 -1.4321  1.3249  0.1893
10461SOL     OW34014   3.017   9.217   8.698  0.5042 -0.2181 -0.3273
10461SOL    HW134015   2.947   9.157   8.672 -0.7608  1.5013 -1.1567
10461SOL    HW234016   2.975   9.275   8.762  0.3725  2.3021 -2.5309
10462SOL     OW34017   9.566   6.423   4.700  0.1106  0.0344  0.7988
10462SOL    HW134018   9.576   6.518   4.693  1.5920 -0.0331  1.6195
10462SOL    HW234019   9.654   6.392   4.720 -0.1736 -1.6071 -0.3262
10463SOL     OW34020   9.876   5.758   2.521 -0.0938  0.1672  0.7925
10463SOL    HW134021   9.787   5.736   2.551 -0.9980  1.8345 -0.4943
10463SOL    HW234022   9.933   5.728   2.592 -1.6893 -0.7434  1.7583
10464SOL     OW34023   4.751   9.594   6.081  0.0912 -0.1975  0.0459
10464SOL    HW134024   4.661   9.567   6.062  0.3249 -1.0845  0.1378
10464SOL    HW234025   4.743   9.655   6.154 -0.6286  1.5434 -1.4205
10465SOL     OW34026  10.226   3.797   5.816 -0.7218  0.0392 -0.2587
10465SOL    HW134027  10.156   3.849   5.854 -1.5247 -0.7860 -0.5691
10465SOL    HW234028  10.305   3.827   5.860 -1.4431  0.0618  1.0669
10466SOL     OW34029   1.114   1.586   2.127  0.1100  0.1408 -0.0247
10466SOL    HW134030   1.188   1.578   2.188  0.5017 -0.6890 -0.5894
10466SOL    HW234031   1.155   1.588   2.040 -0.4787  0.6187 -0.2922
10467SOL     OW34032   4.252   1.999   1.541  0.8268  0.5177 -0.6538
10467SOL    HW134033   4.196   2.044   1.605  1.6719  1.9613 -0.8833
10467SOL    HW234034   4.226   2.037   1.457  1.4392  0.4408 -0.8795
10468SOL     OW34035   4.287   3.813   0.962  0.2498  0.0836  0.1444
10468SOL    HW134036   4.327   3.899   0.975  0.4798  0.0807 -0.5357
10468SOL    HW234037   4.299   3.769   1.046 -2.8882  1.8882  1.7720
10469SOL     OW34038   3.682   4.135   9.885  0.4326 -0.4945  0.0122
10469SOL    HW134039   3.649   4.057   9.929 -0.0779 -1.2539 -1.6464
10469SOL    HW234040   3.759   4.104   9.837  1.1220  0.3703  0.5234
10470SOL     OW34041   2.397   1.101   3.192 -0.2303  0.2008 -0.0562
10470SOL    HW134042   2.383   1.145   3.276 -3.0140 -0.5480 -0.0028
10470SOL    HW234043   2.434   1.168   3.135 -2.4652  2.0889  0.5672
10471SOL     OW34044   6.262   7.286   2.019  0.4457 -0.3808  0.7030
10471SOL    HW134045   6.325   7.319   2.083  1.3670 -2.1166  0.7639
10471SOL    HW234046   6.222   7.210   2.061 -1.8965  0.8064  0.7324
10472SOL     OW34047   3.008   1.113   0.242  0.1696  0.1842 -0.3383
10472SOL    HW134048   2.990   1.122   0.336 -1.9094  0.2957 -0.6972
10472SOL    HW234049   3.039   1.199   0.214  3.7016 -0.5654  0.7117
10473SOL     OW34050   7.198   7.234   7.488  0.3360 -0.5600  0.3655
10473SOL    HW134051   7.161   7.192   7.565 -1.3089 -1.5183 -0.8635
10473SOL    HW234052   7.122   7.259   7.435  1.3564  1.3846 -0.3045
10474SOL     OW34053   8.102   4.918   6.753 -0.3102  0.0170 -0.7542
10474SOL    HW134054   8.154   4.863   6.812 -1.3120 -1.2319 -1.0000
10474SOL    HW234055   8.015   4.877   6.753 -1.1985  1.8242 -0.6596
10475SOL     OW34056   1.194   9.030   9.100 -0.2363 -0.4311  0.0533
10475SOL    HW134057   1.245   9.090   9.154 -0.4366  1.0279 -1.3069
10475SOL    HW234058   1.114   9.015   9.151  0.6905 -1.2069  1.3275
10476SOL     OW34059   2.862   1.896   3.034 -0.2420  0.5157 -0.0196
10476SOL    HW134060   2.791   1.959   3.023  1.8573  2.6067 -3.5451
10476SOL    HW234061   2.823   1.812   3.013 -1.9511  1.4097 -0.6061
10477SOL     OW34062   0.885   6.240   1.011  0.3112 -0.2263 -0.1235
10477SOL    HW134063   0.843   6.305   0.954 -1.3858  0.1939  1.5013
10477SOL    HW234064   0.946   6.194   0.953  0.1044  1.4588 -1.8006
10478SOL     OW34065   3.161   3.703   9.591  0.8960  0.1740  0.5303
10478SOL    HW134066   3.154   3.797   9.572  1.8133  0.2124  0.3147
10478SOL    HW234067   3.198   3.665   9.511  0.8347 -0.3238  0.7335
10479SOL     OW34068   3.310   1.692   9.753  0.1884 -0.0049 -0.3916
10479SOL    HW134069   3.266   1.611   9.777  0.3142 -0.4762 -1.6493
10479SOL    HW234070   3.399   1.683   9.786 -0.4537  0.7529  1.7487
10480SOL     OW34071   8.046   6.729   9.122  0.2882 -0.1982 -0.2591
10480SOL    HW134072   7.963   6.681   9.118  0.1967 -0.1125  0.5275
10480SOL    HW234073   8.056   6.766   9.034  1.0199 -2.7065 -1.3345
10481SOL     OW34074   0.216   3.715   1.435  0.1010  0.9336  0.2866
10481SOL    HW134075   0.143   3.655   1.445  0.3207  0.7596  0.9359
10481SOL    HW234076   0.183   3.799   1.468  0.1963  0.8484  0.6061
10482SOL     OW34077   6.291   9.471   0.698 -0.3529 -0.6764  0.4299
10482SOL    HW134078   6.381   9.496   0.715 -0.0053 -1.5798  0.0322
10482SOL    HW234079   6.297   9.415   0.620 -0.9673 -2.4747  1.6079
10483SOL     OW34080   1.867   1.813   8.042  0.0998  0.0780 -0.2493
10483SOL    HW134081   1.875   1.890   7.986  1.3171 -0.4254 -0.8092
10483SOL    HW234082   1.842   1.742   7.982  0.2603 -0.2204  0.0336
10484SOL     OW34083   7.092   6.950   8.874 -0.1640 -0.0553  0.3181
10484SOL    HW134084   7.107   6.941   8.780  2.1728 -1.2397  0.7292
10484SOL    HW234085   7.143   7.027   8.900 -0.6454  0.1565  0.6630
10485SOL     OW34086  10.011   5.833   8.759 -0.1292 -0.0066 -0.1595
10485SOL    HW134087  10.045   5.756   8.804  0.6002  0.3995 -0.0058
10485SOL    HW234088   9.952   5.798   8.692 -0.0967 -0.6789  0.1616
10486SOL     OW34089   7.932   5.818   8.845  0.7091 -0.0571  0.2219
10486SOL    HW134090   7.916   5.851   8.756  1.6795  0.8593  0.3706
10486SOL    HW234091   7.849   5.776   8.869 -0.1771  1.2239 -0.4541
10487SOL     OW34092   8.603   4.022   7.403 -0.1664 -0.0754  0.3474
10487SOL    HW134093   8.561   4.093   7.451 -0.6042  0.3133 -0.5837
10487SOL    HW234094   8.584   4.040   7.311 -1.6980 -2.2392  0.1534
10488SOL     OW34095   0.533   4.575   6.710 -0.2996 -0.1333  0.8058
10488SOL    HW134096   0.507   4.506   6.770 -3.3596  1.4214  1.4584
10488SOL    HW234097   0.624   4.556   6.689 -0.1909 -2.7122  3.1509
10489SOL     OW34098   6.013   3.955   2.108 -1.0005  0.7392 -0.3535
10489SOL    HW134099   6.041   3.885   2.167 -1.0240  0.1566 -1.0302
10489SOL    HW234100   5.918   3.945   2.103 -0.9390  0.4179 -0.9508
10490SOL     OW34101   4.290   2.874   4.141  0.0882  0.3775 -0.0703
10490SOL    HW134102   4.227   2.946   4.140  0.0227  0.3191 -0.1870
10490SOL    HW234103   4.277   2.832   4.226 -1.8496 -1.2363 -1.0884
10491SOL     OW34104   9.087   4.349   0.376 -0.2040  0.3237 -0.3157
10491SOL    HW134105   9.112   4.428   0.424  0.2399  0.3446 -0.5723
10491SOL    HW234106   9.168   4.298   0.370  0.3807  1.4485 -3.1978
10492SOL     OW34107   6.423   6.252   5.379  0.0639  0.4435 -0.3338
10492SOL    HW134108   6.493   6.193   5.409 -0.1283  0.2086 -0.3445
10492SOL    HW234109   6.464   6.338   5.378  0.3517  0.3098 -0.3264
10493SOL     OW34110   8.877   1.768   4.981  0.5103 -0.0973  0.0564
10493SOL    HW134111   8.970   1.748   4.993  0.4267 -0.9235 -0.5692
10493SOL    HW234112   8.832   1.686   5.003 -0.2529  0.8502  2.3845
10494SOL     OW34113   3.238   1.420   3.821 -0.0617  0.4047 -0.2087
10494SOL    HW134114   3.229   1.374   3.737  0.7737 -0.9239  0.3974
10494SOL    HW234115   3.330   1.412   3.844 -0.6090 -1.0479  1.7881
10495SOL     OW34116   4.379  10.222   7.439 -0.2055  0.3320 -0.0550
10495SOL    HW134117   4.324  10.199   7.364  0.2061  1.5092 -0.7659
10495SOL    HW234118   4.406  10.139   7.476  0.2019 -0.3103 -1.6997
10496SOL     OW34119   7.959   1.023   3.013  0.2107 -0.9057 -0.0945
10496SOL    HW134120   7.891   1.089   3.003  0.2511 -0.2744  2.9114
10496SOL    HW234121   8.012   1.031   2.934 -1.6440  0.3977 -1.2807
10497SOL     OW34122   1.106   3.119   3.626 -0.3022 -0.1338  0.1560
10497SOL    HW134123   1.158   3.183   3.674 -1.0166 -1.4739  2.9186
10497SOL    HW234124   1.049   3.172   3.570  1.2926  1.4883 -0.0114
10498SOL     OW34125   9.985   9.248   0.276  0.0678  0.3331  0.0214
10498SOL    HW134126   9.961   9.156   0.284 -0.8121  0.5796  0.2657
10498SOL    HW234127  10.079   9.247   0.259 -0.0979 -0.6527 -0.9412
10499SOL     OW34128   4.856   1.647   6.332 -1.0572  0.7631  0.0092
10499SOL    HW134129   4.765   1.674   6.332 -1.6040 -0.6573  2.8586
10499SOL    HW234130   4.855   1.557   6.298 -0.8683  0.4506  0.7981
10500SOL     OW34131   8.502   4.486   5.244 -0.3209  0.0277 -0.0059
10500SOL    HW134132   8.452   4.500   5.325 -0.0443 -1.6375  0.4796
10500SOL    HW234133   8.489   4.394   5.223  2.3406 -0.4148  0.0151
10501SOL     OW34134   4.736   2.434   0.753  0.3517 -0.3989 -0.0638
10501SOL    HW134135   4.676   2.478   0.814  1.6063 -0.0129  0.9320
10501SOL    HW234136   4.746   2.495   0.680  1.0373  0.3999  0.6839
10502SOL     OW34137   2.226   0.878   0.540 -0.3864  0.2181  0.3887
10502SOL    HW134138   2.253   0.846   0.626  0.3103  0.7688  0.3862
10502SOL    HW234139   2.139   0.840   0.526 -0.3293 -0.2086  1.1527
10503SOL     OW34140   8.714   2.491   8.503  0.2511  0.3579 -0.2710
10503SOL    HW134141   8.735   2.560   8.439  0.3648 -0.1366 -0.7804
10503SOL    HW234142   8.747   2.524   8.586 -1.3135  1.7382 -0.1279
10504SOL     OW34143   1.703   8.043   4.695  0.6091  0.3913 -0.0571
10504SOL    HW134144   1.727   7.952   4.680  0.1896  0.1897  0.4743
10504SOL    HW234145   1.725   8.088   4.614  0.9553 -0.1573 -0.2658
10505SOL     OW34146   6.422   4.658   4.528  0.0196 -0.1714 -0.4086
10505SOL    HW134147   6.379   4.637   4.611  0.6821 -0.0350 -0.0209
10505SOL    HW234148   6.354   4.646   4.462 -0.0987 -1.8999 -0.0352
10506SOL     OW34149   5.732   4.142   6.784 -0.0714  0.0468 -0.3856
10506SOL    HW134150   5.677   4.184   6.718 -0.4469  0.2382  0.0390
10506SOL    HW234151   5.796   4.092   6.734 -0.3302  0.2138 -0.8927
10507SOL     OW34152   3.307   0.985   8.822 -0.7382  0.5277 -0.3900
10507SOL    HW134153   3.313   0.982   8.917  1.0452  0.3210 -0.4738
10507SOL    HW234154   3.267   1.070   8.803  2.2122  2.2643  0.4874
10508SOL     OW34155   9.650   6.598   2.615  0.4240 -0.1642 -0.1894
10508SOL    HW134156   9.691   6.637   2.692  0.0846 -0.8819  0.3580
10508SOL    HW234157   9.723   6.574   2.558  0.7383 -0.9371  0.5380
10509SOL     OW34158   7.805   2.559   3.017 -0.3076  0.1192 -0.1151
10509SOL    HW134159   7.816   2.499   2.942 -0.6412  0.2652 -0.2804
10509SOL    HW234160   7.733   2.616   2.991  0.7375  1.3317 -0.4453
10510SOL     OW34161   8.413   6.498   5.651 -0.0546 -0.4847  0.4178
10510SOL    HW134162   8.470   6.525   5.723  0.5532 -1.6313  0.3852
10510SOL    HW234163   8.327   6.485   5.692  0.3727 -1.4886  1.0185
10511SOL     OW34164   2.448   0.856   3.067  0.0052 -0.0673  0.6178
10511SOL    HW134165   2.365   0.808   3.064 -0.4398  0.7110  0.2331
10511SOL    HW234166   2.424   0.943   3.099  0.7343  0.0468  0.8637
10512SOL     OW34167   9.167   8.832   4.120 -0.2971 -0.1275 -0.5985
10512SOL    HW134168   9.153   8.862   4.030  0.4701  0.7916 -0.4121
10512SOL    HW234169   9.227   8.895   4.158 -1.6767  0.2871  1.0010
10513SOL     OW34170  10.137   5.834   0.356  0.2718  0.0690  0.6715
10513SOL    HW134171  10.084   5.806   0.431 -0.1559  1.0161  0.7397
10513SOL    HW234172  10.203   5.892   0.393 -0.5098  1.2790  0.2224
10514SOL     OW34173   8.054   9.799   3.012  0.5997  0.5135 -0.3450
10514SOL    HW134174   8.145   9.805   2.984  0.6700 -0.9248 -0.4961
10514SOL    HW234175   8.055   9.742   3.088 -0.0307  1.5704  0.4853
10515SOL     OW34176   4.147   2.770   0.615 -0.1110 -0.1548 -0.4136
10515SOL    HW134177   4.060   2.740   0.643  0.0594  0.8504  1.3663
10515SOL    HW234178   4.196   2.781   0.697  1.7949 -0.9220 -1.3918
10516SOL     OW34179   7.390   3.727   9.269  0.0354  0.2827 -0.0493
10516SOL    HW134180   7.407   3.751   9.178  2.8578 -1.3957 -0.0845
10516SOL    HW234181   7.333   3.650   9.264  0.6322 -0.1371 -0.4420
10517SOL     OW34182   1.878   5.307   5.158  0.3304 -0.1198 -0.2617
10517SOL    HW134183   1.895   5.394   5.194  0.5684  0.5696 -1.9628
10517SOL    HW234184   1.801   5.276   5.206 -0.0459  1.2315  0.0508
10518SOL     OW34185   2.899   2.630   8.008  0.0576  0.0792  0.0699
10518SOL    HW134186   2.944   2.693   8.065  0.1566  1.6295 -1.6420
10518SOL    HW234187   2.944   2.547   8.025 -0.1100  0.3878  2.4240
10519SOL     OW34188   0.703   9.807   7.233  0.2518 -0.3802  0.7541
10519SOL    HW134189   0.681   9.733   7.291  0.1168 -0.9719 -0.0373
10519SOL    HW234190   0.639   9.801   7.162  0.6638  0.1045  0.3409
10520SOL     OW34191   1.564   3.615   5.185  0.3478 -0.2610 -0.0106
10520SOL    HW134192   1.580   3.521   5.191  0.5340 -0.2011  0.4525
10520SOL    HW234193   1.491   3.623   5.123  1.4470 -0.6025 -1.4039
10521SOL     OW34194   1.662   5.025  10.124 -0.3010  0.0396 -0.1437
10521SOL    HW134195   1.668   4.930  10.112 -0.3563  0.2963 -2.4894
10521SOL    HW234196   1.752   5.056  10.112 -0.0278  0.2228  1.9123
10522SOL     OW34197   8.447   2.049   7.293  0.3817 -0.1307 -0.2115
10522SOL    HW134198   8.474   2.140   7.294 -0.0499  0.0116 -0.8966
10522SOL    HW234199   8.431   2.027   7.385  1.3924  0.2001  0.0598
10523SOL     OW34200   3.382   9.013   4.597 -0.0855 -0.6792  0.5101
10523SOL    HW134201   3.440   9.033   4.671  1.7373 -0.0294 -1.0314
10523SOL    HW234202   3.355   8.922   4.613  0.7127 -0.7412  1.6919
10524SOL     OW34203   2.847   4.577   6.620 -0.1988 -0.1655  0.2036
10524SOL    HW134204   2.904   4.574   6.697  0.7700  0.5322 -0.4613
10524SOL    HW234205   2.812   4.666   6.619  0.2029 -0.0103 -0.4477
10525SOL     OW34206   9.772   3.764   4.251  0.2487  0.2893 -0.1625
10525SOL    HW134207   9.692   3.818   4.250  0.9261  1.3140 -0.2335
10525SOL    HW234208   9.843   3.828   4.249  1.0710 -0.6326 -0.5449
10526SOL     OW34209   9.721   4.885   0.747  0.3891 -0.1072  0.0595
10526SOL    HW134210   9.738   4.945   0.820 -2.0175  1.9483 -0.9403
10526SOL    HW234211   9.802   4.835   0.739  2.0492  2.0450  1.8781
10527SOL     OW34212   4.387   8.410   9.267  0.0576 -0.0043  0.3895
10527SOL    HW134213   4.342   8.494   9.261 -0.0683 -0.1584 -2.4583
10527SOL    HW234214   4.478   8.433   9.285 -0.0648  0.7434  0.1049
10528SOL     OW34215   7.400   0.269   7.104 -0.0308  0.0164  0.1635
10528SOL    HW134216   7.316   0.226   7.118  0.6883 -1.1411  1.1114
10528SOL    HW234217   7.435   0.282   7.192  1.7561 -1.5797 -0.2494
10529SOL     OW34218   3.767   6.238   6.869 -0.3067  0.5227  0.1073
10529SOL    HW134219   3.703   6.247   6.940 -0.3249  3.3840 -0.1393
10529SOL    HW234220   3.845   6.284   6.901 -0.1970  1.5696 -1.5329
10530SOL     OW34221   0.591   9.451   8.496  0.9013 -0.1537  0.3197
10530SOL    HW134222   0.672   9.478   8.453 -0.1953  0.7949 -1.2510
10530SOL    HW234223   0.581   9.359   8.475 -0.7643  0.7401 -3.6353
10531SOL     OW34224   0.908   8.766   3.338  0.0245 -0.6160 -0.0525
10531SOL    HW134225   0.823   8.810   3.327 -0.8629 -2.5390 -1.3806
10531SOL    HW234226   0.960   8.795   3.263  1.2686  1.9155  1.6451
10532SOL     OW34227   9.145   1.074   9.907 -0.3663 -0.3451 -0.1477
10532SOL    HW134228   9.198   0.997   9.928 -0.4833 -0.2963  0.3476
10532SOL    HW234229   9.204   1.132   9.859  1.3589  1.4594  3.6819
10533SOL     OW34230   7.754   6.821   8.386 -0.2091 -0.3187 -0.3404
10533SOL    HW134231   7.700   6.795   8.460  2.0746 -1.1796  1.1433
10533SOL    HW234232   7.742   6.750   8.322 -2.3460  0.5252 -0.9523
10534SOL     OW34233   8.756   9.330   1.299 -0.1860 -0.3872 -0.1071
10534SOL    HW134234   8.849   9.318   1.279  0.2082  0.6222  1.0216
10534SOL    HW234235   8.720   9.369   1.220  0.6697  0.5740 -0.0464
10535SOL     OW34236   6.368   2.818  10.062  0.2575  0.1114  0.5302
10535SOL    HW134237   6.331   2.738  10.099  1.3126 -0.3758  0.5697
10535SOL    HW234238   6.415   2.789   9.984 -0.8206  0.9496 -0.4762
10536SOL     OW34239   9.342   5.825   6.105 -0.3948 -0.0166  0.2532
10536SOL    HW134240   9.334   5.849   6.197 -1.5406  0.6582 -0.0030
10536SOL    HW234241   9.340   5.729   6.104 -0.7423 -0.0182  0.8958
10537SOL     OW34242   4.884   2.591   2.187 -0.5869  0.4555 -0.1079
10537SOL    HW134243   4.810   2.544   2.227 -0.5611  1.7998  1.6570
10537SOL    HW234244   4.931   2.629   2.261  2.0290 -0.4772 -1.1494
10538SOL     OW34245  10.193   5.794   7.804 -0.1895  0.0103  0.2677
10538SOL    HW134246  10.101   5.802   7.776 -0.0895 -0.2885 -0.1614
10538SOL    HW234247  10.188   5.770   7.896 -0.5607 -0.8798  0.0281
10539SOL     OW34248   9.889   9.003   1.817 -0.1365  0.0961 -0.1276
10539SOL    HW134249   9.872   8.995   1.911  0.2213 -0.9363 -0.1293
10539SOL    HW234250   9.978   9.036   1.812 -0.6850  1.6284 -0.1164
10540SOL     OW34251   1.727   9.718   7.691  0.0452 -0.2263  0.0845
10540SOL    HW134252   1.645   9.691   7.733  0.3382 -0.4947  0.4795
10540SOL    HW234253   1.726   9.673   7.606 -0.3027 -0.0803  0.0081
10541SOL     OW34254   4.171   9.617   8.159 -0.3990 -0.4103  0.4582
10541SOL    HW134255   4.127   9.577   8.235 -1.2193  0.6203  0.5507
10541SOL    HW234256   4.131   9.574   8.083  1.6995 -2.7697  0.5661
10542SOL     OW34257   1.641   9.625   3.084  0.1715  0.0544  0.4000
10542SOL    HW134258   1.558   9.598   3.121 -1.1156  1.7936 -1.0352
10542SOL    HW234259   1.657   9.712   3.120  1.0697 -0.0182  0.2097
10543SOL     OW34260   3.043   6.942   6.040 -0.2942 -0.0506 -0.6063
10543SOL    HW134261   3.059   6.928   5.946 -1.6893 -1.4452 -0.6946
10543SOL    HW234262   3.047   6.854   6.078  0.3955  0.5164  0.6771
10544SOL     OW34263   3.539  10.262   4.027  0.4636 -0.4467 -0.0212
10544SOL    HW134264   3.579  10.190   4.076 -0.3773 -0.2166  1.0207
10544SOL    HW234265   3.554  10.238   3.935 -0.2042 -2.2144  0.2720
10545SOL     OW34266   0.250   8.839   9.612 -0.4466 -0.2709 -0.4899
10545SOL    HW134267   0.218   8.925   9.584  0.5064  0.2188 -0.1215
10545SOL    HW234268   0.194   8.817   9.687 -0.0205  0.5292  0.0875
10546SOL     OW34269   2.186   0.702   9.365  0.0165 -0.0653 -0.3952
10546SOL    HW134270   2.132   0.696   9.286 -0.2260  0.7098 -0.2972
10546SOL    HW234271   2.152   0.633   9.422 -0.3407 -0.1125 -0.6588
10547SOL     OW34272   5.098   4.876   7.675  0.3365  0.2121  0.3828
10547SOL    HW134273   5.114   4.787   7.645  1.3876  0.9216 -1.2649
10547SOL    HW234274   5.163   4.929   7.631 -1.8437  2.1868 -0.6947
10548SOL     OW34275   3.235   0.288   3.401 -0.4900  0.0554  0.0893
10548SOL    HW134276   3.198   0.280   3.489 -0.7459 -2.6068 -0.1984
10548SOL    HW234277   3.164   0.265   3.342  0.2364 -0.1499 -0.7355
10549SOL     OW34278  10.127   5.723   8.160  0.2786 -0.6235  0.3481
10549SOL    HW134279  10.196   5.657   8.157  1.9573  1.0613  0.3860
10549SOL    HW234280  10.128   5.756   8.250 -0.7592 -0.7407  0.4190
10550SOL     OW34281   6.709   7.985   5.096  0.4596  0.3283  0.0716
10550SOL    HW134282   6.789   7.997   5.045  0.1565  1.1443 -0.2230
10550SOL    HW234283   6.730   8.022   5.182  0.9030 -0.8642  0.4967
10551SOL     OW34284   8.045   1.302   2.815  0.1073  0.3325 -0.3227
10551SOL    HW134285   7.998   1.359   2.877  0.6644  0.1750  0.2572
10551SOL    HW234286   8.130   1.289   2.856  0.8371  0.9914 -1.5803
10552SOL     OW34287   4.539   5.479   1.471  1.2884  0.1775  0.2952
10552SOL    HW134288   4.613   5.450   1.419  1.6884 -0.9753  1.4531
10552SOL    HW234289   4.492   5.399   1.494  0.4805  0.7605  0.7497
10553SOL     OW34290   9.991   9.171   0.874 -0.2883 -0.0852 -0.0413
10553SOL    HW134291  10.000   9.077   0.858 -0.7385 -0.2100  0.4144
10553SOL    HW234292  10.030   9.185   0.961  1.1087  0.3981 -0.7113
10554SOL     OW34293   9.186   3.297   6.900  0.0037 -0.3576  0.2203
10554SOL    HW134294   9.162   3.367   6.840 -0.4383 -0.1011  0.6874
10554SOL    HW234295   9.264   3.330   6.946 -0.2199 -0.1565  0.4587
10555SOL     OW34296   9.275   7.527   4.630  0.3359  0.1330  0.4071
10555SOL    HW134297   9.301   7.494   4.544  1.3543  1.9043 -0.0084
10555SOL    HW234298   9.180   7.516   4.632  0.4735 -1.3783 -0.2884
10556SOL     OW34299   8.182   3.225   2.052  0.2561 -0.2490  0.4924
10556SOL    HW134300   8.146   3.300   2.099 -0.9498  1.1070 -2.3507
10556SOL    HW234301   8.105   3.176   2.023  1.0152 -2.2816  1.7243
10557SOL     OW34302   9.035   3.087   2.043 -0.4965 -0.6264  0.1077
10557SOL    HW134303   9.080   3.096   1.959 -0.1074  2.8096  0.5581
10557SOL    HW234304   8.953   3.136   2.032  0.0664  0.8515  2.0101
10558SOL     OW34305   5.078   7.804   2.512 -0.7205 -0.0984 -0.5018
10558SOL    HW134306   5.100   7.888   2.552 -0.7270 -0.2851 -0.1090
10558SOL    HW234307   4.984   7.810   2.494 -0.3903  0.7040 -2.1932
10559SOL     OW34308   6.449   3.230   9.302  0.7068  0.7534 -0.3828
10559SOL    HW134309   6.438   3.170   9.375  0.7575 -0.0223 -1.0042
10559SOL    HW234310   6.432   3.177   9.224  3.4712  0.8089 -1.1322
10560SOL     OW34311   9.867   3.836   3.449  0.2053 -0.1943 -0.2420
10560SOL    HW134312   9.823   3.769   3.501 -2.3666 -0.7634 -2.8767
10560SOL    HW234313   9.912   3.891   3.514 -2.9322 -0.6511  2.6110
10561SOL     OW34314   3.450   0.316   9.559  0.2217  0.0576  0.0506
10561SOL    HW134315   3.373   0.269   9.592 -0.6675  0.9666 -0.6570
10561SOL    HW234316   3.464   0.282   9.471  0.1111  0.4731 -0.1327
10562SOL     OW34317   3.515  10.192   0.845 -0.2002 -0.1429 -0.4220
10562SOL    HW134318   3.463  10.129   0.894  1.8714 -1.2391  0.4984
10562SOL    HW234319   3.485  10.277   0.877  0.1656 -0.7915  1.8663
10563SOL     OW34320   2.726   8.494   7.767 -0.2329 -0.3655  0.1911
10563SOL    HW134321   2.735   8.437   7.843 -1.3335 -0.2656  0.4111
10563SOL    HW234322   2.636   8.527   7.771 -0.4241 -0.6112 -1.3355
10564SOL     OW34323   6.216   1.267   9.639 -0.5082  0.6064 -0.2614
10564SOL    HW134324   6.164   1.235   9.565  0.6559 -0.8333 -0.5074
10564SOL    HW234325   6.289   1.314   9.599  0.0768 -0.1013 -0.0495
10565SOL     OW34326   1.415   1.992   6.042  0.4459  0.5461  0.4533
10565SOL    HW134327   1.497   1.994   5.993 -0.2411 -0.1478 -0.7695
10565SOL    HW234328   1.430   1.928   6.112  0.8975  0.3292  0.1619
10566SOL     OW34329   3.144   3.503   4.975 -0.2089 -0.2213 -0.2609
10566SOL    HW134330   3.175   3.432   5.030 -0.2070 -0.9231 -1.1427
10566SOL    HW234331   3.202   3.502   4.899 -1.6261 -0.7999 -1.3882
10567SOL     OW34332   6.992   5.442   1.107 -0.7015 -0.5655  0.3133
10567SOL    HW134333   7.045   5.362   1.104 -0.1164 -0.2819  1.8732
10567SOL    HW234334   7.025   5.495   1.035  0.0948 -1.0432  0.3043
10568SOL     OW34335   1.103   9.973   8.486  0.3093  0.0390 -0.2937
10568SOL    HW134336   1.116  10.005   8.576  2.1627  0.6662 -0.7494
10568SOL    HW234337   1.147   9.888   8.485 -0.1259 -0.1864 -0.4980
10569SOL     OW34338   6.626   6.237   6.266 -0.6274 -0.1681  0.6146
10569SOL    HW134339   6.717   6.208   6.274  0.1124  1.9099  0.5665
10569SOL    HW234340   6.586   6.174   6.206  0.9447 -0.8302  0.1989
10570SOL     OW34341   1.954   7.046   4.993  0.0384 -0.1976  0.2143
10570SOL    HW134342   1.963   7.141   4.994 -1.9097  0.0375 -0.0611
10570SOL    HW234343   1.874   7.028   5.042 -0.1738 -1.6204 -0.5770
10571SOL     OW34344   2.822   8.850  10.272  0.4720  0.1836  0.0245
10571SOL    HW134345   2.861   8.884  10.352  0.5349 -0.4805  0.2823
10571SOL    HW234346   2.866   8.898  10.202 -1.3602  2.6305  0.4142
10572SOL     OW34347   8.790   6.525   7.877 -0.3001 -0.8878 -0.1803
10572SOL    HW134348   8.871   6.504   7.923 -0.2253 -1.9473 -0.7630
10572SOL    HW234349   8.801   6.486   7.790 -0.7355  0.4513 -0.8643
10573SOL     OW34350   2.750   4.013   2.326  0.7799  0.0997 -0.0031
10573SOL    HW134351   2.712   3.935   2.365  0.0598  0.4501 -0.0069
10573SOL    HW234352   2.717   4.013   2.236  1.3823  0.0108 -0.2357
10574SOL     OW34353   8.660   8.115   1.573 -0.1667 -0.4332  0.1714
10574SOL    HW134354   8.670   8.105   1.668 -0.3498  0.5149  0.2957
10574SOL    HW234355   8.736   8.166   1.546 -1.0936  0.9572  0.1091
10575SOL     OW34356   5.557   3.892   2.277 -0.0734 -0.1878  0.0702
10575SOL    HW134357   5.529   3.847   2.197 -0.0171 -1.0127  0.4928
10575SOL    HW234358   5.494   3.963   2.288  0.1426  0.1678 -0.8972
10576SOL     OW34359   6.209   7.550   9.175 -0.5535  0.1260 -0.0105
10576SOL    HW134360   6.233   7.607   9.102  0.1148 -0.0552  0.0637
10576SOL    HW234361   6.152   7.484   9.136 -1.2118  0.7581 -0.1259
10577SOL     OW34362   4.420   4.817   9.467  0.3193 -0.1067  0.3897
10577SOL    HW134363   4.470   4.757   9.521  0.0659 -0.0366  0.7061
10577SOL    HW234364   4.452   4.904   9.491 -1.2482  0.0928  2.0040
10578SOL     OW34365   0.782   8.280   9.625  0.4931 -0.3361 -0.0988
10578SOL    HW134366   0.760   8.190   9.605  0.0132 -0.6118  1.4914
10578SOL    HW234367   0.697   8.325   9.632  0.5845 -0.3618  1.5709
10579SOL     OW34368  10.050   3.145   7.330 -0.2509  0.1519  0.1799
10579SOL    HW134369   9.971   3.117   7.285  0.0877 -0.4017 -0.0662
10579SOL    HW234370  10.049   3.241   7.322 -0.2689  0.0706 -0.8724
10580SOL     OW34371   4.361   2.148   3.690 -0.3404  0.2390 -0.1270
10580SOL    HW134372   4.316   2.230   3.708 -0.0412  0.1876  0.9094
10580SOL    HW234373   4.291   2.089   3.661 -1.1032 -0.0308  2.0701
10581SOL     OW34374   5.886   6.904   0.827 -0.2845 -0.3841 -0.0064
10581SOL    HW134375   5.896   6.877   0.918  0.7300  1.2726  0.4266
10581SOL    HW234376   5.881   7.000   0.832 -0.8586 -0.3086 -1.6430
10582SOL     OW34377   7.911   5.609   2.889  0.6952  0.7868 -0.2070
10582SOL    HW134378   7.816   5.616   2.880  0.7111  0.2630 -0.8265
10582SOL    HW234379   7.925   5.602   2.984  0.0218 -0.3200 -0.1730
10583SOL     OW34380   7.873   6.115   4.826 -0.0791  0.3390  0.7340
10583SOL    HW134381   7.960   6.136   4.861  1.5155 -0.7082 -2.1924
10583SOL    HW234382   7.879   6.023   4.802 -1.0641  0.8664 -1.8588
10584SOL     OW34383   7.593   9.163   3.696 -0.0701  0.1800  0.9104
10584SOL    HW134384   7.684   9.188   3.711  0.0428 -0.0162  0.5433
10584SOL    HW234385   7.569   9.207   3.615 -0.3458  0.3419  1.0764
10585SOL     OW34386   0.439   8.743   5.303 -0.2125 -0.2678  0.1282
10585SOL    HW134387   0.373   8.772   5.366 -1.8308 -3.2470 -0.0038
10585SOL    HW234388   0.511   8.804   5.313 -1.9866  1.6640  2.0770
10586SOL     OW34389   6.175   9.261   4.426 -0.3458  0.1011  0.0054
10586SOL    HW134390   6.178   9.293   4.336 -0.0479  3.0141  0.9490
10586SOL    HW234391   6.152   9.337   4.478 -1.7140 -1.7573  2.3262
10587SOL     OW34392   7.783   0.759   3.040 -0.1385 -0.1024 -0.0773
10587SOL    HW134393   7.859   0.818   3.038  0.2635 -0.6184 -0.4787
10587SOL    HW234394   7.748   0.762   2.951 -0.8468  0.4471  0.2084
10588SOL     OW34395   8.520   5.353   1.807  0.1398  0.4252 -1.1039
10588SOL    HW134396   8.555   5.393   1.886  2.4698  1.0825 -2.3828
10588SOL    HW234397   8.496   5.264   1.834  0.4263  0.7822  0.4339
10589SOL     OW34398   4.020   8.741   4.401  0.0515 -0.0924 -0.2378
10589SOL    HW134399   4.070   8.717   4.479 -2.2414  1.4798  1.8916
10589SOL    HW234400   4.022   8.663   4.345  1.2081 -1.5310  1.7000
10590SOL     OW34401   5.557   6.813   9.035 -0.2109 -0.2352 -0.1926
10590SOL    HW134402   5.580   6.741   9.093 -1.5349 -0.0856  0.5520
10590SOL    HW234403   5.635   6.867   9.031 -0.0923 -0.2416  1.4834
10591SOL     OW34404   2.744   7.321   5.351  0.2737 -0.0176  0.5657
10591SOL    HW134405   2.721   7.228   5.361 -0.0799  0.0139  0.1143
10591SOL    HW234406   2.815   7.321   5.287  0.0188  0.0479  0.2802
10592SOL     OW34407   9.658   5.141   5.283  0.3046  0.2920  0.0322
10592SOL    HW134408   9.673   5.075   5.215  0.0389  0.1136  0.1439
10592SOL    HW234409   9.721   5.210   5.263  1.5196 -0.5831  0.6957
10593SOL     OW34410   8.673   6.316   3.382 -0.0203 -0.2119  0.6573
10593SOL    HW134411   8.616   6.393   3.384 -1.6305 -1.2813 -0.7375
10593SOL    HW234412   8.634   6.260   3.315  0.0159 -3.0269  2.7910
10594SOL     OW34413   4.825   9.581   2.088  0.0222  0.4393  0.7124
10594SOL    HW134414   4.852   9.521   2.157  0.5376 -0.6681 -0.4009
10594SOL    HW234415   4.907   9.612   2.050 -0.1986 -0.8543 -0.9441
10595SOL     OW34416  10.111   1.663   1.226 -0.2974  0.5295 -0.1364
10595SOL    HW134417  10.125   1.674   1.320 -0.6048 -0.0983 -0.0142
10595SOL    HW234418  10.082   1.573   1.216  0.6054  0.3147 -0.9427
10596SOL     OW34419   4.179   0.322   6.966  0.3503 -0.3731 -0.3005
10596SOL    HW134420   4.179   0.347   6.874 -0.4543 -0.3090 -0.2881
10596SOL    HW234421   4.090   0.291   6.983  0.1209  0.7585  0.7511
10597SOL     OW34422   2.260   2.892   2.573  0.4842 -0.0720  0.1331
10597SOL    HW134423   2.184   2.846   2.610 -0.4013  0.6104 -0.7575
10597SOL    HW234424   2.261   2.976   2.619  0.9210 -0.2250  0.4004
10598SOL     OW34425   2.021   9.996   8.564 -0.3453 -0.6139 -0.5490
10598SOL    HW134426   2.100   9.968   8.517 -0.2039 -0.0911 -0.6260
10598SOL    HW234427   2.004  10.084   8.532  0.4788  0.2676  1.2844
10599SOL     OW34428   1.999   6.647   6.360 -0.2388 -0.0677  0.0930
10599SOL    HW134429   1.986   6.552   6.354  0.3731 -0.2449  1.3787
10599SOL    HW234430   2.061   6.659   6.432 -0.0222  1.2949 -0.2851
10600SOL     OW34431   2.420   2.294   1.484  0.3432  0.5941  0.7920
10600SOL    HW134432   2.457   2.317   1.569  1.2266  0.0357  0.5704
10600SOL    HW234433   2.404   2.378   1.441  0.9213  0.8619  1.0827
10601SOL     OW34434   6.152   7.511   2.562  0.6535  0.0248  0.4101
10601SOL    HW134435   6.218   7.452   2.600  0.3827 -1.1096 -0.8028
10601SOL    HW234436   6.201   7.589   2.538  1.0633  0.2420  1.8554
10602SOL     OW34437   8.298   9.283   9.103  0.3531 -0.4643  0.2406
10602SOL    HW134438   8.204   9.302   9.099  0.4644 -0.1410 -1.2847
10602SOL    HW234439   8.303   9.189   9.122 -0.3116 -0.8955 -1.5774
10603SOL     OW34440   9.159   6.824  10.141  0.8476 -0.0760 -0.0391
10603SOL    HW134441   9.241   6.801  10.097  0.4214 -0.7282 -0.5113
10603SOL    HW234442   9.166   6.784  10.227 -0.5036 -3.4446 -1.3435
10604SOL     OW34443   6.901   4.482   4.234  0.4441 -0.1389  0.1153
10604SOL    HW134444   6.929   4.534   4.159 -0.1827 -0.3342 -0.2621
10604SOL    HW234445   6.979   4.473   4.288  1.0210 -0.3841 -0.7455
10605SOL     OW34446   2.117   7.816   4.499 -0.2044  0.3550 -0.1758
10605SOL    HW134447   2.071   7.733   4.486 -0.0772  0.4762 -1.5155
10605SOL    HW234448   2.074   7.856   4.575  0.3735 -1.3581  1.1066
10606SOL     OW34449   2.161   6.399   8.965 -0.5754 -0.1050 -0.2284
10606SOL    HW134450   2.112   6.458   9.023  0.1530 -0.8116  1.1655
10606SOL    HW234451   2.114   6.402   8.882 -1.8707  0.6893  0.4991
10607SOL     OW34452   7.418   4.454   7.590  0.0211  0.4541  0.5082
10607SOL    HW134453   7.344   4.424   7.643  0.1772  0.8362  0.9556
10607SOL    HW234454   7.459   4.522   7.643 -0.4547  1.6184 -0.5804
10608SOL     OW34455   2.302   1.432   8.401 -0.1754 -0.0408 -0.4348
10608SOL    HW134456   2.291   1.502   8.336  1.6121  0.3731 -0.3495
10608SOL    HW234457   2.368   1.374   8.362  0.8169  0.1349  0.9245
10609SOL     OW34458   7.086   6.588   7.249 -0.3048  0.8120 -0.2876
10609SOL    HW134459   7.001   6.544   7.254 -0.4217  1.0548 -0.1012
10609SOL    HW234460   7.116   6.571   7.160 -1.3350  2.1485 -0.9287
10610SOL     OW34461   5.978   0.332   4.389  0.0700 -0.3427 -0.1323
10610SOL    HW134462   5.906   0.354   4.330  0.4864 -0.0085 -0.5310
10610SOL    HW234463   6.029   0.266   4.342  0.9229  0.5962 -0.5705
10611SOL     OW34464   2.804   0.324   7.296 -0.5357 -0.4779  0.6179
10611SOL    HW134465   2.752   0.299   7.219 -1.9537 -0.1685  1.4456
10611SOL    HW234466   2.843   0.242   7.326  2.9077 -0.1696 -2.3666
10612SOL     OW34467   3.042   5.535   1.783 -0.6045  0.1002 -0.0316
10612SOL    HW134468   3.060   5.582   1.865 -0.0644 -1.1843  0.6124
10612SOL    HW234469   3.118   5.552   1.728 -0.4961  0.1370  0.1287
10613SOL     OW34470   2.182   6.631   1.851  0.6705 -0.3758  0.3184
10613SOL    HW134471   2.265   6.661   1.887  0.7705 -0.1369 -0.0987
10613SOL    HW234472   2.206   6.561   1.791  0.5992 -0.1166 -0.0169
10614SOL     OW34473   8.606   5.050   1.599 -0.3439 -0.2973  0.0336
10614SOL    HW134474   8.651   4.974   1.562  1.5288 -0.4820  2.4243
10614SOL    HW234475   8.585   5.105   1.523  2.7154 -0.8818 -1.4225
10615SOL     OW34476   5.577   0.188   2.000 -0.2425 -0.3989  0.3480
10615SOL    HW134477   5.551   0.117   1.941  0.8370  0.1043 -0.7811
10615SOL    HW234478   5.534   0.266   1.964  2.6842  0.4785 -1.6305
10616SOL     OW34479  10.065   7.265   9.048  0.2709 -0.2991 -0.0185
10616SOL    HW134480  10.036   7.348   9.086 -0.0511  0.1113 -1.1344
10616SOL    HW234481  10.157   7.258   9.073  0.8031  1.2683 -1.3672
10617SOL     OW34482   2.440   7.395   9.593  0.1698  0.3111  0.3799
10617SOL    HW134483   2.509   7.364   9.534  0.5945 -0.0764  1.0717
10617SOL    HW234484   2.419   7.319   9.648 -1.2567  0.2235 -0.2141
10618SOL     OW34485   1.383   1.683   1.488  0.2549 -0.3716  0.6584
10618SOL    HW134486   1.476   1.690   1.466  0.2074 -1.0310  0.1960
10618SOL    HW234487   1.377   1.605   1.542  0.1539  0.4410  1.8484
10619SOL     OW34488   6.072   6.696   6.582  0.0249 -0.4724  0.0586
10619SOL    HW134489   6.163   6.682   6.611  0.0156  0.0534  0.3590
10619SOL    HW234490   6.023   6.711   6.663  0.0086  1.0811 -0.2097
10620SOL     OW34491   5.514   1.577   4.927 -0.1104 -0.3506  0.3519
10620SOL    HW134492   5.586   1.517   4.908  1.0251  1.0685  0.0720
10620SOL    HW234493   5.507   1.577   5.022  0.3632 -0.3781  0.3891
10621SOL     OW34494   6.527   5.365   2.211  0.3803 -0.3565  0.3262
10621SOL    HW134495   6.616   5.333   2.194  0.4417  0.2672 -0.5612
10621SOL    HW234496   6.529   5.392   2.303  0.7708 -1.4043  0.6438
10622SOL     OW34497   4.650   1.016   7.846 -0.2679  0.3541 -0.6819
10622SOL    HW134498   4.563   1.045   7.818 -0.3903  2.1244  1.2834
10622SOL    HW234499   4.660   1.052   7.935  2.2196 -0.3418 -0.6063
10623SOL     OW34500   9.267   5.641   9.495  0.3489  0.3734  0.1278
10623SOL    HW134501   9.242   5.611   9.407  1.6028 -2.0758  0.5146
10623SOL    HW234502   9.205   5.711   9.515 -0.2884  0.6583 -2.4914
10624SOL     OW34503   7.684   5.629   6.821  0.1192  0.6754 -0.0074
10624SOL    HW134504   7.775   5.600   6.825 -0.4645 -1.4849 -1.2162
10624SOL    HW234505   7.688   5.715   6.778  1.5228  0.3462 -0.5883
10625SOL     OW34506   3.154   7.047   6.538 -0.0078  0.1089  0.0410
10625SOL    HW134507   3.194   7.000   6.465  1.2026 -0.2154  0.8798
10625SOL    HW234508   3.226   7.062   6.599 -0.3526  2.9810 -0.1068
10626SOL     OW34509   3.044   2.446   1.257  0.2620 -0.4612 -0.3985
10626SOL    HW134510   3.074   2.375   1.201  0.8850 -1.1833  0.8163
10626SOL    HW234511   2.948   2.444   1.249  0.2298 -1.8616  0.1125
10627SOL     OW34512   3.738   9.729   7.333  0.8951  0.3991 -0.2614
10627SOL    HW134513   3.645   9.747   7.323  1.1000  0.5837 -2.1614
10627SOL    HW234514   3.743   9.667   7.405 -0.6556  0.6988  0.1389
10628SOL     OW34515   1.985   3.763   0.035 -0.4767 -0.1250 -0.6776
10628SOL    HW134516   2.004   3.853   0.010  0.7841 -0.4538 -0.9677
10628SOL    HW234517   2.051   3.742   0.101 -0.5353 -0.9354 -0.8638
10629SOL     OW34518   2.842   6.081   0.481  0.5177 -0.0934 -0.2750
10629SOL    HW134519   2.898   6.010   0.449  0.1642 -1.1124  1.2947
10629SOL    HW234520   2.765   6.037   0.517 -0.8853  1.2281 -1.4750
10630SOL     OW34521   9.902   3.859   7.337 -0.5996  0.3822  0.2877
10630SOL    HW134522   9.955   3.937   7.317 -0.4786  0.4044  0.6821
10630SOL    HW234523   9.826   3.867   7.280  0.5657 -0.4691 -1.4986
10631SOL     OW34524   0.320   8.539   3.526  0.1592 -0.4110 -0.0171
10631SOL    HW134525   0.383   8.602   3.490 -0.2109 -0.6972 -1.1813
10631SOL    HW234526   0.354   8.521   3.614  2.1819 -1.1762 -0.8916
10632SOL     OW34527   4.269   9.011   6.465  0.3365 -0.3982 -0.6225
10632SOL    HW134528   4.278   8.929   6.515  0.0694 -0.5968 -0.8966
10632SOL    HW234529   4.230   9.072   6.527 -0.6679 -0.8512 -0.8008
10633SOL     OW34530   0.187   0.650   9.063  0.2381 -0.2971 -0.0904
10633SOL    HW134531   0.235   0.726   9.096 -0.8953  0.4297 -0.0390
10633SOL    HW234532   0.141   0.684   8.986  0.1092 -1.0667 -0.3561
10634SOL     OW34533   3.945   4.355   2.248  0.4421 -0.1924  0.5859
10634SOL    HW134534   3.914   4.361   2.338 -0.9795 -2.1482  0.2966
10634SOL    HW234535   3.966   4.262   2.236  3.4157  0.4499 -0.2658
10635SOL     OW34536   3.976   3.937   1.572  0.4341  0.3833 -0.0589
10635SOL    HW134537   4.054   3.991   1.560  1.0284 -0.2509  0.8301
10635SOL    HW234538   3.926   3.949   1.491  1.1067  1.3439 -0.3475
10636SOL     OW34539   9.679   5.949   7.671 -0.1175  0.5598 -0.1997
10636SOL    HW134540   9.652   6.036   7.700 -0.7055  0.4857 -0.5152
10636SOL    HW234541   9.623   5.930   7.596 -0.3558 -0.3193  0.1957
10637SOL     OW34542   7.447   1.338   8.486 -0.5218  0.0682  0.1189
10637SOL    HW134543   7.402   1.322   8.403 -1.4681 -0.3223  0.6984
10637SOL    HW234544   7.480   1.253   8.513 -0.4795  0.1399  0.2986
10638SOL     OW34545   3.380   9.489   5.023 -0.3406 -0.1013  0.2256
10638SOL    HW134546   3.397   9.537   4.941  0.3187 -0.6961  0.0121
10638SOL    HW234547   3.392   9.554   5.092 -0.4526  0.2898 -0.1174
10639SOL     OW34548   8.210   0.426   6.194  0.1382  0.0102  0.1149
10639SOL    HW134549   8.229   0.437   6.101 -2.3399  0.8451 -0.3725
10639SOL    HW234550   8.158   0.347   6.199 -0.2399  0.2920  0.7119
10640SOL     OW34551   8.189   2.779   1.878  0.0736  0.2350 -0.2080
10640SOL    HW134552   8.221   2.866   1.905 -0.5932  0.1632  0.8809
10640SOL    HW234553   8.150   2.793   1.792 -0.8916  1.2335  0.3681
10641SOL     OW34554   1.609   6.214   3.849  0.2266  0.0688  0.1682
10641SOL    HW134555   1.602   6.278   3.919 -0.3387  0.1365  0.0540
10641SOL    HW234556   1.699   6.225   3.816 -0.0570  1.2529 -0.2767
10642SOL     OW34557   6.780   8.607   9.621  0.8703  0.3942  0.0707
10642SOL    HW134558   6.763   8.683   9.676 -0.3654  0.9899 -1.0866
10642SOL    HW234559   6.849   8.636   9.561  0.8384  0.3910  0.0330
10643SOL     OW34560   5.847  10.047   0.221  0.7036 -0.2987 -0.0865
10643SOL    HW134561   5.797   9.973   0.256  0.4658  0.5672  1.5014
10643SOL    HW234562   5.794  10.123   0.243  0.6009  0.3481 -2.3147
10644SOL     OW34563   6.929   4.704   3.411  0.3680  0.6178  0.0025
10644SOL    HW134564   6.991   4.777   3.418  0.2120  0.8767 -1.1072
10644SOL    HW234565   6.907   4.700   3.318 -1.3470  0.5705  0.3844
10645SOL     OW34566   6.712   7.693   2.037  0.0920  0.0349 -0.4517
10645SOL    HW134567   6.743   7.781   2.016 -0.0550  0.4675  0.9881
10645SOL    HW234568   6.625   7.688   1.998 -0.1174  0.7467 -0.1084
10646SOL     OW34569   5.693   0.333   5.069 -0.3699  0.0239  0.6886
10646SOL    HW134570   5.621   0.373   5.119 -1.4529 -0.2229 -0.6256
10646SOL    HW234571   5.657   0.318   4.982  1.3479  0.0496 -0.0653
10647SOL     OW34572   2.016   2.970   5.668  0.2753  0.3951  0.2280
10647SOL    HW134573   2.043   3.039   5.607  2.6671  0.7688  1.5697
10647SOL    HW234574   2.004   2.892   5.613  1.8855  0.8394 -0.8324
10648SOL     OW34575   2.728   0.111   6.019  0.5232 -0.0328  0.1841
10648SOL    HW134576   2.731   0.126   5.925  2.4021 -0.8227  0.0619
10648SOL    HW234577   2.636   0.094   6.039  0.1114  0.1094 -1.5117
10649SOL     OW34578   1.843   3.680   6.579 -0.3895 -0.3534  0.2482
10649SOL    HW134579   1.839   3.598   6.629  1.7151  0.0243  1.1229
10649SOL    HW234580   1.848   3.749   6.646 -0.2229  0.3518 -0.4769
10650SOL     OW34581   6.767   5.624   4.859 -0.0308 -0.0444  0.6364
10650SOL    HW134582   6.793   5.679   4.786  0.3996 -1.4037 -0.2609
10650SOL    HW234583   6.678   5.652   4.879  0.2350  1.0893  0.3361
10651SOL     OW34584   1.587   8.528   4.376 -0.3583  0.5215 -0.4475
10651SOL    HW134585   1.664   8.584   4.372 -0.4238  0.5975 -0.6174
10651SOL    HW234586   1.593   8.473   4.298 -1.2726  1.5544 -1.2793
10652SOL     OW34587   4.682   3.110   8.694 -0.1367  0.4216  0.4943
10652SOL    HW134588   4.615   3.138   8.757  0.3202 -0.1011  1.2220
10652SOL    HW234589   4.765   3.132   8.736  0.1720  0.2521 -0.0222
10653SOL     OW34590   7.405   0.176   8.674  0.5974 -0.1826  0.0592
10653SOL    HW134591   7.376   0.177   8.765  0.4763 -0.8829  0.0370
10653SOL    HW234592   7.334   0.217   8.626  0.6780  0.2246  0.2857
10654SOL     OW34593   2.411   4.881   6.674 -0.6288 -0.1893  0.3706
10654SOL    HW134594   2.386   4.883   6.766  2.6588  2.6457  1.4243
10654SOL    HW234595   2.361   4.952   6.634 -1.9543 -1.3340 -0.0886
10655SOL     OW34596  10.120   4.534   4.574  0.5433  0.2674 -0.3514
10655SOL    HW134597  10.088   4.493   4.494  0.9611 -1.4711  0.3207
10655SOL    HW234598  10.207   4.497   4.588  0.4650  0.5084  0.9173
10656SOL     OW34599   8.624   9.060   1.968  0.4126 -0.3412 -0.2855
10656SOL    HW134600   8.652   9.119   2.038 -1.5730 -0.4011  0.6383
10656SOL    HW234601   8.656   8.974   1.995  1.0649 -0.1014 -0.2919
10657SOL     OW34602   0.800   2.845   3.899 -0.8266 -0.1227  0.0704
10657SOL    HW134603   0.833   2.933   3.917  0.2916 -0.7117  0.9914
10657SOL    HW234604   0.757   2.853   3.814  0.3911  1.0292 -0.4735
10658SOL     OW34605   0.536   0.442   2.028  0.2857 -0.4184  0.2566
10658SOL    HW134606   0.450   0.459   2.066 -0.3375  0.6788 -1.5040
10658SOL    HW234607   0.598   0.469   2.096 -0.7597  0.5532  0.8684
10659SOL     OW34608   3.662   6.754   4.687  0.1642  0.1979 -0.2311
10659SOL    HW134609   3.621   6.761   4.773  2.8156  2.1999  1.0397
10659SOL    HW234610   3.604   6.804   4.629 -0.7703  0.3101  0.7627
10660SOL     OW34611   4.047   5.740   2.216 -0.1821  0.0170 -0.2991
10660SOL    HW134612   4.083   5.785   2.292 -1.5191  1.0390 -0.2278
10660SOL    HW234613   4.060   5.647   2.234 -0.4073  0.2464  1.1505
10661SOL     OW34614   5.738   0.620   5.445 -0.1434  0.5725 -0.0794
10661SOL    HW134615   5.768   0.603   5.355 -0.6998 -1.4598  0.0579
10661SOL    HW234616   5.775   0.705   5.467 -1.5946  2.0868 -2.9146
10662SOL     OW34617   6.839   7.034   1.510 -0.0388  0.1083 -0.1576
10662SOL    HW134618   6.905   7.103   1.510 -0.2597  0.3209 -0.5893
10662SOL    HW234619   6.772   7.064   1.448 -0.6834  0.0343  0.4832
10663SOL     OW34620   4.897   1.025   0.684  0.2604  0.2821  0.0273
10663SOL    HW134621   4.813   1.070   0.675  0.2734  0.4833  0.9039
10663SOL    HW234622   4.908   0.980   0.600  0.2774  1.9517 -0.9100
10664SOL     OW34623   7.352   1.910   8.168  0.1361 -0.4456  0.2531
10664SOL    HW134624   7.306   1.994   8.168  1.9434  0.6439  1.8766
10664SOL    HW234625   7.389   1.902   8.080 -0.3420  0.2825 -0.0241
10665SOL     OW34626   0.337   6.418   9.220 -0.4878  0.7636 -0.1775
10665SOL    HW134627   0.373   6.504   9.240 -0.8949  1.0367 -0.5927
10665SOL    HW234628   0.405   6.356   9.247 -0.2828  1.2047  0.3238
10666SOL     OW34629   6.060   4.740   6.372 -0.1244  0.1959 -0.0594
10666SOL    HW134630   6.077   4.658   6.419  3.0342  0.9114  0.2409
10666SOL    HW234631   5.974   4.768   6.405  0.0168 -1.5084  2.0190
10667SOL     OW34632   7.446   7.605   9.572  0.3775 -0.3117 -0.1146
10667SOL    HW134633   7.471   7.615   9.480 -0.7060 -1.5354 -0.5795
10667SOL    HW234634   7.370   7.662   9.583  0.3311 -0.3820 -0.0654
10668SOL     OW34635  10.336   7.228   0.476 -0.0362 -0.5729 -0.3129
10668SOL    HW134636  10.272   7.285   0.434  1.4343  0.7922 -0.7935
10668SOL    HW234637  10.338   7.257   0.567  1.9156  1.4352 -0.8874
10669SOL     OW34638   9.219   3.069   4.496 -0.5180  0.0552 -0.0312
10669SOL    HW134639   9.198   3.117   4.416 -1.9688  1.9691  1.3932
10669SOL    HW234640   9.212   2.977   4.471 -4.0024  0.5551 -1.4731
10670SOL     OW34641   6.745   8.916   8.093  0.3702  0.6028 -0.1993
10670SOL    HW134642   6.835   8.916   8.061  0.6702 -2.1280  0.3519
10670SOL    HW234643   6.753   8.920   8.188 -0.0821  0.5321 -0.1528
10671SOL     OW34644   5.247   3.931   4.914  0.2508 -0.3665 -0.5104
10671SOL    HW134645   5.339   3.938   4.889  0.4371  0.9336  0.4230
10671SOL    HW234646   5.250   3.907   5.007 -0.3838 -1.7547 -0.8302
10672SOL     OW34647   2.657   6.258   2.437 -0.3136  0.5527 -0.9401
10672SOL    HW134648   2.581   6.316   2.424 -1.9712 -1.5566 -1.2708
10672SOL    HW234649   2.626   6.172   2.407  0.9843 -1.1968  2.3232
10673SOL     OW34650   1.092   4.462   9.738  0.5068  0.0359 -0.1722
10673SOL    HW134651   1.150   4.526   9.697 -1.4075  1.3757 -0.8808
10673SOL    HW234652   1.108   4.381   9.689  0.0443  0.9984 -1.9935
10674SOL     OW34653   1.094   1.507   9.177  0.1628  0.0061  0.4031
10674SOL    HW134654   1.159   1.439   9.163 -0.0762 -0.0794 -0.3226
10674SOL    HW234655   1.029   1.467   9.235  0.3522 -0.1729  0.4906
10675SOL     OW34656   9.066   7.055   9.215 -0.0034 -0.4866 -0.7172
10675SOL    HW134657   9.125   7.088   9.147  0.5348  1.6034  0.6472
10675SOL    HW234658   8.988   7.028   9.168  0.2025  1.2296 -2.1718
10676SOL     OW34659   7.231   1.099   0.381  0.0162  0.3896 -0.1968
10676SOL    HW134660   7.269   1.058   0.459  1.5856  0.2355 -1.0248
10676SOL    HW234661   7.302   1.150   0.343 -1.2105  1.8883 -0.5961
10677SOL     OW34662   3.890   9.120   3.929  0.4642  0.5715  0.7572
10677SOL    HW134663   3.943   9.195   3.901  0.8362  0.4676  1.1718
10677SOL    HW234664   3.949   9.068   3.983  1.2314 -1.7465 -2.1148
10678SOL     OW34665   1.714   7.617   2.039  0.0506  1.2410  0.2697
10678SOL    HW134666   1.683   7.707   2.028 -0.4475  1.2447  1.4903
10678SOL    HW234667   1.635   7.566   2.055  0.4548  0.8592  1.1249
10679SOL     OW34668   6.722   5.105   3.052  0.1106  0.6265 -0.1594
10679SOL    HW134669   6.663   5.121   2.978 -0.8703  0.1408  0.4958
10679SOL    HW234670   6.719   5.187   3.102  0.7089  0.9242 -0.5907
10680SOL     OW34671   3.976   2.639   4.565  1.0985 -0.3503 -0.1731
10680SOL    HW134672   4.025   2.558   4.579  1.2549 -0.1603  0.4077
10680SOL    HW234673   3.913   2.641   4.636  0.8908 -0.1114 -0.3625
10681SOL     OW34674   4.021   4.101   8.847 -0.0150 -0.4854 -0.7181
10681SOL    HW134675   3.978   4.051   8.917 -0.7779 -1.6328 -1.9679
10681SOL    HW234676   3.949   4.133   8.793  0.5369  0.9215 -0.6655
10682SOL     OW34677  10.116   9.895   6.425  0.1015  0.1701 -0.4286
10682SOL    HW134678  10.162   9.921   6.504 -0.0543 -1.4843  0.2565
10682SOL    HW234679  10.182   9.849   6.373  0.2187  1.2879 -1.3086
10683SOL     OW34680   6.051   4.715   1.246 -0.1065  0.1759 -0.1753
10683SOL    HW134681   5.988   4.735   1.177  0.6623 -1.4489 -1.4490
10683SOL    HW234682   6.125   4.675   1.199  0.9381  0.0545  1.4870
10684SOL     OW34683   6.069  10.303   0.447 -0.0861  0.0873  0.5948
10684SOL    HW134684   6.019  10.335   0.372 -0.0798  0.5152  0.7756
10684SOL    HW234685   6.130  10.374   0.467  1.1499 -0.7253 -0.1224
10685SOL     OW34686   2.402   6.015   9.097  0.0813  0.1643 -0.3578
10685SOL    HW134687   2.403   5.982   9.187 -1.0555  0.9477 -0.0327
10685SOL    HW234688   2.428   6.106   9.105  0.4124  0.1179 -0.8859
10686SOL     OW34689   5.183   7.764   3.682  0.1398  0.3265 -0.1810
10686SOL    HW134690   5.119   7.697   3.707  0.5988 -0.1634 -0.2900
10686SOL    HW234691   5.155   7.792   3.594 -0.1006  0.3390 -0.1015
10687SOL     OW34692   0.228   2.240   7.133  0.0442  0.7029 -0.0445
10687SOL    HW134693   0.235   2.214   7.225 -1.5314  0.3216 -0.0107
10687SOL    HW234694   0.292   2.311   7.123  1.3066 -0.2386  0.9473
10688SOL     OW34695  10.325   7.727   3.926 -0.4190  0.0322 -0.2141
10688SOL    HW134696  10.307   7.715   3.833  0.7304  1.9230 -0.7231
10688SOL    HW234697  10.357   7.817   3.934 -1.5141  0.3018  2.1789
10689SOL     OW34698   4.090   6.353   7.602  0.1810  0.1774 -0.0252
10689SOL    HW134699   4.130   6.266   7.613 -0.5774 -0.1715 -0.0058
10689SOL    HW234700   4.157   6.403   7.554  0.9818 -0.1481  0.7235
10690SOL     OW34701   1.470   4.582   3.540  0.1941 -0.6293 -0.3394
10690SOL    HW134702   1.540   4.524   3.509  0.9375 -0.6132  1.2354
10690SOL    HW234703   1.404   4.523   3.575 -0.2479 -0.6079 -1.1068
10691SOL     OW34704  10.299   4.885   7.252  0.1599 -0.2758  0.1563
10691SOL    HW134705  10.382   4.874   7.204  0.0837  0.9110 -0.2751
10691SOL    HW234706  10.323   4.873   7.344  0.7733 -0.1319  0.0207
10692SOL     OW34707   8.227   8.686   1.450 -0.4287 -0.4578  0.0834
10692SOL    HW134708   8.293   8.647   1.392  0.6403 -0.5009  1.2919
10692SOL    HW234709   8.270   8.763   1.487 -1.3309 -0.0594  0.3322
10693SOL     OW34710   4.844   8.570   7.977  0.3153  0.4131  0.5663
10693SOL    HW134711   4.831   8.574   8.071  4.4791 -0.1120  1.3831
10693SOL    HW234712   4.848   8.477   7.957  2.5633  0.4500  0.5713
10694SOL     OW34713   7.400  10.025   0.811 -0.3908 -0.6603  0.1824
10694SOL    HW134714   7.368   9.978   0.888 -1.5443  0.3406  0.3450
10694SOL    HW234715   7.415  10.114   0.841  0.2991 -0.5431 -0.4787
10695SOL     OW34716   2.311   0.563   0.338  0.7092 -0.9366  0.1026
10695SOL    HW134717   2.300   0.578   0.244  4.2080  0.0154 -0.3204
10695SOL    HW234718   2.252   0.626   0.379 -0.6054 -1.1008 -1.4156
10696SOL     OW34719   3.273   0.610   5.342  0.0195 -0.0289 -0.5541
10696SOL    HW134720   3.351   0.578   5.385  0.6106  0.5405 -1.1773
10696SOL    HW234721   3.225   0.657   5.410 -0.8383 -2.1136  0.3609
10697SOL     OW34722   1.466   9.850   6.296 -0.6751  0.4685 -0.7456
10697SOL    HW134723   1.415   9.838   6.376  1.0139 -0.2865  0.2799
10697SOL    HW234724   1.428   9.927   6.254 -0.7397  1.7446  1.5132
10698SOL     OW34725   2.110   2.104   3.140  0.2892  0.0519 -0.3673
10698SOL    HW134726   2.130   2.151   3.222  1.0988 -0.2132 -0.4042
10698SOL    HW234727   2.061   2.027   3.168  2.1770 -1.0474  0.0971
10699SOL     OW34728   8.047   4.055   6.540  0.0124  0.1536 -0.0141
10699SOL    HW134729   8.045   4.123   6.473  0.9725 -0.4682 -0.7028
10699SOL    HW234730   8.125   4.075   6.592 -0.4403  0.3330  0.6099
10700SOL     OW34731   8.090   9.802   4.856 -0.1442 -0.9327 -0.1145
10700SOL    HW134732   8.123   9.727   4.906  0.2141 -1.8288 -1.6305
10700SOL    HW234733   8.031   9.763   4.792  2.6858 -0.4440 -3.2931
10701SOL     OW34734   1.476   7.896   3.907  0.4843 -0.5300 -0.5373
10701SOL    HW134735   1.568   7.924   3.903  0.5163  0.0348  2.3855
10701SOL    HW234736   1.432   7.951   3.842  2.2581 -1.4090 -2.6508
10702SOL     OW34737   6.146   6.707   8.636 -0.3000 -0.3836  0.1383
10702SOL    HW134738   6.237   6.716   8.663 -0.3864  1.9649 -0.1064
10702SOL    HW234739   6.144   6.629   8.581  1.7579  0.0455 -0.6237
10703SOL     OW34740   0.168   3.390   9.416 -0.5899  0.0241 -0.6255
10703SOL    HW134741   0.260   3.369   9.432 -1.0591 -0.9870  1.0048
10703SOL    HW234742   0.125   3.305   9.405 -1.2255  0.5055 -2.2773
10704SOL     OW34743   0.594   2.703   8.624  0.5460 -0.2961  0.4181
10704SOL    HW134744   0.523   2.678   8.682  0.1775 -1.3383 -0.4393
10704SOL    HW234745   0.669   2.652   8.654  0.3745 -0.7782  0.0562
10705SOL     OW34746   5.211   7.287   6.633 -0.0230 -0.0957  0.3947
10705SOL    HW134747   5.226   7.381   6.623 -0.5123  0.0745  1.2251
10705SOL    HW234748   5.263   7.263   6.710 -0.0694 -0.4609  0.3119
10706SOL     OW34749   8.811   8.009   8.177  0.3569  0.1792  0.2488
10706SOL    HW134750   8.820   7.974   8.265 -0.8239 -0.0858  0.2707
10706SOL    HW234751   8.733   8.064   8.180 -0.6835 -1.1224 -1.0069
10707SOL     OW34752   6.630   1.670   3.513 -0.9690  0.6656 -0.0364
10707SOL    HW134753   6.679   1.740   3.556 -1.0015  0.8156 -0.2412
10707SOL    HW234754   6.543   1.674   3.552 -0.6700  0.0521  0.7158
10708SOL     OW34755   9.761   4.285   2.710 -0.4608 -0.3404 -0.0832
10708SOL    HW134756   9.845   4.330   2.723 -0.0062 -0.4943 -2.1168
10708SOL    HW234757   9.781   4.193   2.723 -0.9358 -0.2155  1.9811
10709SOL     OW34758   0.442   1.719   3.272  0.4754  0.2267 -0.1660
10709SOL    HW134759   0.493   1.710   3.191  0.8246 -1.6409  0.2079
10709SOL    HW234760   0.352   1.727   3.242  0.6673  0.2212 -0.7667
10710SOL     OW34761   0.131   7.241   7.743 -0.1673 -0.0612 -0.2515
10710SOL    HW134762   0.153   7.163   7.792  0.4352  1.0849  1.3915
10710SOL    HW234763   0.204   7.301   7.758  0.3933  0.1553 -3.1214
10711SOL     OW34764   1.246   1.968   8.618 -0.7379 -0.0851 -0.2648
10711SOL    HW134765   1.308   1.972   8.545 -0.2375  0.7539  0.1874
10711SOL    HW234766   1.283   1.903   8.677 -0.5611  0.0276 -0.2500
10712SOL     OW34767   6.109   7.154   1.695 -0.2119 -0.2004  0.5524
10712SOL    HW134768   6.109   7.060   1.716  2.5969 -0.1242  1.3816
10712SOL    HW234769   6.162   7.161   1.616  2.0763  0.8421  2.0634
10713SOL     OW34770   4.895   1.907   5.634  0.5120 -0.4209  0.7633
10713SOL    HW134771   4.891   1.831   5.576  2.2250 -0.6215  0.8422
10713SOL    HW234772   4.969   1.889   5.692  1.4186  1.5782  0.3346
10714SOL     OW34773   1.659   7.133   8.068 -0.5728  0.0632  0.3117
10714SOL    HW134774   1.681   7.221   8.036 -3.7583  1.9442  2.7235
10714SOL    HW234775   1.651   7.143   8.163 -0.2773 -3.0903  0.7871
10715SOL     OW34776   9.035   6.721   9.855 -0.0209  0.5056  0.0558
10715SOL    HW134777   9.042   6.750   9.946 -0.9207  0.6496  0.0865
10715SOL    HW234778   8.963   6.772   9.819  0.3543  0.4810 -0.7575
10716SOL     OW34779  10.009   8.788  10.237 -0.2289  0.3031 -0.0803
10716SOL    HW134780  10.063   8.754  10.166 -2.4209 -1.3918 -1.0530
10716SOL    HW234781  10.015   8.883  10.228  0.6423  0.1326 -1.6582
10717SOL     OW34782   1.619   8.967   1.074  0.4903 -0.4060 -0.0519
10717SOL    HW134783   1.584   9.054   1.053 -0.4623 -0.3223  1.7548
10717SOL    HW234784   1.580   8.945   1.158  2.8303 -1.4111  0.8553
10718SOL     OW34785   9.409   5.233   6.278  0.2984  0.6994  0.6098
10718SOL    HW134786   9.446   5.145   6.273 -1.1933 -0.2163  3.3557
10718SOL    HW234787   9.345   5.236   6.207 -0.2904 -0.8225  1.0299
10719SOL     OW34788   0.836   9.300   8.921  0.4257  0.6643 -0.2129
10719SOL    HW134789   0.773   9.363   8.955  1.6050  2.8743 -1.8279
10719SOL    HW234790   0.912   9.309   8.978  0.2156 -0.1277  0.2031
10720SOL     OW34791   0.043   5.518   0.933  0.0234 -0.5595  0.5722
10720SOL    HW134792   0.021   5.485   1.020  1.1265  0.0459  1.0962
10720SOL    HW234793   0.085   5.444   0.889  0.1586 -0.6334  0.8274
10721SOL     OW34794   3.771   3.525   3.667  0.3769  0.0495  0.6182
10721SOL    HW134795   3.851   3.473   3.669 -0.6628 -1.6570  0.0649
10721SOL    HW234796   3.723   3.499   3.746 -0.6442 -0.6906 -0.2182
10722SOL     OW34797   3.903   6.463   8.256 -0.6326 -0.7090  0.2356
10722SOL    HW134798   3.903   6.435   8.165  0.0321  3.1893 -1.1315
10722SOL    HW234799   3.811   6.484   8.275 -0.6464 -0.7592  0.2245
10723SOL     OW34800   1.798   2.309   0.227 -0.2451  0.3385 -0.4770
10723SOL    HW134801   1.703   2.319   0.234 -0.0628  2.6965 -0.5662
10723SOL    HW234802   1.810   2.240   0.161 -1.8987  0.6417 -1.1590
10724SOL     OW34803   6.058   7.031   2.705 -0.3100  0.6515 -0.3089
10724SOL    HW134804   6.118   7.017   2.633  1.7341  0.7351  1.2856
10724SOL    HW234805   6.073   7.122   2.732 -2.3399  1.2106 -0.8452
10725SOL     OW34806   5.420   4.034   5.663 -0.1050 -0.1107  0.5659
10725SOL    HW134807   5.399   4.125   5.682 -0.9543 -0.4499  1.3524
10725SOL    HW234808   5.422   3.992   5.749  1.8629 -0.5262  0.3588
10726SOL     OW34809   7.180   1.893   7.456 -0.0614 -0.0437  0.1088
10726SOL    HW134810   7.182   1.974   7.406 -0.3887 -0.2458 -0.2412
10726SOL    HW234811   7.136   1.917   7.538 -0.0169  0.1687  0.0707
10727SOL     OW34812   9.063   6.076   5.804 -0.2008 -0.2376  0.3832
10727SOL    HW134813   9.092   6.013   5.869 -0.6514 -0.8501  0.0112
10727SOL    HW234814   9.103   6.046   5.722 -0.8491 -0.3705  0.1020
10728SOL     OW34815   6.319   3.153   5.048  0.0775 -0.5020  0.8169
10728SOL    HW134816   6.339   3.153   4.955 -0.0430 -2.2464  0.7538
10728SOL    HW234817   6.394   3.111   5.090 -1.1554 -2.5198  1.1307
10729SOL     OW34818   8.546   9.647   7.332  0.6463  0.1101 -0.0645
10729SOL    HW134819   8.491   9.612   7.403 -0.4230  0.5652 -0.6491
10729SOL    HW234820   8.570   9.570   7.281  1.4570 -0.2280  0.7929
10730SOL     OW34821   5.015   3.158   2.750  0.3081 -0.3636  0.3281
10730SOL    HW134822   4.957   3.092   2.711 -0.3888  0.5156 -0.1595
10730SOL    HW234823   5.029   3.127   2.840  1.4305 -2.0863 -0.3978
10731SOL     OW34824   2.664   7.764   3.082  0.1913  1.2636 -0.2280
10731SOL    HW134825   2.657   7.705   3.157  0.9390  2.3089  0.7066
10731SOL    HW234826   2.578   7.760   3.040  0.3184 -0.6937 -0.3842
10732SOL     OW34827   3.061   1.275   8.152  0.0457  0.4354 -0.0104
10732SOL    HW134828   3.064   1.180   8.153 -0.7954  0.3746  2.1194
10732SOL    HW234829   3.060   1.300   8.245  2.4369  2.6212 -0.4361
10733SOL     OW34830   2.404   3.036   6.026  0.3323 -0.0535  0.3324
10733SOL    HW134831   2.463   3.075   5.962 -0.6636  0.4284 -0.3140
10733SOL    HW234832   2.318   3.072   6.005 -0.3287 -1.3004  0.7765
10734SOL     OW34833   7.338   2.571  10.276 -0.9063  0.7345 -0.0400
10734SOL    HW134834   7.250   2.565  10.236 -1.3362 -0.9061  1.0688
10734SOL    HW234835   7.324   2.617  10.358 -0.5127  1.4906 -0.3862
10735SOL     OW34836   5.766   6.457   5.018  0.0509 -0.3024  0.4416
10735SOL    HW134837   5.675   6.429   5.004  0.0135  0.1070 -0.2349
10735SOL    HW234838   5.774   6.468   5.112 -0.4892 -0.7294  0.5398
10736SOL     OW34839   9.193   3.919   4.305  0.4847  0.3139  0.3102
10736SOL    HW134840   9.133   3.861   4.352 -0.5540  1.4699  0.4422
10736SOL    HW234841   9.156   3.926   4.217  0.4936  0.9325  0.3541
10737SOL     OW34842   6.648   8.808   9.247  0.4633  0.0736 -0.1194
10737SOL    HW134843   6.573   8.780   9.300  0.9218 -1.1237 -0.0674
10737SOL    HW234844   6.660   8.737   9.183 -0.0341  1.4490 -1.8151
10738SOL     OW34845   7.938   4.908   4.984  0.2178 -0.1517  0.4536
10738SOL    HW134846   8.006   4.930   5.047  0.8962 -0.0915 -0.2861
10738SOL    HW234847   7.856   4.929   5.029  0.7334  0.9863  0.8989
10739SOL     OW34848   5.803   7.998   1.284 -0.2189 -0.2243 -0.4426
10739SOL    HW134849   5.752   8.049   1.347  0.0199 -0.7708  0.1972
10739SOL    HW234850   5.824   8.061   1.215 -1.0339  0.2188 -0.3018
10740SOL     OW34851   9.476   4.227   6.386 -0.0475  0.2254  0.6775
10740SOL    HW134852   9.466   4.322   6.397 -0.3464  0.0475  2.1785
10740SOL    HW234853   9.485   4.193   6.475 -0.1109 -1.1866  0.1783
10741SOL     OW34854   5.983   7.567   0.550  0.3585  0.4442  0.5084
10741SOL    HW134855   5.917   7.637   0.552  0.6141  0.8131 -1.3585
10741SOL    HW234856   6.065   7.611   0.576  0.4228  0.7454 -0.1704
10742SOL     OW34857   4.120   6.291   1.838  0.0261  0.0435  0.3988
10742SOL    HW134858   4.044   6.290   1.780 -0.2362 -2.2098  0.7143
10742SOL    HW234859   4.087   6.322   1.921 -0.6845 -1.3198  0.6493
10743SOL     OW34860   2.693   9.901   9.392  0.1526 -0.2315  0.4901
10743SOL    HW134861   2.746   9.981   9.391  0.3454 -0.3591 -0.2610
10743SOL    HW234862   2.651   9.901   9.478 -0.4464  1.0653  0.2158
10744SOL     OW34863   6.808   9.844   6.870  0.3183 -0.8748  0.0309
10744SOL    HW134864   6.730   9.789   6.866 -0.2669 -0.0419 -0.1019
10744SOL    HW234865   6.779   9.925   6.912  1.3739 -0.9951  1.0227
10745SOL     OW34866   8.184  10.049   7.347 -0.7449  0.2455  0.5264
10745SOL    HW134867   8.270  10.030   7.309 -0.8163 -0.3309  0.6386
10745SOL    HW234868   8.151  10.123   7.296 -0.4534  0.0617  0.0605
10746SOL     OW34869   5.534   1.541   4.462  0.4235 -0.1681  0.2122
10746SOL    HW134870   5.558   1.453   4.432  0.3502  0.2145 -1.0428
10746SOL    HW234871   5.440   1.535   4.480  0.6096 -0.5903  1.0743
10747SOL     OW34872   9.007   4.712   2.881 -0.1590  0.3818  0.0711
10747SOL    HW134873   9.067   4.717   2.956 -1.2675  3.7857  0.9206
10747SOL    HW234874   8.920   4.716   2.921 -1.0764 -3.1246 -1.2132
10748SOL     OW34875   9.034   7.302   7.627 -0.4020 -0.4573  0.2279
10748SOL    HW134876   9.025   7.240   7.556 -0.5113 -1.1917  0.8670
10748SOL    HW234877   9.036   7.248   7.706  1.7534  0.1862  0.6645
10749SOL     OW34878   0.387   1.699   1.137 -0.2474  0.4788 -0.1000
10749SOL    HW134879   0.458   1.744   1.091 -0.7923  0.8143 -0.6311
10749SOL    HW234880   0.395   1.728   1.228  1.2928 -0.7632  0.1975
10750SOL     OW34881  10.296   8.927   8.814  0.1855  0.4182 -0.0503
10750SOL    HW134882  10.385   8.955   8.793 -0.8918  2.9140 -1.8635
10750SOL    HW234883  10.266   8.991   8.879 -0.9964  1.0444 -1.1762
10751SOL     OW34884   3.217   3.386   7.820  0.0155  0.6952  0.4569
10751SOL    HW134885   3.178   3.353   7.900 -3.5651 -0.1132 -1.4096
10751SOL    HW234886   3.231   3.308   7.766 -0.7454  1.4546 -0.8959
10752SOL     OW34887   8.458   4.233   5.278 -0.4284  0.4696 -0.1314
10752SOL    HW134888   8.411   4.183   5.211  2.4868 -0.4182 -1.7173
10752SOL    HW234889   8.500   4.167   5.333 -0.1009  1.1930  0.5085
10753SOL     OW34890   6.531   6.375   7.827  0.2836  0.1294  0.0570
10753SOL    HW134891   6.565   6.368   7.737 -1.3723 -0.8786 -0.5324
10753SOL    HW234892   6.513   6.285   7.853 -1.9107  0.5599  0.2789
10754SOL     OW34893   3.553   7.846   0.516  0.4188  0.3429  0.4690
10754SOL    HW134894   3.463   7.815   0.515 -0.0832  1.6551 -1.7976
10754SOL    HW234895   3.555   7.912   0.586 -0.4489  0.4542  0.3977
10755SOL     OW34896   2.624   4.347   1.143  0.1167 -0.2063 -0.3260
10755SOL    HW134897   2.606   4.441   1.137  0.6884  0.0825  1.7023
10755SOL    HW234898   2.572   4.318   1.218 -0.7178 -1.7046 -1.4459
10756SOL     OW34899   8.079   6.987   8.406  0.2718  0.5433  0.4299
10756SOL    HW134900   8.164   7.030   8.406  0.8778 -0.5995  0.1624
10756SOL    HW234901   8.098   6.898   8.377 -1.3101  0.8436 -1.8129
10757SOL     OW34902   7.351   4.480   4.466 -0.4111  0.5985  0.2323
10757SOL    HW134903   7.435   4.505   4.504  0.0170 -0.7562  0.2288
10757SOL    HW234904   7.338   4.541   4.393  1.9947 -0.9413 -1.6165
10758SOL     OW34905   5.151   6.040   9.340 -0.4830 -0.3363  0.0929
10758SOL    HW134906   5.205   6.037   9.419  0.5830 -1.1224 -0.6419
10758SOL    HW234907   5.066   6.007   9.368 -0.0976 -0.6901  0.8908
10759SOL     OW34908   1.201   9.610   9.159 -0.0391 -0.1450 -0.4410
10759SOL    HW134909   1.264   9.618   9.087  1.1958 -0.6172  0.5534
10759SOL    HW234910   1.226   9.679   9.221  0.5934 -1.3692  0.7309
10760SOL     OW34911   8.562   7.320   3.694  0.1229  0.0328 -0.1828
10760SOL    HW134912   8.593   7.274   3.772  2.7453  0.6524 -0.7529
10760SOL    HW234913   8.477   7.280   3.675  0.0398 -1.0885  2.1623
10761SOL     OW34914   9.173   5.622   1.686 -0.3284  0.0913  0.3459
10761SOL    HW134915   9.141   5.710   1.665 -2.9858 -0.9586 -0.3934
10761SOL    HW234916   9.155   5.611   1.779  0.0299  0.3042  0.4450
10762SOL     OW34917   7.213   4.735   8.230 -0.3022  0.2121  0.1860
10762SOL    HW134918   7.124   4.732   8.195 -0.3309 -2.5202  0.2665
10762SOL    HW234919   7.217   4.663   8.293  1.2247  1.9306  2.2285
10763SOL     OW34920   6.869   4.728   8.989  0.1953 -0.1717 -0.0425
10763SOL    HW134921   6.879   4.683   9.073 -0.4202  0.6781  0.5024
10763SOL    HW234922   6.899   4.817   9.005  1.1151 -0.2872 -1.0296
10764SOL     OW34923  10.091   4.059   5.204  0.2661 -0.0386 -0.0890
10764SOL    HW134924  10.088   3.990   5.137 -1.8104  0.3087 -0.3964
10764SOL    HW234925  10.110   4.139   5.155 -0.4650  0.0897 -0.1724
10765SOL     OW34926   5.731   4.904   4.104  0.5261 -0.0752 -0.1794
10765SOL    HW134927   5.754   4.864   4.020  1.0311 -1.8957  0.7621
10765SOL    HW234928   5.635   4.899   4.108  0.5395 -0.5655 -0.4007
10766SOL     OW34929   4.527   8.326   2.856 -0.2703 -0.3689  0.1549
10766SOL    HW134930   4.538   8.407   2.906 -1.1831 -0.0525 -0.1361
10766SOL    HW234931   4.594   8.267   2.890 -0.7323 -0.0890  1.6052
10767SOL     OW34932   5.147   4.160   0.800  0.5686 -0.1104  0.0655
10767SOL    HW134933   5.072   4.107   0.826  0.0610  0.2253 -0.6752
10767SOL    HW234934   5.109   4.235   0.753  1.2827  0.7981  0.8794
10768SOL     OW34935   1.698   9.939   7.250  0.0101  0.9863  0.3362
10768SOL    HW134936   1.603   9.949   7.238 -0.2225 -0.8562  0.4400
10768SOL    HW234937   1.711   9.949   7.344 -0.2059  0.3696  0.4347
10769SOL     OW34938   5.612   1.271   4.395 -0.1757  0.1629  0.0044
10769SOL    HW134939   5.659   1.306   4.319 -0.5246 -0.5683 -0.5642
10769SOL    HW234940   5.541   1.218   4.357 -2.1324  2.0353  0.8149
10770SOL     OW34941   6.489   8.460   4.115 -0.2319  0.3965  0.0360
10770SOL    HW134942   6.583   8.469   4.125 -0.0329 -0.2059 -1.0631
10770SOL    HW234943   6.475   8.461   4.020 -1.0725 -1.6182  0.0796
10771SOL     OW34944   3.946   9.513   5.755 -0.6281 -0.0770  0.3430
10771SOL    HW134945   3.870   9.570   5.751 -2.3599 -2.2671 -0.0622
10771SOL    HW234946   3.927   9.452   5.827  1.7013  0.5255  1.5646
10772SOL     OW34947   4.147   0.715   4.269 -0.0276  0.1574 -0.2335
10772SOL    HW134948   4.218   0.732   4.207  0.3528 -0.2203  0.0896
10772SOL    HW234949   4.071   0.697   4.215  0.1759  0.3430 -0.5856
10773SOL     OW34950   2.442   9.455   9.553  0.0926  0.3081 -0.2989
10773SOL    HW134951   2.510   9.424   9.613 -1.5920 -0.3236  1.4219
10773SOL    HW234952   2.403   9.529   9.599 -1.5003 -0.4273 -0.3922
10774SOL     OW34953   4.970   9.326   1.110  0.8520  0.2568  0.6192
10774SOL    HW134954   4.953   9.376   1.190  2.2329  1.4500  0.1996
10774SOL    HW234955   4.938   9.383   1.040  4.0289  1.4690 -0.0066
10775SOL     OW34956   2.556   5.411   3.919  0.5599 -0.4331  0.4576
10775SOL    HW134957   2.480   5.459   3.952 -0.3530 -1.8280  0.4860
10775SOL    HW234958   2.554   5.328   3.967 -0.5029 -2.3509 -2.6244
10776SOL     OW34959   4.751   9.435   3.420 -0.2199 -0.6315 -0.2246
10776SOL    HW134960   4.760   9.351   3.375  0.8948  0.1780 -1.5961
10776SOL    HW234961   4.717   9.494   3.353  0.9047  0.4684  0.1435
10777SOL     OW34962   6.351   0.765   9.185  0.3287  0.1303  0.3111
10777SOL    HW134963   6.374   0.755   9.093  0.8613 -1.0596  0.5411
10777SOL    HW234964   6.417   0.713   9.232 -0.1604  0.3909  1.3323
10778SOL     OW34965   0.746   4.397   0.145 -0.4715  0.2680 -0.0158
10778SOL    HW134966   0.666   4.354   0.175 -0.0883 -1.0051 -0.7601
10778SOL    HW234967   0.795   4.416   0.226 -0.3169 -1.3804  0.3141
10779SOL     OW34968   6.376   3.930   3.820  0.1806 -0.0952 -0.1929
10779SOL    HW134969   6.432   3.862   3.858  0.3275 -1.6633 -2.9095
10779SOL    HW234970   6.288   3.890   3.818 -0.4633  1.1555  1.2345
10780SOL     OW34971   5.049   6.283   9.796 -0.1834  0.0198 -0.1156
10780SOL    HW134972   4.989   6.249   9.862  0.3200  1.7318  1.3232
10780SOL    HW234973   5.136   6.268   9.832  0.1349  0.1592 -0.8116
10781SOL     OW34974   6.364   8.677   0.429  0.2380 -0.2658  0.5988
10781SOL    HW134975   6.451   8.644   0.449  0.8030  0.5979 -0.3517
10781SOL    HW234976   6.307   8.599   0.433  1.5297 -1.4294 -1.6785
10782SOL     OW34977   1.796   9.132   6.900  0.6633 -0.6243  0.1516
10782SOL    HW134978   1.748   9.089   6.971  1.9221 -2.7654 -0.2109
10782SOL    HW234979   1.785   9.073   6.825 -0.0795  1.2536 -1.2857
10783SOL     OW34980   3.984   8.442  10.004  0.1286 -0.3209  0.0968
10783SOL    HW134981   4.075   8.411  10.002  0.1484 -0.3335  0.8646
10783SOL    HW234982   3.945   8.409   9.923  0.9768  0.1978 -0.5455
10784SOL     OW34983   5.655   0.924   8.385  0.4325  0.0154  0.3681
10784SOL    HW134984   5.701   0.970   8.455 -0.8685  2.1074 -0.0840
10784SOL    HW234985   5.563   0.925   8.412  0.0881 -0.3360 -0.7385
10785SOL     OW34986   1.598   7.146   3.054  0.5187  0.2621 -0.0686
10785SOL    HW134987   1.560   7.234   3.046  0.0470  0.3074  2.0804
10785SOL    HW234988   1.526   7.087   3.034 -0.2805  0.3725  2.1975
10786SOL     OW34989   3.004   6.803   7.216  0.3580 -0.7297 -0.2998
10786SOL    HW134990   3.041   6.734   7.272 -0.7479 -1.2615 -0.1874
10786SOL    HW234991   3.002   6.880   7.272 -0.7856 -1.2680  0.4527
10787SOL     OW34992   4.994   6.725   9.984 -0.1595 -0.8417 -0.1882
10787SOL    HW134993   4.981   6.681   9.900 -0.0410  0.0416 -0.6916
10787SOL    HW234994   4.922   6.694  10.039 -0.0204 -1.7131 -0.4953
10788SOL     OW34995   7.629   3.869   0.901 -0.5060  0.0291  0.5032
10788SOL    HW134996   7.686   3.937   0.866 -0.7041 -0.0196  0.0785
10788SOL    HW234997   7.549   3.874   0.847 -0.7026 -0.2313  0.7662
10789SOL     OW34998   7.275   0.795   2.559  0.0362 -0.2441  0.1430
10789SOL    HW134999   7.362   0.827   2.533  0.6932 -2.1767 -0.1815
10789SOL    HW235000   7.270   0.816   2.652  1.8141 -1.9692  0.7172
10790SOL     OW35001   9.599   7.874   7.489 -0.3314 -0.2095 -0.1985
10790SOL    HW135002   9.607   7.780   7.503 -1.0219 -0.0767  1.2876
10790SOL    HW235003   9.515   7.885   7.446 -1.4405 -0.1123  1.8975
10791SOL     OW35004   7.263   0.724   0.329 -0.2328  0.0705 -0.2796
10791SOL    HW135005   7.205   0.715   0.253 -0.2207  0.6527 -0.3650
10791SOL    HW235006   7.203   0.743   0.402 -0.1883  0.1731 -0.2703
10792SOL     OW35007   1.568   9.815   0.750  0.5248 -0.4809  0.5595
10792SOL    HW135008   1.488   9.785   0.707  1.7082 -1.8348 -0.8104
10792SOL    HW235009   1.593   9.742   0.807 -0.5286  0.9338  3.0256
10793SOL     OW35010   0.647   2.283   3.039  0.4177  0.4583  0.3186
10793SOL    HW135011   0.724   2.306   3.090  0.2588  0.0844  0.7349
10793SOL    HW235012   0.574   2.323   3.086  0.0801 -1.2449  1.3243
10794SOL     OW35013   5.787   7.124   1.773 -0.3397 -0.3570  0.0371
10794SOL    HW135014   5.849   7.051   1.778 -0.8497 -0.7354  3.0610
10794SOL    HW235015   5.797   7.168   1.857 -2.2682  1.1904 -0.4887
10795SOL     OW35016   6.048   6.344   5.726  0.5176 -0.3769 -0.1887
10795SOL    HW135017   6.018   6.382   5.809  0.2652  0.4736 -0.6565
10795SOL    HW235018   6.051   6.418   5.666  2.8679 -0.5196 -0.3664
10796SOL     OW35019   4.068   3.603   2.620 -0.5120 -0.6306  0.0099
10796SOL    HW135020   3.979   3.638   2.613  0.2351  1.1995 -0.7266
10796SOL    HW235021   4.104   3.610   2.532 -0.0283 -2.6006 -0.0095
10797SOL     OW35022   8.670   6.292   0.501  0.0197 -0.1162 -0.0663
10797SOL    HW135023   8.675   6.201   0.471  1.0625  0.1760 -0.8398
10797SOL    HW235024   8.577   6.313   0.496  0.0053 -0.3961 -2.2679
10798SOL     OW35025   6.012   8.919   4.050  0.0614 -0.1687 -0.1550
10798SOL    HW135026   6.014   8.828   4.020  0.5660  0.0271 -0.7385
10798SOL    HW235027   6.066   8.920   4.129 -0.9477 -0.6062  0.5808
10799SOL     OW35028   1.636   3.043   8.021 -0.1624  0.9957 -0.1753
10799SOL    HW135029   1.627   3.021   8.114  2.1484 -0.0517 -0.1367
10799SOL    HW235030   1.729   3.058   8.009 -0.4301  1.2351 -2.3208
10800SOL     OW35031   2.965   5.140   5.862  0.0688 -0.2320  0.0962
10800SOL    HW135032   2.894   5.076   5.869  1.0684 -1.2212  2.1318
10800SOL    HW235033   2.952   5.198   5.938 -0.1793  1.3563 -1.1058
10801SOL     OW35034   1.578   4.459   8.736 -0.5803  0.5946 -0.3236
10801SOL    HW135035   1.592   4.441   8.643 -2.7029 -1.1266 -0.4061
10801SOL    HW235036   1.575   4.554   8.742  0.9762  0.7797 -1.7516
10802SOL     OW35037   3.304   2.131   8.092 -0.4629 -0.8103 -0.0137
10802SOL    HW135038   3.324   2.099   8.004 -1.0986  1.5463 -1.1065
10802SOL    HW235039   3.315   2.226   8.086 -1.6668 -0.4582  2.1341
10803SOL     OW35040   0.674   7.387   8.399 -0.4320 -0.3492  0.3008
10803SOL    HW135041   0.652   7.468   8.352  0.6962 -0.3398 -0.2651
10803SOL    HW235042   0.642   7.317   8.342 -0.0003 -0.3206  0.0197
10804SOL     OW35043   5.321   5.301   1.422  0.5480 -0.1299  0.1192
10804SOL    HW135044   5.271   5.224   1.448 -0.6562  0.1405 -1.2433
10804SOL    HW235045   5.354   5.279   1.334  0.3827  0.8073 -0.1837
10805SOL     OW35046   0.083   2.709   4.336 -0.0436  0.3213 -0.6144
10805SOL    HW135047   0.126   2.792   4.357  1.2988 -0.3514 -0.5994
10805SOL    HW235048   0.036   2.726   4.254  0.6342  0.9458 -0.8790
10806SOL     OW35049   4.185   8.321   8.786 -0.1048  0.2650 -0.3372
10806SOL    HW135050   4.249   8.360   8.725  1.7737 -0.7474  0.8971
10806SOL    HW235051   4.191   8.374   8.865 -2.5016  1.5428 -0.9083
10807SOL     OW35052   7.031   7.247   5.707  0.1855 -0.1466 -0.0096
10807SOL    HW135053   7.043   7.198   5.625 -0.3166 -0.6152  0.1879
10807SOL    HW235054   7.073   7.192   5.773  2.5037  1.2400 -0.2346
10808SOL     OW35055   5.447   7.803   3.223  0.3657  0.0558  0.3343
10808SOL    HW135056   5.502   7.759   3.157  0.4042  1.2369 -0.4516
10808SOL    HW235057   5.373   7.743   3.236  0.1691 -0.0418 -1.0765
10809SOL     OW35058   1.014   5.522   4.078  0.2966  0.4535 -0.0749
10809SOL    HW135059   0.973   5.597   4.035 -0.9779 -0.8400 -1.2395
10809SOL    HW235060   1.104   5.521   4.044 -0.1441  0.5348 -1.3164
10810SOL     OW35061   1.483   5.264   7.297  0.2170 -0.0775 -0.1162
10810SOL    HW135062   1.458   5.220   7.378  0.8377  0.9870  0.6710
10810SOL    HW235063   1.550   5.327   7.323  0.5432  0.1718 -1.4841
10811SOL     OW35064   3.605   3.963   3.453 -0.1425  0.1726 -0.1708
10811SOL    HW135065   3.517   3.941   3.423  0.0340 -1.5342  0.4574
10811SOL    HW235066   3.608   4.059   3.450 -1.9990  0.2642 -0.2159
10812SOL     OW35067   1.908  10.219   6.580  0.2903  0.3463 -0.5701
10812SOL    HW135068   1.951  10.188   6.660  0.0201  2.1953  0.3358
10812SOL    HW235069   1.834  10.159   6.569 -0.2476  0.6418  1.1547
10813SOL     OW35070   8.022   4.536   6.130 -0.1217  0.0760  0.8868
10813SOL    HW135071   8.012   4.441   6.126 -2.5896  0.2992 -2.1914
10813SOL    HW235072   8.059   4.560   6.045  1.1804  1.8700  1.8927
10814SOL     OW35073   2.461  10.125   5.344  0.2019  0.3089 -0.1272
10814SOL    HW135074   2.484  10.107   5.435 -0.6041  1.1308  0.2605
10814SOL    HW235075   2.544  10.128   5.298  0.6808  0.6976  0.7400
10815SOL     OW35076   5.094   0.213  10.101  0.0843  0.0138 -0.2383
10815SOL    HW135077   5.180   0.179  10.077 -0.0814 -0.9963  0.5187
10815SOL    HW235078   5.035   0.137  10.091 -0.7801  0.7609 -1.0389
10816SOL     OW35079   2.450   5.887   9.339 -0.4273  0.1785 -0.3673
10816SOL    HW135080   2.533   5.853   9.372 -0.1254  2.2083  1.2075
10816SOL    HW235081   2.386   5.820   9.362  0.2563  0.1814  1.7873
10817SOL     OW35082   2.667   8.152   8.968 -0.0387  0.3613 -0.4532
10817SOL    HW135083   2.733   8.222   8.964  0.6458 -0.3098 -1.4237
10817SOL    HW235084   2.632   8.146   8.879 -1.4046  0.6790  0.0432
10818SOL     OW35085   1.849   9.474   0.694 -0.3765 -0.0771 -0.1913
10818SOL    HW135086   1.892   9.411   0.635 -2.1102 -1.7697  0.2543
10818SOL    HW235087   1.897   9.467   0.776 -0.3993 -0.6340 -0.2239
10819SOL     OW35088   9.197   2.581   1.251  0.6392  0.1330 -0.2066
10819SOL    HW135089   9.135   2.597   1.323  1.6724  0.5650  0.6121
10819SOL    HW235090   9.196   2.486   1.240 -1.5521  0.2557 -1.4816
10820SOL     OW35091   0.919   0.612   4.418 -0.1110  0.5121 -0.4034
10820SOL    HW135092   0.886   0.672   4.352 -0.7079 -0.7456 -1.2938
10820SOL    HW235093   0.843   0.593   4.473  0.2099  0.9841  0.2242
10821SOL     OW35094   9.522   6.719   4.951  0.1538  0.1156 -0.2720
10821SOL    HW135095   9.615   6.711   4.929  0.5584  1.5402  0.7786
10821SOL    HW235096   9.491   6.793   4.898 -0.6962 -1.0120 -1.4341
10822SOL     OW35097   3.144   8.634   3.955  0.0835  0.7943 -0.3259
10822SOL    HW135098   3.173   8.562   3.899  0.5844 -0.0856  1.0216
10822SOL    HW235099   3.147   8.599   4.044 -0.0702  2.3538  0.3355
10823SOL     OW35100   1.940   1.735   2.643 -0.1343  0.2368  0.3517
10823SOL    HW135101   1.950   1.830   2.641 -0.7490  0.3023  0.2296
10823SOL    HW235102   2.025   1.701   2.615 -0.4404  0.7837 -1.3499
10824SOL     OW35103   9.111   8.679   7.508 -0.6487 -0.2156  0.2775
10824SOL    HW135104   9.141   8.619   7.439 -1.5363 -0.6003  0.2128
10824SOL    HW235105   9.177   8.672   7.576  1.6999  2.1371 -1.5445
10825SOL     OW35106   6.651   3.792   8.723 -0.0521 -0.2912 -0.1192
10825SOL    HW135107   6.721   3.726   8.721 -0.6615 -1.2522  3.4108
10825SOL    HW235108   6.573   3.746   8.693  0.3162  0.1258 -1.8108
10826SOL     OW35109   8.972   4.811   0.585 -0.2337  0.1036  0.0161
10826SOL    HW135110   9.013   4.773   0.507  2.8562  0.4686  1.3384
10826SOL    HW235111   8.973   4.905   0.569 -1.5071  0.0737 -0.3321
10827SOL     OW35112   0.640   9.018   7.914  0.3175 -0.2070  0.4546
10827SOL    HW135113   0.564   9.074   7.926 -0.5457 -1.5572  1.7497
10827SOL    HW235114   0.715   9.077   7.917 -0.4720  0.8016  2.9452
10828SOL     OW35115   1.423   9.286   2.981  0.3227 -0.0443  0.4218
10828SOL    HW135116   1.478   9.293   2.904  0.0537 -1.6710  0.0467
10828SOL    HW235117   1.484   9.296   3.055  0.7273  0.5903  0.0053
10829SOL     OW35118   0.473   4.481   3.727  0.3389 -0.2414  0.3787
10829SOL    HW135119   0.552   4.496   3.779  0.4116  1.5198 -0.1681
10829SOL    HW235120   0.404   4.469   3.792  0.7323  0.1084  0.8770
10830SOL     OW35121   6.789   4.941   1.777 -0.2938 -0.4439  0.1293
10830SOL    HW135122   6.780   4.988   1.860 -0.7273 -2.1707  1.0939
10830SOL    HW235123   6.869   4.890   1.787 -0.8104 -1.3306 -0.1501
10831SOL     OW35124   4.930   7.173   4.361 -0.7519 -0.4091  0.0277
10831SOL    HW135125   5.019   7.208   4.354 -0.8813 -0.3499 -1.8341
10831SOL    HW235126   4.942   7.078   4.359 -0.7972 -0.4196 -2.3174
10832SOL     OW35127   0.582   6.875   9.992  0.8393 -0.0253 -0.0975
10832SOL    HW135128   0.610   6.785   9.974 -2.3982 -1.0018 -0.9112
10832SOL    HW235129   0.550   6.873  10.082 -0.3556 -0.0444 -0.5061
10833SOL     OW35130   3.593   5.695   7.009 -0.7839 -0.2346  0.0115
10833SOL    HW135131   3.542   5.681   7.088 -0.1380  0.3095  0.5402
10833SOL    HW235132   3.610   5.789   7.008 -0.3891 -0.3043 -0.5218
10834SOL     OW35133   4.952   5.670   7.486 -0.2962  0.1927  0.2986
10834SOL    HW135134   4.937   5.629   7.401  0.1229  0.5034  0.0689
10834SOL    HW235135   4.878   5.729   7.499 -0.0884  0.5418 -0.0976
10835SOL     OW35136   5.874   9.500   7.719  0.1316 -0.1150  0.7587
10835SOL    HW135137   5.831   9.540   7.795  0.0243  0.0093  0.6352
10835SOL    HW235138   5.944   9.446   7.756  0.4909  0.4434  0.9211
10836SOL     OW35139   2.288   4.052   1.196  0.1187 -0.2865  0.2311
10836SOL    HW135140   2.202   4.021   1.169  0.1522  0.5622 -0.9218
10836SOL    HW235141   2.271   4.134   1.242  0.2579 -0.5147  0.6965
10837SOL     OW35142   9.765   5.222   6.038 -0.5081 -0.2385  0.5115
10837SOL    HW135143   9.725   5.143   6.076 -0.8907  0.7514  2.2825
10837SOL    HW235144   9.829   5.188   5.975 -0.3315 -1.9833  1.5601
10838SOL     OW35145   8.995   5.089   0.574 -0.0921  0.4977  0.5139
10838SOL    HW135146   9.014   5.163   0.516  1.8088 -0.2935  0.0472
10838SOL    HW235147   9.023   5.119   0.661 -2.3040  1.4316  0.9716
10839SOL     OW35148   3.351   4.176   5.513 -0.2790 -0.7396 -0.2995
10839SOL    HW135149   3.290   4.199   5.442 -0.6735  1.1674  0.5842
10839SOL    HW235150   3.346   4.250   5.573  1.2284 -1.5961  0.9476
10840SOL     OW35151   2.426   1.007   0.405 -0.2865 -0.1851  0.2900
10840SOL    HW135152   2.363   0.966   0.464  0.3866  0.0997  1.2383
10840SOL    HW235153   2.472   1.071   0.460 -0.0320  0.4995 -0.6919
10841SOL     OW35154   3.679   0.290   7.937  0.0794 -0.1636 -0.0050
10841SOL    HW135155   3.765   0.332   7.931  0.2638  0.5392  4.3053
10841SOL    HW235156   3.699   0.197   7.953  0.0088 -0.1409  0.2153
10842SOL     OW35157  10.173   2.135   4.048 -0.9643 -0.9520  0.0133
10842SOL    HW135158  10.196   2.114   3.958  1.9208 -0.2143  0.4833
10842SOL    HW235159  10.252   2.176   4.084 -2.1671 -0.8391  2.7572
10843SOL     OW35160   6.224   3.283   8.776  0.1780 -0.3450  0.0570
10843SOL    HW135161   6.185   3.365   8.807  0.6053  0.1550 -0.6864
10843SOL    HW235162   6.152   3.237   8.733 -0.3857 -0.9850  1.6211
10844SOL     OW35163   2.134   8.031   2.643  0.3799 -0.2986  0.6419
10844SOL    HW135164   2.225   8.062   2.645  0.0750  0.6346  0.5095
10844SOL    HW235165   2.082   8.111   2.635 -0.4519 -0.8332  0.6438
10845SOL     OW35166   7.419   7.771   1.594  0.2906 -0.1092  0.2085
10845SOL    HW135167   7.396   7.788   1.503 -0.9777 -0.2197  0.4965
10845SOL    HW235168   7.503   7.725   1.589  0.9449  1.1027 -0.8269
10846SOL     OW35169   7.189   2.112   8.861 -0.4643 -0.2538 -0.2876
10846SOL    HW135170   7.189   2.028   8.815  0.2786  0.0735 -0.9164
10846SOL    HW235171   7.100   2.146   8.850 -0.1787  0.0545 -1.9674
10847SOL     OW35172   5.709   8.198   3.855 -0.4156 -0.0411 -0.4599
10847SOL    HW135173   5.747   8.262   3.914 -0.7009 -0.4967  0.2332
10847SOL    HW235174   5.762   8.119   3.867 -0.7878 -0.2894 -0.4397
10848SOL     OW35175   5.238   9.374   2.012 -0.0646  0.4426  0.6116
10848SOL    HW135176   5.296   9.381   1.936 -0.7500 -2.1128 -0.2522
10848SOL    HW235177   5.294   9.343   2.083 -0.2093 -1.5287 -0.0868
10849SOL     OW35178   0.323   2.232   5.516  0.6032 -0.1548  0.3457
10849SOL    HW135179   0.371   2.207   5.437  0.7712  1.4454 -0.0785
10849SOL    HW235180   0.370   2.189   5.588  0.2828 -1.8583 -0.4014
10850SOL     OW35181   5.544   5.058   7.532  0.2560  0.0105  0.6150
10850SOL    HW135182   5.602   4.987   7.559  0.6981  0.0928 -0.0892
10850SOL    HW235183   5.599   5.117   7.481 -0.2876  0.4597  0.5268
10851SOL     OW35184   5.251   7.739   9.427 -0.3369  0.2435  0.1013
10851SOL    HW135185   5.193   7.784   9.489  2.8211 -1.2090  4.6875
10851SOL    HW235186   5.332   7.790   9.430  0.2853 -0.4924 -2.2256
10852SOL     OW35187   0.931   1.936   4.641  0.1471  0.0325  0.7358
10852SOL    HW135188   1.024   1.915   4.629  0.0422  1.1082 -2.8335
10852SOL    HW235189   0.931   2.024   4.679  0.5702 -0.0077  0.8363
10853SOL     OW35190   7.024   2.283   3.090  0.2597 -0.4158  0.1151
10853SOL    HW135191   6.950   2.260   3.147  1.7130 -1.3576  1.6969
10853SOL    HW235192   7.026   2.379   3.091 -0.2049 -0.4086  1.0310
10854SOL     OW35193   6.004   6.750   9.547 -0.2934 -0.5517 -0.4110
10854SOL    HW135194   6.061   6.826   9.558 -0.3770 -0.6447  0.8333
10854SOL    HW235195   6.056   6.687   9.498  0.3799 -0.3212  0.0025
10855SOL     OW35196   6.775   7.125   7.271 -0.3965  0.3529  0.0797
10855SOL    HW135197   6.722   7.124   7.191 -1.4771 -1.3964  0.7518
10855SOL    HW235198   6.735   7.057   7.326  2.2113 -0.6702  0.8473
10856SOL     OW35199   8.977   5.970   0.879 -0.0983 -0.1567 -0.3139
10856SOL    HW135200   9.035   6.024   0.825  1.6002 -0.4250  1.1438
10856SOL    HW235201   9.035   5.906   0.919 -1.8842 -2.3888 -1.0711
10857SOL     OW35202   7.385   2.039   5.109  0.0963  0.3004 -0.1595
10857SOL    HW135203   7.290   2.025   5.112 -0.1055  1.6622  0.3169
10857SOL    HW235204   7.400   2.111   5.169  1.7709 -1.5114  1.7496
10858SOL     OW35205   7.849   5.145   9.873  0.0805 -0.5454  0.0960
10858SOL    HW135206   7.846   5.091   9.952 -2.9553 -2.3758 -1.1003
10858SOL    HW235207   7.901   5.093   9.811 -0.1108 -0.5735 -0.0425
10859SOL     OW35208   7.659   3.239   0.483  0.4308 -0.6499  0.3475
10859SOL    HW135209   7.742   3.283   0.501  0.7543 -0.7508 -0.8056
10859SOL    HW235210   7.601   3.309   0.450  1.8114 -1.3615 -4.2736
10860SOL     OW35211   0.556   6.760   3.282 -0.6133 -0.5276 -0.0666
10860SOL    HW135212   0.639   6.749   3.236  1.1606 -0.4187  2.8795
10860SOL    HW235213   0.580   6.785   3.371 -3.8251 -0.4375  0.9263
10861SOL     OW35214   1.211   1.226   1.449  0.3587 -0.0224  0.6025
10861SOL    HW135215   1.259   1.191   1.524 -1.1942 -0.9014  1.2456
10861SOL    HW235216   1.135   1.168   1.439  0.0920  0.5369 -1.1651
10862SOL     OW35217   5.017   3.116   5.550  0.1209  0.1120 -0.3218
10862SOL    HW135218   5.098   3.068   5.568 -0.3360  0.2420  2.6391
10862SOL    HW235219   5.044   3.189   5.495  2.1214  0.3784  0.9231
10863SOL     OW35220   1.872   0.967   7.002 -0.0124  0.1119 -0.1785
10863SOL    HW135221   1.921   1.049   7.000  0.1328  0.0039 -1.4378
10863SOL    HW235222   1.882   0.936   7.093 -0.0629  1.4576  0.3029
10864SOL     OW35223   6.201   3.296   2.724 -0.5961  0.4019 -0.1155
10864SOL    HW135224   6.153   3.368   2.764  0.0983  0.8642 -0.0953
10864SOL    HW235225   6.210   3.231   2.794  0.8983  1.3454  0.6195
10865SOL     OW35226   0.769   0.406   2.689 -0.1431 -0.0376  0.2541
10865SOL    HW135227   0.748   0.349   2.615 -0.0820 -1.5040  1.3223
10865SOL    HW235228   0.772   0.494   2.651 -1.0455 -0.6312 -1.2945
10866SOL     OW35229   0.845   0.512   9.244  0.7051  0.3544  0.3773
10866SOL    HW135230   0.760   0.509   9.288  0.3849 -0.1155 -0.2706
10866SOL    HW235231   0.829   0.563   9.165  1.0346  0.2849  0.2667
10867SOL     OW35232   3.344   1.362   9.513 -0.4754  0.0729 -0.1082
10867SOL    HW135233   3.396   1.283   9.525  0.6354  0.5774 -1.3299
10867SOL    HW235234   3.258   1.340   9.548  0.0449 -1.3820  0.3323
10868SOL     OW35235   7.274   0.750   2.210 -0.0337 -0.3026 -0.1884
10868SOL    HW135236   7.279   0.671   2.156  1.7879  0.1974 -0.8087
10868SOL    HW235237   7.338   0.810   2.172  1.2009  0.1699  2.3817
10869SOL     OW35238   2.375  10.055   0.342  0.0327 -0.1618 -0.3782
10869SOL    HW135239   2.457  10.006   0.337  0.0201 -0.2038 -0.1665
10869SOL    HW235240   2.392  10.123   0.408 -0.7647 -1.4184  1.1877
10870SOL     OW35241   8.365   5.743   4.024  0.4229 -0.0853  0.4506
10870SOL    HW135242   8.457   5.762   4.042  0.5893 -0.5395  0.0881
10870SOL    HW235243   8.343   5.800   3.951  0.5380 -0.2848  0.2583
10871SOL     OW35244   2.611   8.093   5.364  0.4701 -0.4299  0.3388
10871SOL    HW135245   2.541   8.028   5.374  0.0426 -0.2466 -1.2172
10871SOL    HW235246   2.658   8.065   5.286  0.7247  0.7418  0.0575
10872SOL     OW35247   0.130   3.497   7.035  0.4620 -0.4633 -0.4253
10872SOL    HW135248   0.221   3.523   7.019 -0.7587  3.6392 -2.1176
10872SOL    HW235249   0.116   3.423   6.977  2.5302 -0.7503 -0.6388
10873SOL     OW35250   1.307   3.127   8.798 -0.5325 -0.5279 -0.3332
10873SOL    HW135251   1.295   3.088   8.711 -1.2371 -1.8021  0.3113
10873SOL    HW235252   1.384   3.083   8.833 -0.4333 -0.2358 -0.1792
10874SOL     OW35253   2.471   9.463   5.356  0.1528  0.0454 -0.0962
10874SOL    HW135254   2.493   9.376   5.325  0.3933  0.1766 -0.2968
10874SOL    HW235255   2.413   9.498   5.288 -2.9723 -1.3029  1.6765
10875SOL     OW35256   8.149   7.077   6.865 -0.2998 -0.5084 -0.0339
10875SOL    HW135257   8.211   7.006   6.848  0.3941  0.5970 -2.7234
10875SOL    HW235258   8.075   7.035   6.907  0.1819 -2.8352 -1.3450
10876SOL     OW35259   0.009   1.785   8.526 -0.3381  0.5649 -0.6211
10876SOL    HW135260   0.066   1.802   8.452  2.1856 -0.4428  0.9505
10876SOL    HW235261   0.063   1.734   8.587 -2.0444  1.8392  2.1863
10877SOL     OW35262   6.713   2.395   5.589  0.7836 -0.1894 -0.9748
10877SOL    HW135263   6.764   2.446   5.652  0.1380  0.5314 -1.0231
10877SOL    HW235264   6.709   2.307   5.627 -0.4051  0.4563  0.4881
10878SOL     OW35265   3.231   5.649   1.613 -0.0226 -0.2441 -0.1108
10878SOL    HW135266   3.187   5.694   1.540  0.0059 -1.8029 -1.1351
10878SOL    HW235267   3.318   5.629   1.580  0.1484 -0.5730  0.5270
10879SOL     OW35268   9.626   2.312   8.868  0.0999  0.5523  0.0922
10879SOL    HW135269   9.707   2.336   8.823 -0.6765  1.0793 -1.0913
10879SOL    HW235270   9.576   2.394   8.874 -0.3577  0.2354  0.7887
10880SOL     OW35271   6.912   6.472   9.528  0.0735  0.0171  0.0344
10880SOL    HW135272   6.988   6.414   9.522  0.8113  0.9452  0.1092
10880SOL    HW235273   6.946   6.558   9.504 -0.6198  0.7298  1.5259
10881SOL     OW35274   8.122   4.070   0.117  0.3805  0.4478  0.7806
10881SOL    HW135275   8.134   3.982   0.082 -0.1952 -0.3813  2.5082
10881SOL    HW235276   8.051   4.108   0.066  0.9311  0.0953 -0.2674
10882SOL     OW35277   5.288   1.052   6.917 -0.1264  0.3068 -0.0489
10882SOL    HW135278   5.370   1.033   6.870 -0.7375 -1.2201 -0.5528
10882SOL    HW235279   5.291   0.997   6.995 -1.4496 -1.1293 -0.9704
10883SOL     OW35280   5.592   9.779   5.519 -0.5143  0.0285  0.1191
10883SOL    HW135281   5.609   9.724   5.442  1.4479 -0.2302  0.6869
10883SOL    HW235282   5.548   9.720   5.580 -1.2616 -0.0195 -0.4551
10884SOL     OW35283   4.987   8.186   3.775  0.7167  0.1442 -0.0877
10884SOL    HW135284   5.006   8.277   3.753  1.1518 -0.2452 -1.3997
10884SOL    HW235285   5.018   8.175   3.865 -1.6739  1.9683  1.0816
10885SOL     OW35286   1.119   7.402   8.653 -0.2379 -0.5659 -0.1976
10885SOL    HW135287   1.209   7.407   8.684 -0.2880  0.8009 -0.2128
10885SOL    HW235288   1.066   7.401   8.733 -0.2551 -0.2029 -0.2063
10886SOL     OW35289   6.837   2.114   9.523 -0.1047  0.4511  0.3946
10886SOL    HW135290   6.872   2.066   9.448 -0.8111  0.1358  0.2575
10886SOL    HW235291   6.914   2.151   9.566  0.3579  0.1066 -0.1257
10887SOL     OW35292   3.421   7.621   9.432 -0.0172 -0.1939 -0.1147
10887SOL    HW135293   3.396   7.712   9.419 -1.9242 -0.0059  3.6442
10887SOL    HW235294   3.356   7.570   9.383  0.3543  0.4051 -1.2581
10888SOL     OW35295   2.942   3.138   2.023 -0.2700  0.3745 -0.4435
10888SOL    HW135296   2.960   3.044   2.019  1.9780  0.6987  0.3857
10888SOL    HW235297   2.847   3.144   2.027 -0.4985 -1.8224 -1.1793
10889SOL     OW35298   4.777   2.626   7.607  0.0527  0.1199 -0.3935
10889SOL    HW135299   4.691   2.584   7.610 -1.1384  2.4178  0.3617
10889SOL    HW235300   4.783   2.672   7.691  2.2054 -0.3235 -0.2745
10890SOL     OW35301   5.489   3.318   9.129  0.1324 -0.5375  0.1916
10890SOL    HW135302   5.441   3.312   9.211  0.3556 -0.8942  0.2984
10890SOL    HW235303   5.493   3.228   9.098 -1.1354 -0.2606 -0.8974
10891SOL     OW35304   5.780   0.388   7.655 -0.2210 -0.3627 -0.3334
10891SOL    HW135305   5.718   0.362   7.723  0.0147 -2.7369 -0.9538
10891SOL    HW235306   5.743   0.354   7.574  0.5117  0.6647 -1.1383
10892SOL     OW35307   2.442   5.706   5.900 -0.3325  0.1887  0.1104
10892SOL    HW135308   2.533   5.682   5.883  0.2839  2.2546  0.2716
10892SOL    HW235309   2.440   5.728   5.993 -1.2942 -0.9891  0.3881
10893SOL     OW35310   1.249  10.021   0.590 -0.3877 -0.0271 -0.3894
10893SOL    HW135311   1.300  10.101   0.598  0.8190 -0.8279  0.2067
10893SOL    HW235312   1.174  10.034   0.648 -1.4862  1.5853 -2.0554
10894SOL     OW35313   6.915   9.482   0.222  0.6168  0.0526  0.2018
10894SOL    HW135314   6.948   9.392   0.227 -1.3256 -0.7142 -0.0640
10894SOL    HW235315   6.976   9.532   0.276  1.5954 -1.4516  0.5777
10895SOL     OW35316   1.207   1.838   4.029  0.2016 -0.0474 -0.3100
10895SOL    HW135317   1.222   1.832   4.124 -1.5203  2.6739  0.2233
10895SOL    HW235318   1.283   1.887   3.996  0.6369 -0.7097 -0.3171
10896SOL     OW35319   2.375   7.562   6.024 -0.6366  0.1296 -0.5807
10896SOL    HW135320   2.280   7.559   6.040 -0.5139 -0.2925  0.1422
10896SOL    HW235321   2.403   7.642   6.068 -0.6225  0.1121 -0.5577
10897SOL     OW35322   7.872   9.008   2.032  0.2769  0.0927 -0.1244
10897SOL    HW135323   7.955   8.999   2.080 -0.3984  1.5367  1.4003
10897SOL    HW235324   7.883   9.089   1.981 -0.7895  1.2683  1.4399
10898SOL     OW35325  10.162   5.944   2.609 -0.1083  0.1256  0.3373
10898SOL    HW135326  10.084   5.966   2.558  1.0569  0.8272 -1.2208
10898SOL    HW235327  10.157   5.999   2.687 -1.5000 -0.3551  0.6128
10899SOL     OW35328   9.027   0.641   7.936 -0.1207  0.2130 -0.2695
10899SOL    HW135329   9.099   0.689   7.895  1.8839 -2.8249 -0.6343
10899SOL    HW235330   8.989   0.589   7.865 -2.0896  0.9937  0.1446
10900SOL     OW35331   2.176   3.161   5.968 -0.4226  0.0731 -0.0666
10900SOL    HW135332   2.234   3.228   6.006  1.4160 -0.8842 -1.0668
10900SOL    HW235333   2.095   3.209   5.949  0.9929  2.1963 -1.2390
10901SOL     OW35334   1.421   5.385   5.764  0.2537 -0.1850  0.6918
10901SOL    HW135335   1.367   5.359   5.839 -0.5378 -1.0992 -0.1538
10901SOL    HW235336   1.492   5.322   5.762  0.3129 -0.1191  0.7096
10902SOL     OW35337   7.956   4.234   7.460  0.0896  0.1704 -0.1004
10902SOL    HW135338   7.905   4.208   7.536 -0.5327  2.3315  0.2741
10902SOL    HW235339   7.892   4.274   7.401  0.7415 -0.5210 -1.3152
10903SOL     OW35340   9.732   1.392   1.751 -0.1326  0.4005  0.0097
10903SOL    HW135341   9.661   1.329   1.740 -0.2346  0.0642  2.0832
10903SOL    HW235342   9.797   1.368   1.685 -0.2071 -1.8541  0.6828
10904SOL     OW35343   0.475   4.282   0.439 -0.1199 -0.6262  0.0275
10904SOL    HW135344   0.401   4.231   0.404 -0.9429  1.4953 -1.5565
10904SOL    HW235345   0.548   4.220   0.439 -0.5397 -1.4161 -3.7245
10905SOL     OW35346   2.759   2.149   0.668  0.3411  0.3982  0.2672
10905SOL    HW135347   2.724   2.093   0.599  1.2058  1.3335 -0.9799
10905SOL    HW235348   2.704   2.130   0.744  0.7498 -2.3198  0.0083
10906SOL     OW35349  10.218   9.821  10.089 -0.4008 -0.2578  0.3288
10906SOL    HW135350  10.187   9.873  10.015  0.6824 -0.0430  0.0062
10906SOL    HW235351  10.161   9.846  10.162  0.2772  1.6054  0.2551
10907SOL     OW35352   5.816   2.883   2.851  0.3012 -0.3421  0.1743
10907SOL    HW135353   5.819   2.788   2.842 -0.4473 -0.5798  1.9914
10907SOL    HW235354   5.903   2.912   2.823  0.3684 -1.4926 -0.9039
10908SOL     OW35355   4.024   7.919   6.508 -0.1075 -0.0667 -1.0581
10908SOL    HW135356   4.053   7.990   6.565 -0.9603 -0.4193 -0.1714
10908SOL    HW235357   4.099   7.902   6.451  1.1011 -0.3260  0.5531
10909SOL     OW35358   9.371   1.218   0.197 -0.1117  0.1606  0.1681
10909SOL    HW135359   9.412   1.172   0.269  0.4634 -2.0755 -1.4891
10909SOL    HW235360   9.278   1.194   0.202 -0.0737  0.0179  0.1788
10910SOL     OW35361   3.704   5.788   9.613 -0.2981 -0.9435  0.1147
10910SOL    HW135362   3.679   5.783   9.706 -0.7611 -0.4254  0.0217
10910SOL    HW235363   3.625   5.820   9.569  0.6448  1.1971 -0.1221
10911SOL     OW35364   4.281   4.798   5.623 -0.3726  0.4482  0.2455
10911SOL    HW135365   4.347   4.830   5.561 -2.6241  1.2115 -1.9099
10911SOL    HW235366   4.299   4.846   5.704  0.4696  2.1360 -0.8918
10912SOL     OW35367   5.000   2.131   7.693 -0.4386  0.1504 -0.2952
10912SOL    HW135368   4.956   2.216   7.703 -0.4422  0.0906  0.2391
10912SOL    HW235369   5.007   2.118   7.598  0.9462  1.4592 -0.4012
10913SOL     OW35370   5.088   2.789   2.768 -0.1974 -0.2940  0.7656
10913SOL    HW135371   5.013   2.832   2.725 -1.2423 -2.9355 -0.2906
10913SOL    HW235372   5.065   2.788   2.860 -1.3924 -0.8753  0.4785
10914SOL     OW35373   5.267   8.808   2.382 -0.1518  0.0050 -0.3175
10914SOL    HW135374   5.317   8.738   2.341  1.3529  1.0218 -0.2678
10914SOL    HW235375   5.227   8.766   2.459  0.8898 -0.7698 -0.1723
10915SOL     OW35376   0.880   7.297   9.629 -0.3497  0.1095 -0.5239
10915SOL    HW135377   0.971   7.280   9.655 -0.6722  1.0890  1.4356
10915SOL    HW235378   0.882   7.298   9.533  1.1063 -2.8658 -0.6257
10916SOL     OW35379   7.918   8.216  10.275  0.2845  0.1788  0.2054
10916SOL    HW135380   7.929   8.193  10.367 -0.8655 -2.5827 -0.2356
10916SOL    HW235381   8.002   8.256  10.249  0.9421  0.1728  2.1870
10917SOL     OW35382   2.614   7.894   6.778  0.1549 -0.0101 -0.2236
10917SOL    HW135383   2.638   7.978   6.817  1.3353 -0.1893 -0.5330
10917SOL    HW235384   2.643   7.828   6.841 -0.5387 -0.2046 -0.0967
10918SOL     OW35385   8.138   0.832   9.852  0.2976 -0.3162 -0.1791
10918SOL    HW135386   8.144   0.813   9.759  2.4124 -0.4259 -0.0487
10918SOL    HW235387   8.082   0.763   9.887  0.3267 -0.8689 -1.1971
10919SOL     OW35388   3.016   6.173   0.051 -0.6219  0.1746  0.0583
10919SOL    HW135389   2.923   6.177   0.029 -0.2244  0.1586 -1.8155
10919SOL    HW235390   3.019   6.132   0.137 -2.4660  2.2692  1.2250
10920SOL     OW35391   6.156   5.775   3.916 -0.0471  0.1536 -0.0730
10920SOL    HW135392   6.216   5.810   3.981 -0.9214  0.6460  0.4865
10920SOL    HW235393   6.103   5.711   3.964 -0.1041 -0.1361 -0.5124
10921SOL     OW35394   9.472   1.796   7.898 -0.2477  0.4047 -0.1703
10921SOL    HW135395   9.523   1.839   7.967  0.3421  2.0427 -1.5439
10921SOL    HW235396   9.395   1.852   7.886 -1.6102 -1.1909  0.7879
10922SOL     OW35397   1.450   6.479   4.399 -0.0979 -0.0786 -0.2036
10922SOL    HW135398   1.423   6.456   4.488  1.9580  1.2982  0.8536
10922SOL    HW235399   1.445   6.574   4.397 -0.3528 -0.1022 -1.6780
10923SOL     OW35400   9.523   1.764  10.000 -0.0486 -0.4074  0.1628
10923SOL    HW135401   9.431   1.790  10.000  0.1892  0.4991 -0.5478
10923SOL    HW235402   9.566   1.829  10.056  0.3635 -0.0146 -0.5998
10924SOL     OW35403   2.784   9.105   3.205 -0.5885 -0.3447 -0.1872
10924SOL    HW135404   2.721   9.070   3.143 -0.0992  0.0214 -0.9039
10924SOL    HW235405   2.858   9.045   3.202  0.4558  0.9443 -1.7759
10925SOL     OW35406   5.522   1.993   3.844 -0.0839 -0.7531  0.1322
10925SOL    HW135407   5.597   2.001   3.903  0.8169 -0.2709 -1.0275
10925SOL    HW235408   5.487   2.082   3.838 -1.4955 -1.1596  1.5488
10926SOL     OW35409   4.039   3.333   1.383  0.3139 -0.5169  0.1090
10926SOL    HW135410   3.999   3.370   1.462  0.0443 -1.1555  0.2857
10926SOL    HW235411   4.058   3.242   1.407  0.7234 -0.5666 -0.3886
10927SOL     OW35412   1.885   9.405   9.231 -0.0135 -0.6817  0.4246
10927SOL    HW135413   1.911   9.491   9.264  0.4683 -0.6388 -0.0522
10927SOL    HW235414   1.795   9.393   9.262  0.2807 -0.4570  1.3671
10928SOL     OW35415   6.895   7.083   0.180  0.1306  0.0758 -0.2539
10928SOL    HW135416   6.905   7.157   0.121  0.1448 -0.5198 -1.0226
10928SOL    HW235417   6.927   7.114   0.265  1.2677  0.5711 -0.8541
10929SOL     OW35418   5.961   6.881   0.390 -0.2789  0.7676  0.2054
10929SOL    HW135419   6.002   6.804   0.430 -2.0642 -0.5723 -0.3788
10929SOL    HW235420   6.029   6.918   0.334  1.0309  0.3879  1.4774
10930SOL     OW35421   1.048   9.498   8.094  0.2735 -0.1388 -0.2215
10930SOL    HW135422   1.107   9.567   8.125 -0.4202  1.0192 -1.3547
10930SOL    HW235423   0.986   9.544   8.037 -0.3577 -1.6740 -0.8222
10931SOL     OW35424   4.937   4.201   5.186  0.0435 -0.1637 -0.9139
10931SOL    HW135425   4.962   4.276   5.240 -0.1984  0.0036 -1.0290
10931SOL    HW235426   4.959   4.228   5.096 -1.9841  0.6533 -1.2348
10932SOL     OW35427   4.583   8.905   4.078 -0.0310  0.1134  0.2369
10932SOL    HW135428   4.497   8.881   4.043 -0.6906  1.0259  1.1731
10932SOL    HW235429   4.617   8.824   4.116  0.1908 -0.6095 -1.4379
10933SOL     OW35430   4.704   1.036   4.590 -0.5258 -0.0028  0.3674
10933SOL    HW135431   4.684   1.018   4.498  1.3976 -2.0855  0.2610
10933SOL    HW235432   4.742   1.124   4.589 -0.6690  0.0674 -0.8212
10934SOL     OW35433   4.876   4.993   1.010 -0.1243 -0.4117  0.0487
10934SOL    HW135434   4.883   4.998   0.915 -0.1484  0.5498  0.0928
10934SOL    HW235435   4.814   4.921   1.026 -0.0989 -0.5895 -0.6513
10935SOL     OW35436   5.438   1.900   5.131  0.1014 -0.1491 -0.4054
10935SOL    HW135437   5.374   1.885   5.061 -0.4954 -0.0994  0.1124
10935SOL    HW235438   5.431   1.994   5.150  1.6893  0.2545 -1.6128
10936SOL     OW35439   4.521   7.185   2.343  0.3259  0.5144 -0.0738
10936SOL    HW135440   4.554   7.105   2.383 -0.0407  1.3800  2.0791
10936SOL    HW235441   4.595   7.246   2.346  1.0608 -0.0607 -2.9799
10937SOL     OW35442   4.460   0.530   4.944 -0.2901  0.4229  0.1184
10937SOL    HW135443   4.505   0.556   4.863 -1.4528  0.4293 -0.5357
10937SOL    HW235444   4.492   0.441   4.960 -0.6365  0.1231 -0.7855
10938SOL     OW35445   1.648   6.067   3.243 -0.2112 -0.1169  0.2590
10938SOL    HW135446   1.562   6.028   3.228  0.3523 -1.6032  0.7931
10938SOL    HW235447   1.671   6.042   3.332  1.4695 -1.1079 -0.4082
10939SOL     OW35448   8.468   2.900   2.109  0.3044 -0.2388  0.5148
10939SOL    HW135449   8.480   2.987   2.147 -0.9529  0.3076 -0.2598
10939SOL    HW235450   8.400   2.859   2.162 -1.4158  0.5055 -1.0081
10940SOL     OW35451   2.598   8.979   0.978  0.4785 -0.3888 -0.0249
10940SOL    HW135452   2.623   8.923   1.051  2.2729  2.1315  1.4453
10940SOL    HW235453   2.676   9.031   0.958 -0.9937  1.5126 -1.3373
10941SOL     OW35454   8.744   8.303   7.077  0.1567 -0.0157 -0.8433
10941SOL    HW135455   8.701   8.218   7.082 -0.1387  0.1808  0.8947
10941SOL    HW235456   8.837   8.283   7.063  0.0827 -0.6317 -0.4964
10942SOL     OW35457   3.870   1.181   9.034 -0.1399 -0.4302  0.1537
10942SOL    HW135458   3.924   1.161   9.111 -0.5545 -1.3810  0.2090
10942SOL    HW235459   3.802   1.239   9.067  1.5299  1.8784 -0.1646
10943SOL     OW35460   6.066   0.482   8.919  0.1016  0.8735 -0.4118
10943SOL    HW135461   5.989   0.428   8.939  0.6604 -0.3689 -1.4426
10943SOL    HW235462   6.044   0.569   8.952 -1.3109  0.2871  0.2605
10944SOL     OW35463   2.775   8.120   1.431  0.4983  0.2226  0.1032
10944SOL    HW135464   2.815   8.205   1.447  1.4603 -0.4819  1.7760
10944SOL    HW235465   2.743   8.092   1.517  1.6223 -1.7527 -0.0568
10945SOL     OW35466   7.581   0.636   5.350 -0.2733  0.0899  0.2452
10945SOL    HW135467   7.552   0.578   5.420  1.8534 -1.3430  0.0426
10945SOL    HW235468   7.535   0.718   5.366 -4.0036 -1.7717  0.1013
10946SOL     OW35469   5.234   0.545   7.270  0.4727  0.1205 -0.4990
10946SOL    HW135470   5.178   0.475   7.236 -1.1108 -0.6538  3.1988
10946SOL    HW235471   5.316   0.535   7.221 -1.0763 -1.5842 -3.0001
10947SOL     OW35472   9.449   0.642   4.165  0.1086 -0.5944  0.0748
10947SOL    HW135473   9.516   0.701   4.131 -0.4869 -0.7821 -1.4803
10947SOL    HW235474   9.435   0.578   4.095 -2.1339 -0.1966  0.0756
10948SOL     OW35475   3.277   6.938   7.108 -0.2351  0.1826  0.2201
10948SOL    HW135476   3.280   6.969   7.018  0.5258 -0.4354  0.0171
10948SOL    HW235477   3.207   6.988   7.149 -0.5499  0.5086 -0.7001
10949SOL     OW35478   4.619   6.111  10.007 -0.0958 -0.4019 -0.6784
10949SOL    HW135479   4.644   6.194   9.966  1.1675 -1.8146 -3.0152
10949SOL    HW235480   4.531   6.126  10.040  0.2892  1.9993 -0.5908
10950SOL     OW35481   2.321   1.266   6.404 -0.0779  0.7372 -0.2169
10950SOL    HW135482   2.240   1.257   6.354  0.2548  1.0961 -0.8297
10950SOL    HW235483   2.332   1.361   6.414 -0.9653  0.6805  1.9078
10951SOL     OW35484   2.314   9.516   1.564 -0.5822 -0.5437 -0.2744
10951SOL    HW135485   2.365   9.547   1.489 -0.0434  0.1725  0.3684
10951SOL    HW235486   2.361   9.439   1.595  0.8357  0.7711  1.0230
10952SOL     OW35487   0.981   1.115   4.418 -0.2542 -0.4704 -0.0779
10952SOL    HW135488   0.975   1.102   4.323 -1.2587  1.5763 -0.3435
10952SOL    HW235489   0.891   1.109   4.448 -0.0527 -0.0843  0.6066
10953SOL     OW35490   4.239   6.941   1.516 -0.1694  0.0188 -0.0981
10953SOL    HW135491   4.221   6.932   1.610  1.8251 -1.7830  0.2168
10953SOL    HW235492   4.248   6.850   1.486  0.8198  0.6019 -1.6563
10954SOL     OW35493   9.189   9.374   3.915  0.0105  0.4870  0.5383
10954SOL    HW135494   9.153   9.368   4.004  0.7234  0.4108  0.8251
10954SOL    HW235495   9.121   9.336   3.860  0.0885 -0.6626  1.1996
10955SOL     OW35496   1.724   3.722   8.961  0.3517  0.2534  0.3532
10955SOL    HW135497   1.674   3.644   8.936  0.2080  0.2367  0.6812
10955SOL    HW235498   1.661   3.794   8.951 -0.0102  0.1358  1.5636
10956SOL     OW35499   0.689   6.499   9.211  0.3881 -0.2445  0.3841
10956SOL    HW135500   0.747   6.446   9.265  1.4353  1.4939  1.0439
10956SOL    HW235501   0.628   6.539   9.274  0.1559  0.0135 -0.0019
10957SOL     OW35502   8.132   8.542   6.398  0.2827  0.4890 -0.0086
10957SOL    HW135503   8.045   8.503   6.385  0.2224  0.1518  1.2509
10957SOL    HW235504   8.170   8.547   6.310 -0.0750 -1.5429 -0.3312
10958SOL     OW35505   6.368   6.188   1.777 -0.0583 -0.1638  0.4813
10958SOL    HW135506   6.337   6.140   1.700  0.0319 -0.2291  0.4849
10958SOL    HW235507   6.290   6.202   1.830 -0.5842  2.0750 -0.7692
10959SOL     OW35508   0.849   3.053   8.236  0.6043 -0.3574 -0.4552
10959SOL    HW135509   0.818   3.115   8.169  0.8314 -0.4973 -0.6914
10959SOL    HW235510   0.923   3.009   8.195  1.3992  0.2820  0.2740
10960SOL     OW35511   4.315   3.486   1.358  0.0638 -0.5501 -0.1739
10960SOL    HW135512   4.238   3.431   1.371 -0.6858  0.8209  1.4994
10960SOL    HW235513   4.289   3.550   1.292  0.6746 -1.6555 -1.5329
10961SOL     OW35514   6.103   0.489   5.863 -0.6277 -0.5764  0.0627
10961SOL    HW135515   6.135   0.574   5.835  1.9109 -0.5066  2.6348
10961SOL    HW235516   6.009   0.500   5.875 -0.2597  2.1186  1.0070
10962SOL     OW35517   5.280   3.663   0.941  0.4509 -0.1260  0.6384
10962SOL    HW135518   5.275   3.662   1.036  0.1196 -1.2584  0.6224
10962SOL    HW235519   5.272   3.756   0.918 -1.1449  0.0261  1.6332
10963SOL     OW35520   9.171   6.773   0.061  0.3071  1.1372 -0.2781
10963SOL    HW135521   9.229   6.698   0.074 -0.0643  0.8544 -0.2378
10963SOL    HW235522   9.216   6.845   0.104  1.0390  1.1204 -0.9910
10964SOL     OW35523   1.547   3.054   4.038  0.0600 -0.0473  0.4588
10964SOL    HW135524   1.488   3.127   4.055  1.7537  1.7593 -0.9336
10964SOL    HW235525   1.547   3.045   3.942  1.2750 -0.6233  0.4945
10965SOL     OW35526   2.053   0.713   3.886 -0.0677  0.0067 -0.0739
10965SOL    HW135527   1.985   0.751   3.943  0.6117  0.0502  0.7353
10965SOL    HW235528   2.134   0.754   3.915  0.2824  0.1289 -1.1883
10966SOL     OW35529   5.210   7.623   6.291  0.5250 -0.4693  0.2000
10966SOL    HW135530   5.248   7.693   6.238  0.3746 -0.1683  0.4834
10966SOL    HW235531   5.168   7.565   6.227 -0.2283  0.2416  0.0355
10967SOL     OW35532   5.430   5.944   1.979  0.0265 -0.3513 -0.7213
10967SOL    HW135533   5.459   6.035   1.987  1.5462 -0.8081 -0.7343
10967SOL    HW235534   5.335   5.949   1.982  0.0943  1.1464  0.3382
10968SOL     OW35535  10.196   4.494   6.714  0.1063 -0.0981 -0.4559
10968SOL    HW135536  10.280   4.452   6.729  0.4414  0.9808  0.8826
10968SOL    HW235537  10.216   4.588   6.711 -0.7067  0.0576 -2.6582
10969SOL     OW35538   4.940   0.521   6.489 -0.0279 -0.7309  0.1286
10969SOL    HW135539   4.943   0.425   6.492 -1.1236 -0.7838  2.7154
10969SOL    HW235540   5.025   0.549   6.522 -0.0175 -0.8547  0.2090
10970SOL     OW35541   7.551   8.990   8.852  0.3100  0.0390 -0.2253
10970SOL    HW135542   7.644   8.967   8.845  0.5916  0.5866  1.1464
10970SOL    HW235543   7.547   9.080   8.820  0.5983  0.6056  1.2077
10971SOL     OW35544   0.058   9.476   8.863 -0.7102  0.7676 -0.0828
10971SOL    HW135545   0.094   9.562   8.883  1.2067 -0.1698  0.7163
10971SOL    HW235546   0.088   9.457   8.774 -2.8026  1.6881 -1.0709
10972SOL     OW35547   1.994   6.548   8.009  0.1162  0.2579  0.3621
10972SOL    HW135548   1.999   6.589   8.095 -1.2188  0.8100  0.1947
10972SOL    HW235549   2.033   6.462   8.021  0.2655  0.4616  1.4321
10973SOL     OW35550   6.276   2.284   4.013  0.0038  0.0254  0.1637
10973SOL    HW135551   6.218   2.340   3.962  1.5470  0.9600 -0.6506
10973SOL    HW235552   6.346   2.260   3.953  0.9806 -0.2514  1.3604
10974SOL     OW35553  10.080   7.858   6.792 -0.2546  0.0205  0.0271
10974SOL    HW135554  10.028   7.931   6.758  0.2394  1.1330  1.5658
10974SOL    HW235555  10.064   7.786   6.730 -0.7009  1.4341 -1.5654
10975SOL     OW35556   5.350   2.820   1.748 -0.0825  0.1355  0.3529
10975SOL    HW135557   5.345   2.890   1.683 -2.5983  1.1982  1.5475
10975SOL    HW235558   5.291   2.848   1.818  0.0273 -2.4658  1.6125
10976SOL     OW35559   1.107   9.960   3.040 -0.6798 -0.2753 -0.6487
10976SOL    HW135560   1.192   9.979   2.999  0.1640 -0.6306  0.8464
10976SOL    HW235561   1.044  10.010   2.989  0.5854  0.8941 -1.1239
10977SOL     OW35562   4.936   9.366   0.827  0.4299  0.0984 -0.0597
10977SOL    HW135563   4.883   9.419   0.768  0.6272  0.0177 -0.3090
10977SOL    HW235564   5.027   9.390   0.807  0.5353 -0.5147 -0.3528
10978SOL     OW35565   5.062   7.429   8.326  0.2771 -0.5736  0.7215
10978SOL    HW135566   5.130   7.473   8.275  0.0016 -0.0583  0.8008
10978SOL    HW235567   5.097   7.425   8.415  0.1765 -0.2491  0.7761
10979SOL     OW35568   3.590   7.980   4.625 -0.0125 -0.2719  0.2495
10979SOL    HW135569   3.574   7.909   4.688  1.2688 -0.4949  0.3467
10979SOL    HW235570   3.604   8.058   4.679 -0.0470 -0.2261  0.1924
10980SOL     OW35571   8.836   5.939   1.513  0.5419  0.2548 -0.3161
10980SOL    HW135572   8.867   6.020   1.471 -0.0878  0.6665 -0.0167
10980SOL    HW235573   8.813   5.882   1.440 -0.7861  1.0647 -0.5781
10981SOL     OW35574   8.128   1.848   3.172 -0.0055  0.5927  0.3774
10981SOL    HW135575   8.081   1.888   3.099 -0.7254 -1.7015 -0.5177
10981SOL    HW235576   8.204   1.806   3.132  0.2123  0.2597  1.1226
10982SOL     OW35577   9.194   3.726   0.450 -0.0283  0.5370 -0.2086
10982SOL    HW135578   9.229   3.645   0.486 -0.4700  0.0215 -0.9193
10982SOL    HW235579   9.268   3.786   0.450  0.0291  0.5310  1.4345
10983SOL     OW35580   6.624   4.485   0.082  0.0761  0.4658  0.3776
10983SOL    HW135581   6.593   4.445   0.163 -0.4938  1.5289  0.7158
10983SOL    HW235582   6.708   4.525   0.105  1.1851 -1.4342 -0.2431
10984SOL     OW35583   5.629   6.788   8.281 -0.6250 -0.4089  0.4148
10984SOL    HW135584   5.701   6.738   8.244 -0.3716  0.6344 -0.5319
10984SOL    HW235585   5.566   6.798   8.209 -0.6932  0.5740  0.5947
10985SOL     OW35586   0.888   2.261   2.618 -0.1088 -0.0450 -0.3257
10985SOL    HW135587   0.823   2.280   2.551 -0.3055  1.0648  0.1493
10985SOL    HW235588   0.961   2.319   2.597  0.3223 -0.5571 -0.2694
10986SOL     OW35589   1.275   4.792   0.804  0.2676  0.0107  0.3914
10986SOL    HW135590   1.310   4.707   0.779  1.3126  0.6948 -0.5707
10986SOL    HW235591   1.351   4.841   0.835 -0.1440  0.9432 -0.0330
10987SOL     OW35592   2.529   9.524   8.658 -0.2974  0.4793  0.1723
10987SOL    HW135593   2.567   9.438   8.637  1.6902  0.7847  2.1493
10987SOL    HW235594   2.476   9.508   8.736  0.0318  1.0346  0.5104
10988SOL     OW35595   1.947   3.095   3.133 -0.6706 -0.3448  0.1171
10988SOL    HW135596   1.950   3.004   3.162 -2.0883  0.6718  4.1974
10988SOL    HW235597   2.002   3.142   3.195 -3.1738  2.0110  0.7699
10989SOL     OW35598   7.493   8.086   6.272 -0.1194 -0.5614  0.3008
10989SOL    HW135599   7.462   8.133   6.349 -0.4588 -0.8156  0.3201
10989SOL    HW235600   7.482   8.148   6.199 -0.1151 -0.4443  0.3997
10990SOL     OW35601   4.423   7.223   6.533  0.3722  0.2130 -0.8862
10990SOL    HW135602   4.342   7.191   6.495 -1.5215 -0.6970  3.3442
10990SOL    HW235603   4.485   7.151   6.524 -1.1505 -1.3956  0.7545
10991SOL     OW35604   9.809   2.641   5.074  0.3393  0.0774  0.0031
10991SOL    HW135605   9.762   2.720   5.047  1.2705  0.6293 -0.0379
10991SOL    HW235606   9.832   2.657   5.166 -1.2266 -1.0218  0.6281
10992SOL     OW35607   5.852   7.467   5.787 -0.7252 -0.1685  0.1081
10992SOL    HW135608   5.849   7.562   5.795 -0.0545  0.0558 -1.9044
10992SOL    HW235609   5.773   7.444   5.738  0.1238 -0.4246 -1.1658
10993SOL     OW35610   4.895   2.996   6.676 -0.2506  0.7287  0.2423
10993SOL    HW135611   4.917   2.934   6.607  0.4317  0.6351  0.5352
10993SOL    HW235612   4.800   2.991   6.684 -0.3845  1.0436 -0.9681
10994SOL     OW35613   9.715   2.430   7.405 -0.4936  0.0935  0.8138
10994SOL    HW135614   9.760   2.495   7.459 -0.4578  0.2776  0.5613
10994SOL    HW235615   9.641   2.477   7.367  0.4292  0.4305 -0.6434
10995SOL     OW35616   7.638   6.897   2.685 -0.0657 -0.0352  0.1185
10995SOL    HW135617   7.721   6.858   2.658  0.3212  0.7244  0.2045
10995SOL    HW235618   7.649   6.916   2.778 -0.1273  0.5783  0.0054
10996SOL     OW35619  10.052   7.849   3.435 -0.3700 -0.3289  0.1513
10996SOL    HW135620  10.003   7.913   3.384 -1.0287 -1.2294 -0.3660
10996SOL    HW235621   9.986   7.789   3.469  0.1197 -0.1178  1.5533
10997SOL     OW35622   1.875   5.870   1.106 -0.1448 -0.0322  0.6795
10997SOL    HW135623   1.895   5.850   1.015  0.2182  2.1522  0.2142
10997SOL    HW235624   1.818   5.799   1.135  0.9427 -1.5641 -0.7742
10998SOL     OW35625   4.810   5.237   7.900 -0.3540  0.2996  0.2905
10998SOL    HW135626   4.790   5.264   7.811 -0.3139 -0.2477  0.1150
10998SOL    HW235627   4.839   5.317   7.944  1.4657  0.2213 -0.6968
10999SOL     OW35628   2.945   3.937   8.612  0.1107 -0.4776  0.6481
10999SOL    HW135629   2.979   3.922   8.523  1.4573 -2.5378  1.4374
10999SOL    HW235630   3.022   3.958   8.664 -0.6790  0.8195  1.3367
11000SOL     OW35631   5.064   2.583   5.324  0.2052 -0.1372 -0.4943
11000SOL    HW135632   5.011   2.532   5.386 -1.4865 -1.6109 -2.9516
11000SOL    HW235633   5.144   2.603   5.372 -1.2103 -0.6862  2.3193
11001SOL     OW35634   6.570   1.089   3.799 -0.3576  0.1810 -0.4553
11001SOL    HW135635   6.603   1.153   3.737  0.8309  1.7876  1.7356
11001SOL    HW235636   6.505   1.136   3.851  0.5441 -0.3317  1.2099
11002SOL     OW35637   6.522   1.760   5.159  0.8277  0.5764  0.2574
11002SOL    HW135638   6.582   1.813   5.212  1.7005  1.0887 -1.1822
11002SOL    HW235639   6.556   1.671   5.166  0.6510  0.5530  0.9211
11003SOL     OW35640   1.546   9.474   2.322  0.0114 -0.3642  0.5683
11003SOL    HW135641   1.451   9.484   2.312  0.0706 -0.4124 -0.0775
11003SOL    HW235642   1.577   9.449   2.235  0.4824 -1.4121  1.0172
11004SOL     OW35643   1.482   6.068   7.867 -0.5267 -0.2661  0.1954
11004SOL    HW135644   1.543   6.127   7.822 -2.0201  0.2388 -1.2562
11004SOL    HW235645   1.496   5.983   7.824 -2.2227  0.2971 -1.6438
11005SOL     OW35646   0.231   6.394  10.203  0.3507 -0.3426  0.0619
11005SOL    HW135647   0.173   6.392  10.279  0.4578  1.0123  0.2020
11005SOL    HW235648   0.224   6.306  10.166 -0.3429 -0.7762  1.1508
11006SOL     OW35649   2.103   6.141   1.740  0.0495  0.0947 -0.3769
11006SOL    HW135650   2.180   6.086   1.753 -0.9164 -1.0456  0.8235
11006SOL    HW235651   2.033   6.095   1.787 -1.9391 -0.1364 -3.2648
11007SOL     OW35652   3.422   6.188   4.320 -0.4304  0.1839 -0.1858
11007SOL    HW135653   3.426   6.219   4.411  1.0457  2.1634 -0.8602
11007SOL    HW235654   3.395   6.265   4.270 -0.3343 -0.6475 -1.5463
11008SOL     OW35655   8.838   3.965   7.497 -1.2445  0.0648 -0.0310
11008SOL    HW135656   8.824   3.873   7.515 -0.0707 -0.3848 -1.2013
11008SOL    HW235657   8.750   4.001   7.483 -1.6771 -0.9951 -0.1027
11009SOL     OW35658   1.860  10.209   6.219  0.0008 -0.4781 -0.4828
11009SOL    HW135659   1.816  10.136   6.176 -1.5254 -0.6784  1.2474
11009SOL    HW235660   1.833  10.202   6.311  3.8250 -0.6686  0.8082
11010SOL     OW35661   6.485   0.204   0.562  0.1564 -0.5871  0.3723
11010SOL    HW135662   6.409   0.192   0.505  0.2236 -2.1389  0.5642
11010SOL    HW235663   6.448   0.226   0.647 -0.0468 -0.6963  0.3137
11011SOL     OW35664   1.498   1.199   5.341  0.4858 -0.1430  0.3644
11011SOL    HW135665   1.498   1.248   5.259 -1.4455  1.0459  0.9922
11011SOL    HW235666   1.491   1.267   5.409 -0.8202 -1.1982  1.3466
11012SOL     OW35667   0.622   6.202   4.209 -0.6125  0.1158  0.3632
11012SOL    HW135668   0.707   6.185   4.250 -1.2701 -2.0491  0.9640
11012SOL    HW235669   0.643   6.215   4.116  0.3202 -1.8377  0.2310
11013SOL     OW35670   5.078   4.310   4.068 -0.8654 -0.8744 -0.3672
11013SOL    HW135671   5.170   4.306   4.095 -0.8922 -0.8685 -0.2755
11013SOL    HW235672   5.081   4.346   3.979 -0.8384 -0.0266 -0.0389
11014SOL     OW35673   6.134  10.028   0.253 -0.6839 -0.6834 -0.0848
11014SOL    HW135674   6.039  10.037   0.261 -0.7032 -1.5651  0.8503
11014SOL    HW235675   6.164  10.113   0.222 -1.3560  0.9305  3.2666
11015SOL     OW35676   3.018   6.947  10.193 -0.1724 -0.4347 -0.4157
11015SOL    HW135677   3.094   6.988  10.152 -1.1199 -0.0290 -1.8429
11015SOL    HW235678   2.988   7.011  10.257  0.0237 -0.1181 -0.6394
11016SOL     OW35679  10.024   9.047  10.174 -0.6195 -0.2897 -0.2610
11016SOL    HW135680   9.936   9.079  10.193  0.3249  1.4114  1.7238
11016SOL    HW235681  10.030   9.049  10.079 -1.7364  2.6760 -0.4022
11017SOL     OW35682   9.625   8.185  10.011  0.6577  0.0244 -0.0740
11017SOL    HW135683   9.616   8.183   9.916  2.4590  0.0631 -0.2779
11017SOL    HW235684   9.709   8.142  10.029 -0.1131 -0.9021  1.5910
11018SOL     OW35685   6.627   6.130   0.736  0.0401 -0.3023 -0.2382
11018SOL    HW135686   6.662   6.041   0.738 -1.2575 -0.8148  0.9671
11018SOL    HW235687   6.628   6.154   0.643  4.3405  0.1060 -0.3138
11019SOL     OW35688   5.112   5.876   1.164 -0.2045 -0.1282 -0.3727
11019SOL    HW135689   5.141   5.785   1.170  1.7517  0.4741 -0.1091
11019SOL    HW235690   5.050   5.885   1.237  0.8423 -0.8210  0.6443
11020SOL     OW35691   8.766   4.502   8.537 -0.3946  0.0149  0.6647
11020SOL    HW135692   8.741   4.412   8.517 -1.5875  0.4683 -0.0067
11020SOL    HW235693   8.850   4.495   8.582  1.0747 -1.2673 -2.0717
11021SOL     OW35694   1.931   5.359   8.766 -0.0905  0.1035 -0.0367
11021SOL    HW135695   1.962   5.383   8.854 -0.8851 -4.5559  1.8349
11021SOL    HW235696   1.861   5.296   8.783 -1.1081 -0.0843 -4.1015
11022SOL     OW35697   1.610   9.715   1.668  0.0710  0.0589 -0.3642
11022SOL    HW135698   1.636   9.720   1.760 -0.4523 -2.0845 -0.0461
11022SOL    HW235699   1.692   9.702   1.621  0.3365  1.1085 -0.2153
11023SOL     OW35700   7.094   6.385   8.406  0.0258  0.2720  0.1025
11023SOL    HW135701   7.121   6.462   8.356 -1.5740 -0.8210 -2.6684
11023SOL    HW235702   7.056   6.327   8.340 -0.5182 -2.0981  2.3895
11024SOL     OW35703   6.761   0.128   0.996  0.4550 -0.5728 -0.1078
11024SOL    HW135704   6.702   0.178   0.940  1.5094 -0.7017 -1.3942
11024SOL    HW235705   6.847   0.141   0.957  1.1602 -1.0603  1.2355
11025SOL     OW35706   9.847   6.951   1.080  0.0457  0.1046 -0.0121
11025SOL    HW135707   9.825   6.866   1.120 -0.9798 -0.4471 -1.6173
11025SOL    HW235708   9.821   6.941   0.989 -2.1199  2.8568  0.1671
11026SOL     OW35709   0.673   1.039   2.232  0.0571  0.6144  0.0928
11026SOL    HW135710   0.705   1.011   2.146 -1.3358 -0.1433 -0.2194
11026SOL    HW235711   0.748   1.029   2.291  0.2073 -1.9026 -0.4122
11027SOL     OW35712   2.157   3.228   6.462 -0.7454 -0.1306  0.3082
11027SOL    HW135713   2.151   3.299   6.398  1.7729  0.2625  0.3842
11027SOL    HW235714   2.241   3.186   6.442 -0.0202 -0.1812  3.1056
11028SOL     OW35715   7.080   9.401   6.206  0.0539  0.1339 -0.1967
11028SOL    HW135716   7.120   9.458   6.140 -0.6036 -0.1750 -0.8769
11028SOL    HW235717   7.067   9.318   6.162 -0.7581  0.0381  0.2037
11029SOL     OW35718   5.249   4.772   5.889  0.0828  0.1478  0.5343
11029SOL    HW135719   5.223   4.757   5.799  1.1387  0.6686  0.1290
11029SOL    HW235720   5.344   4.765   5.889  0.3494  2.6430  1.0830
11030SOL     OW35721   1.412  10.197   8.343  0.1890  0.5890 -1.0642
11030SOL    HW135722   1.482  10.169   8.402 -0.0936  1.0745 -0.4913
11030SOL    HW235723   1.349  10.241   8.399 -0.0741  1.0867 -1.7333
11031SOL     OW35724   0.576  10.137   4.252  0.4510  0.0538 -0.7490
11031SOL    HW135725   0.574  10.101   4.341  0.0384  0.1420 -0.7219
11031SOL    HW235726   0.489  10.118   4.217  0.0073  1.5560 -0.5301
11032SOL     OW35727   7.001   5.371   4.401 -0.3137 -0.6798 -0.6164
11032SOL    HW135728   7.035   5.380   4.313  0.4435 -1.3921 -0.4089
11032SOL    HW235729   7.067   5.413   4.457 -0.7582 -0.2847 -0.3765
11033SOL     OW35730   8.299   6.204   0.264 -0.9536  0.5733 -0.1339
11033SOL    HW135731   8.386   6.223   0.228 -1.3412  0.6543 -1.0667
11033SOL    HW235732   8.242   6.203   0.188 -1.9036  1.2506  0.5446
11034SOL     OW35733   5.920   8.272   6.074 -0.2139  0.5051 -0.3867
11034SOL    HW135734   5.896   8.358   6.109  2.7554  1.3395 -0.1873
11034SOL    HW235735   5.902   8.280   5.980  0.1386  1.4020 -0.3913
11035SOL     OW35736   2.156   1.704   4.731 -0.1270 -0.3610  0.3702
11035SOL    HW135737   2.210   1.706   4.810 -0.4817 -0.9219  0.6356
11035SOL    HW235738   2.190   1.631   4.680 -1.5054 -1.6683  1.2042
11036SOL     OW35739   0.786   0.246   3.970  0.0644 -0.3002  0.5089
11036SOL    HW135740   0.857   0.213   4.027  0.0886 -0.3366  0.4574
11036SOL    HW235741   0.780   0.183   3.899 -0.2644 -0.4913  0.7041
11037SOL     OW35742   9.152   6.191   8.346 -0.1206  0.2995 -0.2358
11037SOL    HW135743   9.202   6.120   8.305  1.4995  0.7623  0.8401
11037SOL    HW235744   9.137   6.160   8.436  0.0459  1.0304  0.0469
11038SOL     OW35745   7.736   5.114   8.071  0.2724  0.1461  0.3048
11038SOL    HW135746   7.684   5.169   8.130  1.0085 -0.1686  1.2629
11038SOL    HW235747   7.671   5.060   8.026 -0.2602 -0.0770  1.3116
11039SOL     OW35748   3.445   0.476   0.136  0.6297  0.2880 -0.0559
11039SOL    HW135749   3.410   0.484   0.047  0.6846  3.6726  0.0915
11039SOL    HW235750   3.372   0.441   0.187  0.4455 -1.2628 -1.3119
11040SOL     OW35751   5.360   4.512   0.310  0.4488  0.1967 -0.5374
11040SOL    HW135752   5.381   4.424   0.278  2.5638  0.9433 -1.3690
11040SOL    HW235753   5.268   4.507   0.335  0.3992 -2.1254 -0.9748
11041SOL     OW35754   8.105   7.546   7.651 -0.0619 -0.4489 -0.6900
11041SOL    HW135755   8.022   7.579   7.686 -0.8164 -1.8862 -1.0489
11041SOL    HW235756   8.079   7.477   7.590  1.3675 -0.1315 -1.6993
11042SOL     OW35757   9.109   6.468   9.925  0.0228 -0.7686 -0.1629
11042SOL    HW135758   9.023   6.429   9.944  0.2799 -1.1948  0.1396
11042SOL    HW235759   9.088   6.552   9.885 -0.5372 -0.6361  0.3935
11043SOL     OW35760   9.355   4.837   5.247 -0.1337  0.0230 -0.8300
11043SOL    HW135761   9.395   4.913   5.289  0.5416  0.6733 -2.5400
11043SOL    HW235762   9.405   4.763   5.279 -0.7426  0.2674  0.7975
11044SOL     OW35763  10.019   4.674   2.851  0.2861  0.0869  0.2060
11044SOL    HW135764  10.087   4.726   2.809 -0.1712  1.0069  0.5790
11044SOL    HW235765   9.947   4.674   2.788 -0.4721  1.6251  1.0198
11045SOL     OW35766   3.098   8.148   0.807  0.1099 -0.5199  0.1461
11045SOL    HW135767   3.179   8.197   0.820 -0.4449  0.6967 -0.7767
11045SOL    HW235768   3.042   8.173   0.880  0.2687 -0.7242  0.3376
11046SOL     OW35769   2.922   6.686   2.573  0.0574 -0.1347 -0.2459
11046SOL    HW135770   2.947   6.751   2.508 -0.0765  0.3997  0.2248
11046SOL    HW235771   2.910   6.736   2.654  2.8413 -1.0695  0.8805
11047SOL     OW35772  10.302  10.339   6.980 -0.3908 -0.1143 -0.4855
11047SOL    HW135773  10.301  10.244   6.994 -0.0719 -0.1652 -0.8133
11047SOL    HW235774  10.365  10.353   6.910  0.2147  0.4192  0.1513
11048SOL     OW35775   4.721   2.635   7.992 -0.1121  0.3872 -0.4103
11048SOL    HW135776   4.686   2.611   8.077  1.2093  0.3819  0.1488
11048SOL    HW235777   4.659   2.699   7.957 -1.4200 -0.6654 -0.0868
11049SOL     OW35778   2.879   1.565   0.323 -0.1008  0.1299  0.3049
11049SOL    HW135779   2.793   1.598   0.297 -0.2701 -0.5156  0.0351
11049SOL    HW235780   2.860   1.494   0.385  0.2550  0.4506  0.7934
11050SOL     OW35781   6.434   2.586   3.704 -0.3278  0.5094  0.5552
11050SOL    HW135782   6.437   2.491   3.715 -0.9448  0.2954 -0.8176
11050SOL    HW235783   6.515   2.618   3.744 -0.5445 -0.4876  1.8555
11051SOL     OW35784   0.839   9.547   2.958 -0.3711 -0.1486  0.2841
11051SOL    HW135785   0.867   9.609   3.026  0.2207  0.2476 -0.3111
11051SOL    HW235786   0.886   9.466   2.979  0.4896  0.2329 -0.1590
11052SOL     OW35787   6.565   9.161   5.766  0.0896  0.5629  0.3040
11052SOL    HW135788   6.527   9.173   5.853 -0.5804  0.9684 -0.0307
11052SOL    HW235789   6.659   9.166   5.780  0.0808 -1.2193  1.2689
11053SOL     OW35790   3.537   1.161   4.364  0.1718  0.0598 -0.2735
11053SOL    HW135791   3.575   1.073   4.355 -0.9197 -0.4588 -0.0333
11053SOL    HW235792   3.549   1.201   4.278 -0.4784 -0.8228 -0.8022
11054SOL     OW35793   7.371   4.954   3.577 -0.0506 -0.1277 -0.0284
11054SOL    HW135794   7.447   4.910   3.617 -0.2246 -0.0649  0.3731
11054SOL    HW235795   7.407   5.034   3.540 -0.1876  0.7691  1.6575
11055SOL     OW35796  10.237   5.010   8.292  0.7343  0.1623 -0.1788
11055SOL    HW135797  10.268   5.074   8.357 -1.5612 -0.8223  2.0591
11055SOL    HW235798  10.143   5.025   8.287  0.4333 -1.7755 -1.0663
11056SOL     OW35799   0.253   7.642   7.688  0.2926  0.1348 -0.2218
11056SOL    HW135800   0.290   7.555   7.699 -1.0195 -0.7555 -2.2294
11056SOL    HW235801   0.286   7.693   7.762  2.7529 -1.4795 -0.1342
11057SOL     OW35802   8.975   4.601   7.702  0.0244 -0.1309  0.4036
11057SOL    HW135803   8.901   4.549   7.669 -0.1737  0.8804 -0.8278
11057SOL    HW235804   8.995   4.661   7.630  0.5512  1.1813  1.6109
11058SOL     OW35805   2.724   8.443  10.346 -0.2440 -0.3253 -0.9261
11058SOL    HW135806   2.671   8.454  10.267  0.3118 -0.6160 -1.3561
11058SOL    HW235807   2.804   8.399  10.314 -0.4711 -1.4358 -0.0211
11059SOL     OW35808  10.152   6.579   4.628 -0.1445 -0.4207  0.3143
11059SOL    HW135809  10.082   6.571   4.564  0.3345  0.3565 -0.3311
11059SOL    HW235810  10.180   6.670   4.622  0.3284 -0.4915  1.1977
11060SOL     OW35811   8.472  10.299   7.528 -0.1055  0.0686  0.2329
11060SOL    HW135812   8.383  10.311   7.492 -0.8009 -0.8625  1.5503
11060SOL    HW235813   8.474  10.353   7.606 -0.1604 -1.2620  1.1942
11061SOL     OW35814   1.366   1.032   4.217  0.1408 -0.0468  0.1568
11061SOL    HW135815   1.377   1.097   4.148 -2.1706  0.4520  0.1830
11061SOL    HW235816   1.302   1.071   4.277  0.2149 -1.5140  1.2543
11062SOL     OW35817   9.319   9.189   2.587 -0.5800 -0.1454 -0.9280
11062SOL    HW135818   9.391   9.132   2.559  0.5213  0.9552 -0.4496
11062SOL    HW235819   9.241   9.133   2.583  0.7751 -2.5301  2.0119
11063SOL     OW35820   4.341   3.887   5.495  0.0509  0.5496 -0.2574
11063SOL    HW135821   4.368   3.807   5.449 -1.6364 -0.5693  0.5828
11063SOL    HW235822   4.252   3.868   5.527 -0.7099  3.0484 -0.6565
11064SOL     OW35823   9.739   0.974   0.375  0.5689 -0.2850 -0.5478
11064SOL    HW135824   9.799   0.902   0.356  0.8617 -0.2852  0.3661
11064SOL    HW235825   9.761   1.041   0.310  0.3453 -0.9740 -1.3569
11065SOL     OW35826   9.992   1.480   7.569  0.3406  0.1034  0.0060
11065SOL    HW135827  10.014   1.517   7.483  2.3995  2.1699  1.3171
11065SOL    HW235828  10.000   1.386   7.557  1.3762  0.3849 -1.8833
11066SOL     OW35829   8.167   5.569   5.443  0.6852  0.0466 -0.9038
11066SOL    HW135830   8.096   5.505   5.445 -0.1349  0.9334 -1.4638
11066SOL    HW235831   8.247   5.515   5.442  0.0251 -0.9582 -0.8585
11067SOL     OW35832   2.050   1.756   6.639  0.5570 -0.0402  0.4623
11067SOL    HW135833   2.107   1.689   6.602  1.8552  0.4050  1.5994
11067SOL    HW235834   2.005   1.713   6.712 -0.1076 -0.2017 -0.0255
11068SOL     OW35835   7.771   5.618   7.759  0.5084 -0.2783 -0.2104
11068SOL    HW135836   7.777   5.713   7.771 -0.2314 -0.1485 -0.7794
11068SOL    HW235837   7.680   5.603   7.734  0.5819 -1.1602  0.0094
11069SOL     OW35838   9.524   0.329   3.287  0.0406  0.3443  0.3705
11069SOL    HW135839   9.461   0.382   3.334 -0.4042 -1.0724  1.4421
11069SOL    HW235840   9.599   0.320   3.346  0.2758  0.1206  0.0487
11070SOL     OW35841   3.135   1.854   7.170  0.3727 -0.1825  0.4338
11070SOL    HW135842   3.128   1.839   7.264  0.1647  1.0349  0.6337
11070SOL    HW235843   3.102   1.943   7.158  0.3401 -0.3435 -0.8027
11071SOL     OW35844   9.552   3.681   9.788  0.3277 -0.0708 -0.0538
11071SOL    HW135845   9.599   3.763   9.771 -1.7598  0.9042 -1.6367
11071SOL    HW235846   9.472   3.709   9.834 -0.1878 -1.2878 -0.1745
11072SOL     OW35847   0.171   5.376   9.939  0.1851  0.1081 -0.1342
11072SOL    HW135848   0.156   5.470   9.951  2.4212  0.5467 -0.4839
11072SOL    HW235849   0.175   5.341  10.029  0.3811  0.5195  0.0186
11073SOL     OW35850   4.163   3.682   7.409 -0.9641  0.2532  0.4697
11073SOL    HW135851   4.103   3.621   7.366  0.4558 -1.1765  0.4244
11073SOL    HW235852   4.250   3.645   7.393 -0.2516  0.6653  2.9585
11074SOL     OW35853   4.633   2.560   2.515  0.1984  0.1727 -0.0832
11074SOL    HW135854   4.590   2.535   2.433 -0.3479  1.0647 -0.0916
11074SOL    HW235855   4.699   2.493   2.530 -1.1600 -1.2116 -0.0986
11075SOL     OW35856   6.573   2.896   0.164  0.5383 -0.2002 -0.3569
11075SOL    HW135857   6.564   2.824   0.227 -0.0927 -0.2193 -0.4591
11075SOL    HW235858   6.484   2.932   0.156  0.9202  0.8762  0.0249
11076SOL     OW35859   6.382   6.905   4.731  0.2905  0.0266 -0.5331
11076SOL    HW135860   6.313   6.950   4.780  0.6651 -0.5199  0.5374
11076SOL    HW235861   6.386   6.951   4.647  0.6700  2.0045  0.5076
11077SOL     OW35862   3.443   1.839   8.897 -0.0649  0.0189  0.6073
11077SOL    HW135863   3.480   1.875   8.816 -0.5052 -0.2590  0.2772
11077SOL    HW235864   3.511   1.781   8.931  1.2495  2.1642  1.8914
11078SOL     OW35865  10.342   8.033   8.696 -0.1616  0.2284 -0.0489
11078SOL    HW135866  10.424   8.003   8.658 -0.1638  0.4394 -0.2187
11078SOL    HW235867  10.307   7.956   8.741 -0.3456 -0.1318 -0.7973
11079SOL     OW35868   0.337   9.759   2.319 -0.0338  0.2849  0.1245
11079SOL    HW135869   0.273   9.744   2.249  0.4781  0.2054 -0.3346
11079SOL    HW235870   0.422   9.754   2.275  0.3801 -1.3421  1.0204
11080SOL     OW35871   7.197   5.041   4.004  0.4737  0.4204  0.2179
11080SOL    HW135872   7.169   5.127   3.970 -3.0965 -0.7551 -0.2033
11080SOL    HW235873   7.286   5.031   3.971  0.3267  3.1419 -1.3593
11081SOL     OW35874  10.063   4.745   9.321 -0.1990 -0.2218 -0.3361
11081SOL    HW135875  10.085   4.811   9.387 -0.7642  0.1278 -0.4928
11081SOL    HW235876  10.115   4.769   9.245 -0.0010 -0.2715 -0.2163
11082SOL     OW35877   1.810   4.522   1.277 -0.6865  0.2058 -0.5744
11082SOL    HW135878   1.773   4.610   1.274 -0.2129  0.4508  0.2803
11082SOL    HW235879   1.759   4.477   1.345 -0.0930  0.2365 -0.0935
11083SOL     OW35880   3.548   4.414   6.104 -0.7592  0.8375  0.1610
11083SOL    HW135881   3.465   4.386   6.066 -0.0109 -1.2984 -0.0424
11083SOL    HW235882   3.557   4.506   6.077 -3.3934  1.4032  0.8968
11084SOL     OW35883   6.826   1.300   2.527  0.1554 -0.4033  0.0996
11084SOL    HW135884   6.865   1.330   2.609 -0.2389  0.9692 -0.1783
11084SOL    HW235885   6.895   1.252   2.482  0.8083  0.0324  0.6310
11085SOL     OW35886   5.507   3.313   5.069  0.0419  0.0371 -0.5889
11085SOL    HW135887   5.593   3.272   5.067  1.9888  3.6918 -0.9156
11085SOL    HW235888   5.482   3.323   4.977  0.1320  0.5706 -0.5589
11086SOL     OW35889   5.447   3.117   1.742 -0.2939  0.0541  0.4979
11086SOL    HW135890   5.491   3.081   1.819 -0.3547  0.6275  0.8108
11086SOL    HW235891   5.377   3.172   1.778 -0.7221 -0.1654  0.0188
11087SOL     OW35892   9.950   8.841   3.323  0.4985 -0.8497 -0.3547
11087SOL    HW135893  10.041   8.871   3.328 -0.2866  2.3526 -2.2288
11087SOL    HW235894   9.919   8.873   3.238 -3.1770  0.7960  1.3981
11088SOL     OW35895   5.146   9.576   3.231  0.0287  0.1871 -0.0521
11088SOL    HW135896   5.129   9.484   3.249  3.2787 -0.6919 -0.8554
11088SOL    HW235897   5.099   9.594   3.150 -0.0852 -0.9741 -0.2589
11089SOL     OW35898   2.283   6.057   3.323 -0.1551 -0.0918 -0.1913
11089SOL    HW135899   2.286   5.970   3.285  0.4502 -0.5698  0.9152
11089SOL    HW235900   2.210   6.054   3.385  0.0948  0.0754  0.1124
11090SOL     OW35901   3.422   9.603   0.922  0.2462 -0.0139 -0.0363
11090SOL    HW135902   3.427   9.683   0.869 -1.3127  2.1633  2.8399
11090SOL    HW235903   3.333   9.603   0.958  0.4630 -2.6686  0.7264
11091SOL     OW35904   0.578   8.495   2.255 -0.0298 -0.3108 -0.0369
11091SOL    HW135905   0.635   8.558   2.300 -0.0779 -0.6596  0.5272
11091SOL    HW235906   0.608   8.495   2.164  0.7931 -0.4019  0.2261
11092SOL     OW35907   1.844   0.853   7.242 -0.0445 -0.1506 -0.0790
11092SOL    HW135908   1.774   0.866   7.306 -0.3019 -0.4487 -0.2897
11092SOL    HW235909   1.922   0.835   7.294 -0.3294 -0.7696  0.1511
11093SOL     OW35910   8.897   2.764   3.560  0.0770 -0.1568  0.4600
11093SOL    HW135911   8.936   2.758   3.473  0.1758 -1.4770  0.5814
11093SOL    HW235912   8.906   2.856   3.584  1.3548 -0.0613 -0.3173
11094SOL     OW35913   9.806   1.061   1.864 -0.1164  0.1872 -0.0602
11094SOL    HW135914   9.867   0.988   1.852 -0.0384  0.2952 -0.3290
11094SOL    HW235915   9.855   1.137   1.832 -0.0866  0.4039  0.4850
11095SOL     OW35916   9.829   0.782   7.394 -0.0930  0.0185 -0.5211
11095SOL    HW135917   9.764   0.850   7.409 -2.2397 -2.3919  2.6867
11095SOL    HW235918   9.911   0.820   7.423 -1.5174  0.8986  2.9589
11096SOL     OW35919  10.012   0.114   5.903  0.8082 -0.0853 -0.4022
11096SOL    HW135920   9.974   0.050   5.962  0.5417  0.7320  0.3354
11096SOL    HW235921   9.999   0.198   5.946  1.9528  0.3921 -0.9190
11097SOL     OW35922   5.953   4.019   5.067 -0.3940 -0.0612 -0.5314
11097SOL    HW135923   6.032   4.064   5.037 -0.1033 -0.3458 -0.2024
11097SOL    HW235924   5.985   3.944   5.117 -0.8802 -0.9568 -1.5250
11098SOL     OW35925   7.719  10.039   7.311  0.5803  0.0069  0.2349
11098SOL    HW135926   7.659  10.083   7.372  0.8922  1.7262 -0.6550
11098SOL    HW235927   7.806  10.068   7.339  0.8963 -1.0514  0.3935
11099SOL     OW35928   9.851   9.203   5.942  0.0874  0.2513  0.1303
11099SOL    HW135929   9.813   9.115   5.950 -0.1018  0.4640  2.0349
11099SOL    HW235930   9.785   9.253   5.895 -0.3202 -0.3401  0.0619
11100SOL     OW35931   0.499   1.256   7.442 -0.4626  0.2293  1.0822
11100SOL    HW135932   0.410   1.284   7.420 -0.1800  0.7382  0.5775
11100SOL    HW235933   0.498   1.249   7.538 -1.6850 -1.9587  0.9895
11101SOL     OW35934  10.117   5.133   4.025  0.4973 -0.9217 -0.8227
11101SOL    HW135935  10.026   5.159   4.008  0.4872  0.3140  0.9001
11101SOL    HW235936  10.163   5.158   3.945 -0.2002  1.1746 -0.6436
11102SOL     OW35937   2.290  10.103   5.617 -0.2436 -0.7869 -0.1872
11102SOL    HW135938   2.306  10.131   5.527 -2.2625  0.4121 -0.2124
11102SOL    HW235939   2.196  10.087   5.621 -0.3570  0.1161  1.9472
11103SOL     OW35940   2.133   7.846   5.705  0.4851  0.3171  0.3362
11103SOL    HW135941   2.119   7.820   5.796  0.1732 -3.4013 -0.6068
11103SOL    HW235942   2.223   7.878   5.703  0.3695  0.8198  1.9960
11104SOL     OW35943   3.499   0.944   0.660 -0.1875 -0.5978 -0.7133
11104SOL    HW135944   3.594   0.927   0.654 -0.1688 -1.4151  1.0795
11104SOL    HW235945   3.467   0.933   0.570  1.3330 -0.8629 -1.2601
11105SOL     OW35946   4.537   8.495   1.761  0.0731  0.0171  0.7371
11105SOL    HW135947   4.562   8.519   1.850  1.3349 -2.8590  1.2432
11105SOL    HW235948   4.564   8.570   1.708 -0.1751  1.5371  2.6534
11106SOL     OW35949   0.243   5.803   4.879  0.0889 -0.0690 -0.7596
11106SOL    HW135950   0.324   5.755   4.890  0.2076  0.3753  0.4957
11106SOL    HW235951   0.270   5.890   4.848  0.0682 -0.0287 -0.6652
11107SOL     OW35952   1.298   7.626   3.403 -0.6562 -0.1321 -0.2497
11107SOL    HW135953   1.263   7.608   3.490  0.8987 -1.5585  0.1466
11107SOL    HW235954   1.221   7.631   3.346 -1.6229 -0.4889  0.9942
11108SOL     OW35955   7.605  10.189   1.939  0.6616 -0.6437 -0.2702
11108SOL    HW135956   7.601  10.129   1.864  1.0172 -0.6666 -0.2722
11108SOL    HW235957   7.691  10.230   1.932  0.4037 -0.0958 -0.2917
11109SOL     OW35958   5.268   5.465   6.913 -0.7720 -0.1705 -0.3229
11109SOL    HW135959   5.262   5.531   6.982  0.5621 -0.6128  0.2550
11109SOL    HW235960   5.246   5.512   6.833 -0.7157  0.7621  0.1902
11110SOL     OW35961   8.997   8.573   6.164 -0.7432 -0.2016 -0.1131
11110SOL    HW135962   8.966   8.577   6.074  2.9358  0.7136 -1.4835
11110SOL    HW235963   8.982   8.482   6.190 -0.8654 -0.7767 -2.0351
11111SOL     OW35964   7.362   3.869   5.189  0.2339  0.6616  0.0265
11111SOL    HW135965   7.415   3.899   5.115 -0.3348 -0.3959 -0.8374
11111SOL    HW235966   7.404   3.788   5.217  0.9453  1.4935  1.4372
11112SOL     OW35967   6.284   5.120   1.297  0.2901 -0.2046  0.0667
11112SOL    HW135968   6.336   5.199   1.311  0.6987 -0.5532  0.5765
11112SOL    HW235969   6.315   5.059   1.364 -1.0704 -0.2815  0.6615
11113SOL     OW35970  10.197  10.176   8.980 -0.0025 -0.1928 -0.1118
11113SOL    HW135971  10.110  10.216   8.987 -0.1109 -0.3247 -0.6488
11113SOL    HW235972  10.187  10.088   9.015 -0.0686 -0.1867 -0.1158
11114SOL     OW35973   3.893   0.377   0.296 -0.2037 -0.0442 -0.2945
11114SOL    HW135974   3.833   0.365   0.223  0.3431 -1.3694 -0.5483
11114SOL    HW235975   3.859   0.453   0.343 -2.2534 -0.9325 -0.2633
11115SOL     OW35976   2.282   9.840   3.207  0.1759  0.3923  0.0840
11115SOL    HW135977   2.340   9.858   3.281 -0.7202 -0.3412  1.0039
11115SOL    HW235978   2.253   9.926   3.178 -0.8896  0.6665  1.8058
11116SOL     OW35979   2.374   3.822   0.547 -0.0573  0.6316  0.0857
11116SOL    HW135980   2.289   3.786   0.573 -0.7869  1.7720 -0.6487
11116SOL    HW235981   2.361   3.917   0.546  1.0570  0.7961 -0.6087
11117SOL     OW35982   2.950   5.447   6.555  0.6278 -0.1405 -0.0931
11117SOL    HW135983   3.002   5.434   6.476  1.4464  0.0785  0.3977
11117SOL    HW235984   3.008   5.494   6.615 -0.4678  1.0088  0.1126
11118SOL     OW35985   6.124   0.292   0.688 -0.4339 -0.0209 -0.1443
11118SOL    HW135986   6.064   0.325   0.622 -2.8902  1.7640  2.7161
11118SOL    HW235987   6.072   0.230   0.740  1.4003 -1.4042  0.1468
11119SOL     OW35988   9.424   8.492   8.474  0.1744 -0.0050 -0.2551
11119SOL    HW135989   9.461   8.574   8.444 -2.3437  0.9759 -0.9879
11119SOL    HW235990   9.403   8.507   8.566  1.1575 -0.4300  0.0556
11120SOL     OW35991   4.980   8.917   8.838 -0.7462  0.1698 -0.4784
11120SOL    HW135992   5.049   8.982   8.854  0.2880 -0.4469 -2.2074
11120SOL    HW235993   5.011   8.838   8.883 -0.9004  0.2104 -0.2969
11121SOL     OW35994   0.964   9.589   8.750  0.0591 -0.0052 -0.4496
11121SOL    HW135995   0.948   9.675   8.791 -0.7773  0.1002 -0.9827
11121SOL    HW235996   0.923   9.527   8.810 -0.3644  0.0756 -0.6468
11122SOL     OW35997   2.756   4.301   7.315  0.2401  0.1396 -0.2171
11122SOL    HW135998   2.736   4.388   7.349 -1.4848 -0.6625  0.9342
11122SOL    HW235999   2.686   4.245   7.348  1.3349 -1.7171 -0.8733
11123SOL     OW36000   4.437   4.273   7.725  0.4176  0.2553  0.1816
11123SOL    HW136001   4.476   4.190   7.697 -0.1388 -0.2068  0.7621
11123SOL    HW236002   4.504   4.313   7.781  0.3398 -0.2022  0.6003
11124SOL     OW36003   7.114   6.825   2.672 -0.1926 -0.1478  0.4694
11124SOL    HW136004   7.111   6.916   2.643 -0.6505 -0.4073 -0.3240
11124SOL    HW236005   7.067   6.777   2.604  0.8136 -1.0990  0.4254
11125SOL     OW36006   4.481   7.220   0.028  0.5344  0.0220  0.1406
11125SOL    HW136007   4.415   7.256   0.087 -0.0270 -1.2544  0.3101
11125SOL    HW236008   4.461   7.259  -0.058  1.0512  1.4960  0.6493
11126SOL     OW36009   5.254   0.994   3.332 -0.1348  0.2734  0.4152
11126SOL    HW136010   5.167   1.018   3.365 -0.5759  0.6308 -0.9554
11126SOL    HW236011   5.276   0.914   3.380 -0.4392  1.1406  2.0595
11127SOL     OW36012   2.077   6.309   0.469 -0.3875 -0.0365 -0.0024
11127SOL    HW136013   2.072   6.322   0.374 -1.1555  0.5146  0.1097
11127SOL    HW236014   2.154   6.252   0.481 -0.5000 -0.4113 -0.9773
11128SOL     OW36015   2.162   9.564   3.097  0.2733 -0.3261  0.1535
11128SOL    HW136016   2.129   9.486   3.142 -2.0762  1.0137  0.9559
11128SOL    HW236017   2.227   9.600   3.157 -0.6266 -0.2146  1.0939
11129SOL     OW36018   7.539   5.027   2.788 -0.3276 -0.5724 -0.1507
11129SOL    HW136019   7.584   5.011   2.871  0.9833  1.3982 -0.3930
11129SOL    HW236020   7.481   4.952   2.777  1.3652 -2.2124  1.2548
11130SOL     OW36021   6.648   5.476   7.129  0.1245  0.3375  0.4834
11130SOL    HW136022   6.640   5.540   7.200 -1.5221  0.0154  0.6387
11130SOL    HW236023   6.630   5.392   7.171  0.9370 -0.0791  0.0191
11131SOL     OW36024   2.997   6.291   7.812 -0.5701 -0.5660 -0.2751
11131SOL    HW136025   2.981   6.383   7.792 -0.6539 -0.2452  1.1901
11131SOL    HW236026   2.923   6.265   7.867  1.3730 -0.3718  2.6462
11132SOL     OW36027   5.520   8.180   2.623  0.6634  0.0037 -0.5820
11132SOL    HW136028   5.540   8.210   2.712  0.0512  0.5156 -0.6094
11132SOL    HW236029   5.576   8.103   2.611  1.7845  0.7481 -0.2743
11133SOL     OW36030   3.723   9.226   1.292  0.3436  0.2296 -0.3012
11133SOL    HW136031   3.715   9.316   1.262 -2.3668 -0.0111 -0.5606
11133SOL    HW236032   3.692   9.227   1.383  1.9684 -0.1988  0.3015
11134SOL     OW36033   0.481   7.824   0.750 -0.4784  0.2227  0.3164
11134SOL    HW136034   0.511   7.799   0.663  1.6411 -0.3472  1.1344
11134SOL    HW236035   0.390   7.851   0.738 -0.4716 -0.5636 -1.9160
11135SOL     OW36036   5.350   0.605   7.502 -0.0283  0.3652 -0.0301
11135SOL    HW136037   5.354   0.701   7.506 -3.1358  0.6968 -1.5969
11135SOL    HW236038   5.316   0.586   7.415  1.0309 -2.2489  0.0432
11136SOL     OW36039   4.646   3.063   8.432 -0.3531 -0.0981  0.5672
11136SOL    HW136040   4.676   2.974   8.415  0.0264  0.2609 -0.7543
11136SOL    HW236041   4.649   3.071   8.527 -3.6591 -2.6032  1.0562
11137SOL     OW36042   2.948   3.693   4.960 -0.4073  0.3503 -0.3103
11137SOL    HW136043   3.016   3.626   4.962 -0.4071  0.3592  0.1703
11137SOL    HW236044   2.882   3.661   5.021 -0.8657  0.3097 -0.8254
11138SOL     OW36045   9.323   9.713   9.277 -0.4366 -0.1996  0.8148
11138SOL    HW136046   9.407   9.667   9.278 -0.5743 -0.4478  0.9578
11138SOL    HW236047   9.292   9.706   9.187  0.3445  1.0758  0.4162
11139SOL     OW36048   5.905   9.537   1.511  0.1428 -0.3120  0.0886
11139SOL    HW136049   5.902   9.549   1.416  0.7266 -0.4698  0.0429
11139SOL    HW236050   5.921   9.625   1.546 -0.7705 -0.1362  0.0933
11140SOL     OW36051   6.756   2.232   6.812 -0.1806 -0.2134 -0.5008
11140SOL    HW136052   6.758   2.242   6.717 -0.2256  0.6319 -0.4205
11140SOL    HW236053   6.710   2.149   6.827 -2.1020  0.6912 -1.1583
11141SOL     OW36054   1.384   4.939   3.081  0.1801 -0.3791 -0.1579
11141SOL    HW136055   1.310   4.878   3.087 -2.1902  2.4313  3.4426
11141SOL    HW236056   1.360   4.999   3.010 -0.9688  0.3778  0.8389
11142SOL     OW36057   9.934   6.791   9.259 -0.6775  0.0214 -0.4760
11142SOL    HW136058   9.894   6.712   9.223  0.1889 -0.6328 -0.0260
11142SOL    HW236059   9.869   6.860   9.242 -0.9627 -0.5528 -1.8944
11143SOL     OW36060   2.810   0.509   7.512 -0.0078 -0.5831  0.0531
11143SOL    HW136061   2.734   0.487   7.566  0.2145 -0.3909  0.4471
11143SOL    HW236062   2.813   0.440   7.446  0.0624 -1.1510  0.6332
11144SOL     OW36063   6.195   3.663   3.111 -0.2116 -0.2850  0.6221
11144SOL    HW136064   6.120   3.721   3.126 -1.3595 -0.9879 -1.9031
11144SOL    HW236065   6.162   3.576   3.130  0.5376 -0.4350  1.2736
11145SOL     OW36066   7.935   8.849   3.840  0.3485 -0.0655  0.0927
11145SOL    HW136067   7.867   8.853   3.772  0.3526  1.1772  0.1239
11145SOL    HW236068   8.010   8.894   3.801  0.9101 -0.7863  0.3285
11146SOL     OW36069   4.031   7.321   3.727 -0.3167  0.4746  0.3361
11146SOL    HW136070   4.061   7.235   3.698  1.1675  0.6755  1.1542
11146SOL    HW236071   3.945   7.332   3.687  0.6619 -0.1965 -2.1405
11147SOL     OW36072   9.164   6.868   9.621  0.0894  0.2256 -0.5551
11147SOL    HW136073   9.111   6.816   9.682  1.1248 -0.3188 -0.0954
11147SOL    HW236074   9.252   6.831   9.628  0.6716  1.4841 -0.8690
11148SOL     OW36075   1.784   0.161   5.296 -0.3204  0.1475 -0.1958
11148SOL    HW136076   1.831   0.244   5.304 -0.2526  0.0698  0.2203
11148SOL    HW236077   1.842   0.106   5.243  0.3386 -0.1519  0.8226
11149SOL     OW36078   1.063   5.499   8.358  0.4949 -0.4582  0.7470
11149SOL    HW136079   1.144   5.465   8.322 -0.3139 -0.7779 -0.8544
11149SOL    HW236080   1.041   5.439   8.430  0.6754 -1.5082 -0.0625
11150SOL     OW36081   5.854   4.489   8.730  0.1439 -0.3495 -0.3059
11150SOL    HW136082   5.885   4.435   8.802 -0.4079  0.0192  0.2217
11150SOL    HW236083   5.930   4.538   8.701  0.8892 -2.0435 -1.4028
11151SOL     OW36084   5.529   3.308   8.653 -0.1098 -0.4742  0.3191
11151SOL    HW136085   5.620   3.320   8.682 -0.1172 -1.3085  0.7042
11151SOL    HW236086   5.508   3.390   8.608  0.7247 -0.1399  0.5101
11152SOL     OW36087   7.896   8.276   1.287  0.3132  0.0256  0.1930
11152SOL    HW136088   7.974   8.316   1.325 -0.4409  0.0895  1.7262
11152SOL    HW236089   7.869   8.337   1.218  0.2642  1.2124  1.2343
11153SOL     OW36090   8.807   9.015   6.655 -0.1174  0.3419  0.0369
11153SOL    HW136091   8.727   9.048   6.614  1.3530  3.2596 -0.7704
11153SOL    HW236092   8.876   9.037   6.593  1.4549 -1.3569  1.0781
11154SOL     OW36093   1.650   4.823   8.155  0.9883 -0.3608 -0.1185
11154SOL    HW136094   1.630   4.864   8.239 -3.0892  0.2290 -1.1705
11154SOL    HW236095   1.616   4.884   8.089  0.2411 -2.6463 -2.0053
11155SOL     OW36096   9.354   9.025   4.199  0.0767 -0.3330 -0.2405
11155SOL    HW136097   9.357   9.089   4.270 -2.7376 -0.8058  0.4054
11155SOL    HW236098   9.296   9.064   4.134  0.0525 -1.2979 -0.8205
11156SOL     OW36099   9.398   0.783   6.767 -0.1068  0.4747 -0.0881
11156SOL    HW136100   9.388   0.820   6.679  3.7217  0.6508 -0.6198
11156SOL    HW236101   9.456   0.708   6.755 -0.2469 -0.0767  2.1953
11157SOL     OW36102   9.879   1.430   8.178  0.1023 -0.6484 -0.1929
11157SOL    HW136103   9.918   1.517   8.184  0.3748 -0.6711 -1.3120
11157SOL    HW236104   9.953   1.371   8.168 -0.0904 -0.9913  0.3785
11158SOL     OW36105   9.283   7.217   4.061 -0.0178 -0.1385  0.1851
11158SOL    HW136106   9.364   7.186   4.021  0.4160  1.0740  0.0769
11158SOL    HW236107   9.294   7.312   4.067 -1.9011  0.1866 -0.8509
11159SOL     OW36108   3.283  10.332   9.950 -0.0352  0.3156  0.4548
11159SOL    HW136109   3.218  10.266   9.928 -1.0399  1.2508  0.5286
11159SOL    HW236110   3.338  10.291  10.016  1.4709 -1.6612 -1.8372
11160SOL     OW36111   9.541   5.588   0.093  0.1731  0.1151  0.7523
11160SOL    HW136112   9.490   5.611   0.171 -1.2291 -0.1132 -0.0768
11160SOL    HW236113   9.489   5.521   0.049  2.0587 -1.4961  0.7976
11161SOL     OW36114   0.116   4.157   3.650 -0.3366 -0.4047 -0.3954
11161SOL    HW136115   0.186   4.137   3.712 -0.0916  0.2312 -0.4512
11161SOL    HW236116   0.100   4.251   3.662 -1.2951 -0.5658 -0.2696
11162SOL     OW36117   1.390   6.260   7.571 -0.0383 -0.1331  0.2367
11162SOL    HW136118   1.367   6.351   7.590 -0.7779 -0.5201  1.3182
11162SOL    HW236119   1.343   6.209   7.637  0.3831 -1.3045 -0.3302
11163SOL     OW36120   6.623   1.874   7.665 -0.4319  0.0020  0.0516
11163SOL    HW136121   6.684   1.831   7.604 -0.0678 -0.2269  0.5696
11163SOL    HW236122   6.554   1.809   7.680 -0.6536  0.1521 -0.3080
11164SOL     OW36123   3.929   9.077   6.572 -0.2974  0.1373 -0.0175
11164SOL    HW136124   4.020   9.093   6.595  0.2154 -0.5489 -1.4865
11164SOL    HW236125   3.883   9.156   6.600  1.1563  1.6100 -1.5495
11165SOL     OW36126   3.407   2.999   6.190 -0.0641  0.1040  0.1116
11165SOL    HW136127   3.402   3.050   6.270 -0.4536 -0.7550  0.6518
11165SOL    HW236128   3.401   3.064   6.120 -1.9040  0.7052  0.7685
11166SOL     OW36129   2.129   7.069   4.152  0.1857 -0.1282 -0.2682
11166SOL    HW136130   2.108   7.097   4.241 -0.0704  0.8687 -0.6282
11166SOL    HW236131   2.177   6.986   4.163 -0.6649 -0.5017  0.7422
11167SOL     OW36132   4.468   6.953   1.704 -0.3712 -1.1034 -0.0427
11167SOL    HW136133   4.380   6.943   1.739 -0.3186 -0.6073  0.2444
11167SOL    HW236134   4.509   7.019   1.760 -0.6879  0.6443 -1.7732
11168SOL     OW36135   7.052   7.929   6.772  0.3290 -0.5641 -0.4293
11168SOL    HW136136   7.050   7.840   6.805  0.0255 -0.6566 -0.6849
11168SOL    HW236137   6.993   7.977   6.830  2.0824 -0.0419  1.0243
11169SOL     OW36138   9.844   4.601   1.033  0.2997  0.2351  0.5289
11169SOL    HW136139   9.840   4.695   1.051  0.5154  0.4382 -0.4347
11169SOL    HW236140   9.801   4.591   0.948  0.6890 -0.4759  0.4045
11170SOL     OW36141   0.376   7.215   0.608  0.4858 -0.3324  0.1404
11170SOL    HW136142   0.400   7.305   0.626 -1.0061 -0.2647  2.0479
11170SOL    HW236143   0.353   7.178   0.693 -1.9309 -1.5738 -0.9464
11171SOL     OW36144   1.894   5.854  10.353  0.1143 -0.1844 -0.1715
11171SOL    HW136145   1.851   5.899  10.281 -0.5066  1.4906  1.1769
11171SOL    HW236146   1.824   5.806  10.398  0.2271 -0.0532  0.1528
11172SOL     OW36147   4.554   1.393   3.916 -0.0399 -0.0447 -0.0138
11172SOL    HW136148   4.538   1.475   3.869  0.5483  0.5853  0.8648
11172SOL    HW236149   4.472   1.376   3.962 -0.1273  0.1054 -0.1130
11173SOL     OW36150   6.739   5.667   3.881 -0.2860 -0.1116  0.0048
11173SOL    HW136151   6.792   5.733   3.926 -0.7819 -0.1094  0.5971
11173SOL    HW236152   6.754   5.684   3.788 -0.1968  0.6634  0.1519
11174SOL     OW36153   7.942   8.277   5.094  0.2158  0.5171  0.6952
11174SOL    HW136154   7.917   8.367   5.116 -1.5754 -0.1750  1.7261
11174SOL    HW236155   7.953   8.277   4.999 -1.2032  1.5188  0.5013
11175SOL     OW36156   4.193   8.047   1.228  0.0611 -0.3571  0.3241
11175SOL    HW136157   4.234   7.963   1.250 -2.4644 -1.6203  0.5594
11175SOL    HW236158   4.127   8.025   1.162  1.8668  2.0871 -2.5826
11176SOL     OW36159   4.944   3.668   7.064  0.1523 -0.1295 -0.2166
11176SOL    HW136160   5.017   3.637   7.118 -0.1258 -0.1062  0.1803
11176SOL    HW236161   4.975   3.750   7.026  0.4780 -0.3219 -0.3725
11177SOL     OW36162   0.267   7.195   7.088 -0.1472 -0.0321  0.0010
11177SOL    HW136163   0.311   7.119   7.050 -1.4024  0.2767 -2.2634
11177SOL    HW236164   0.316   7.215   7.167  3.7164  0.2150 -2.2379
11178SOL     OW36165   4.839   8.782   7.608  0.3570 -0.1644 -0.0393
11178SOL    HW136166   4.875   8.789   7.697 -1.3211 -0.2079  0.6869
11178SOL    HW236167   4.843   8.688   7.588  1.9180 -0.0080 -0.5520
11179SOL     OW36168   3.879   6.408   9.917  0.1547  0.0496 -0.1221
11179SOL    HW136169   3.915   6.379  10.001  0.7463 -0.6301 -0.5935
11179SOL    HW236170   3.875   6.328   9.864 -0.0476  0.5027 -0.8026
11180SOL     OW36171   5.501   2.313   7.841  0.2866 -0.7137  0.7979
11180SOL    HW136172   5.425   2.268   7.805 -0.8418 -1.2590  3.5743
11180SOL    HW236173   5.499   2.400   7.801  0.5397 -1.9086 -2.0788
11181SOL     OW36174   9.819   8.295   5.418  0.3617 -0.0403  0.1294
11181SOL    HW136175   9.770   8.314   5.337  1.9111 -0.0437 -0.8484
11181SOL    HW236176   9.780   8.214   5.451 -0.7513  0.3292 -0.2299
11182SOL     OW36177   2.329   4.183   3.597  0.6005  0.4659  0.3959
11182SOL    HW136178   2.416   4.199   3.561  0.5231  1.1368  0.4815
11182SOL    HW236179   2.318   4.251   3.663 -0.4430  1.1211 -0.4135
11183SOL     OW36180   0.074   2.549   2.138  0.6447  0.0433 -0.0050
11183SOL    HW136181   0.010   2.480   2.121  1.2616 -0.7933  0.9355
11183SOL    HW236182   0.047   2.621   2.082 -1.8637  0.1758  1.2473
11184SOL     OW36183   8.253   2.502   5.725 -0.7309 -0.6266  0.2513
11184SOL    HW136184   8.221   2.580   5.771  0.2670  0.4871 -0.8565
11184SOL    HW236185   8.291   2.447   5.794  0.2461  0.7456  0.8518
11185SOL     OW36186   8.897   5.215   6.036  0.5654 -0.2751  0.0228
11185SOL    HW136187   8.884   5.185   6.126 -0.3307  1.7707  0.6368
11185SOL    HW236188   8.967   5.159   6.002  2.5133  0.3244  2.7272
11186SOL     OW36189   2.838   4.742   0.670  0.0937  0.1873  0.3480
11186SOL    HW136190   2.749   4.776   0.676  0.6200  1.8713 -0.8376
11186SOL    HW236191   2.826   4.647   0.665 -1.6906  0.4088 -0.5947
11187SOL     OW36192   0.534   3.691   5.930  0.2122  0.1733 -0.9016
11187SOL    HW136193   0.602   3.630   5.903 -0.8515 -1.6056  0.2352
11187SOL    HW236194   0.544   3.698   6.025 -0.5184  0.7478 -0.8521
11188SOL     OW36195   3.115   2.267   7.319 -0.2536  0.0174  0.4198
11188SOL    HW136196   3.039   2.209   7.329 -0.5224  0.3997  0.6582
11188SOL    HW236197   3.127   2.304   7.406 -0.6477  1.0013  0.0705
11189SOL     OW36198   0.880   6.610   4.733  0.6010 -0.0957  0.3588
11189SOL    HW136199   0.795   6.654   4.724  1.7315  2.1640 -0.1546
11189SOL    HW236200   0.867   6.524   4.692 -1.1160  0.6522 -0.8119
11190SOL     OW36201   3.082   4.384   5.721 -0.0295 -0.1962 -0.4490
11190SOL    HW136202   3.136   4.375   5.800  1.9302 -1.6482 -1.8619
11190SOL    HW236203   3.025   4.308   5.723  0.6969 -0.7653 -0.8917
11191SOL     OW36204   9.157   9.404   4.481 -0.3539  0.0166  0.2559
11191SOL    HW136205   9.078   9.448   4.450 -2.0823 -1.7672  1.8511
11191SOL    HW236206   9.160   9.423   4.574  1.2565  0.2006  0.1953
11192SOL     OW36207   1.534   6.783   9.567  0.0230  0.1197 -0.1133
11192SOL    HW136208   1.459   6.725   9.580  0.3367 -0.0492  1.0259
11192SOL    HW236209   1.548   6.824   9.652  3.2038 -2.2589  0.7189
11193SOL     OW36210   6.927   0.468   5.861  0.6109 -0.4161  0.0075
11193SOL    HW136211   6.835   0.441   5.857  0.7042 -0.7571  0.1675
11193SOL    HW236212   6.977   0.386   5.861  0.8323 -0.3573  2.3866
11194SOL     OW36213   5.707   4.371   3.835  0.2155  0.1386  0.4527
11194SOL    HW136214   5.802   4.386   3.833  0.8198 -3.1280 -0.4942
11194SOL    HW236215   5.689   4.347   3.926  0.8181 -1.7393  0.1131
11195SOL     OW36216   0.856   3.857   1.612 -0.0078 -0.0905 -0.1261
11195SOL    HW136217   0.761   3.863   1.619  0.1019  0.3089  1.2930
11195SOL    HW236218   0.876   3.765   1.626 -0.1285 -0.0326  0.4341
11196SOL     OW36219   4.563  10.343   4.053 -0.5652 -0.4796  0.5761
11196SOL    HW136220   4.609  10.426   4.060 -0.7933 -0.3622  0.6914
11196SOL    HW236221   4.623  10.279   4.093  0.1205 -0.5781 -0.5728
11197SOL     OW36222   3.530   4.240  10.133  0.6695 -0.2213 -0.7564
11197SOL    HW136223   3.504   4.165  10.079  0.0782 -0.3126 -0.3687
11197SOL    HW236224   3.625   4.241  10.129  0.9714 -2.9268  1.6919
11198SOL     OW36225   5.399   9.522   4.704 -0.2313 -0.3536  0.2521
11198SOL    HW136226   5.376   9.559   4.789 -0.4059  0.7434 -0.2569
11198SOL    HW236227   5.338   9.449   4.692 -1.2255  0.4302  0.4051
11199SOL     OW36228   4.436   9.588   1.174  0.1590  0.0028  0.7003
11199SOL    HW136229   4.472   9.597   1.262  2.3979 -0.7706 -0.0468
11199SOL    HW236230   4.417   9.678   1.146  1.0154  0.4075  1.3773
11200SOL     OW36231   3.306   7.925   4.977 -0.4945 -0.5584  0.0242
11200SOL    HW136232   3.211   7.923   4.978 -0.5486  0.9338  0.1752
11200SOL    HW236233   3.331   7.925   5.069 -0.4246  0.4567  0.0222
11201SOL     OW36234   7.947   5.995   4.400  0.7699 -0.1198 -0.0008
11201SOL    HW136235   7.884   5.994   4.472  1.5818 -1.2935  0.7373
11201SOL    HW236236   7.984   6.083   4.402  0.3995  0.0282  0.6821
11202SOL     OW36237   5.437   2.678   3.384 -0.4685 -0.8067  0.0614
11202SOL    HW136238   5.350   2.685   3.423 -1.4986  0.3513 -2.2938
11202SOL    HW236239   5.428   2.612   3.316  0.2239  0.0126 -0.8500
11203SOL     OW36240   5.794   1.055   4.966 -0.1683 -0.3145 -0.0034
11203SOL    HW136241   5.876   1.042   4.920  0.0021 -0.4593  0.3365
11203SOL    HW236242   5.805   1.008   5.049 -0.5895 -0.3338  0.0480
11204SOL     OW36243   2.367   6.747   5.140 -0.6285  0.3181 -0.3183
11204SOL    HW136244   2.377   6.770   5.232 -1.4476 -0.5241  0.0038
11204SOL    HW236245   2.273   6.728   5.130 -0.2679 -1.3595 -0.8760
11205SOL     OW36246   2.940   2.611   8.862  0.5021 -0.7880 -0.1305
11205SOL    HW136247   3.010   2.562   8.818  1.0953  0.3422 -0.4957
11205SOL    HW236248   2.987   2.669   8.923 -0.1519 -0.4904  0.0996
11206SOL     OW36249   5.687   6.141   7.392  0.1870  0.2406 -1.1337
11206SOL    HW136250   5.749   6.071   7.410  0.4178  0.6519 -0.2460
11206SOL    HW236251   5.602   6.105   7.418  0.1296 -0.1186 -1.8009
11207SOL     OW36252   7.967  10.294   5.923  0.0496 -0.1521  0.0706
11207SOL    HW136253   7.892  10.309   5.867  0.1714  0.7965  0.1461
11207SOL    HW236254   7.932  10.246   5.998 -0.4763  0.2514  0.0861
11208SOL     OW36255   3.724   9.453   4.742 -0.4933  0.6693 -0.2761
11208SOL    HW136256   3.673   9.372   4.733 -0.7928  0.8745 -0.4336
11208SOL    HW236257   3.806   9.425   4.783  0.0967  0.0255 -1.8276
11209SOL     OW36258   0.714   3.694   4.056 -0.3922 -0.4181 -0.0807
11209SOL    HW136259   0.675   3.749   4.124 -0.5990 -1.3600  0.5875
11209SOL    HW236260   0.718   3.750   3.979  1.1928  1.1835  1.0667
11210SOL     OW36261   3.328   5.174   8.153  0.9005  0.3783 -0.2455
11210SOL    HW136262   3.345   5.177   8.059  2.7756  0.6843  0.0752
11210SOL    HW236263   3.259   5.240   8.167  2.1468  1.9159 -1.1202
11211SOL     OW36264   8.443   7.802   0.638  0.1216 -0.7582 -0.4160
11211SOL    HW136265   8.537   7.794   0.650  0.0849 -0.7917 -0.1383
11211SOL    HW236266   8.407   7.803   0.727  0.0121  1.1673 -0.4272
11212SOL     OW36267   7.637   7.406   7.878 -0.4414  0.1079  0.3823
11212SOL    HW136268   7.554   7.385   7.836 -0.7573  2.5531 -0.3898
11212SOL    HW236269   7.624   7.493   7.915  1.5273  0.2213  0.9208
11213SOL     OW36270   1.062   6.770   5.671  0.0874  0.0686  0.3303
11213SOL    HW136271   0.976   6.747   5.708  1.1219 -0.2371  2.7202
11213SOL    HW236272   1.071   6.713   5.595 -3.3441  2.6883 -2.3363
11214SOL     OW36273   9.178   4.054   7.560 -0.1638  0.4618  0.9131
11214SOL    HW136274   9.135   3.973   7.587  1.4368 -1.5277 -1.8940
11214SOL    HW236275   9.252   4.063   7.620  1.0949 -1.6646 -0.1805
11215SOL     OW36276   8.238  10.063   6.636  0.0817 -0.3547  0.9676
11215SOL    HW136277   8.232  10.092   6.545  1.2508 -2.9959 -0.0643
11215SOL    HW236278   8.298  10.125   6.678 -0.8826  1.2080  0.1237
11216SOL     OW36279   4.940   3.433   2.446 -0.0997 -0.2048  0.5027
11216SOL    HW136280   4.946   3.344   2.413 -1.2009  0.0743 -0.5275
11216SOL    HW236281   5.016   3.478   2.409  0.0382 -0.5196  0.3993
11217SOL     OW36282   9.726   3.797   0.753 -0.0218  0.5226 -0.0383
11217SOL    HW136283   9.743   3.879   0.707  1.1323  0.8367  0.9077
11217SOL    HW236284   9.770   3.807   0.837  0.7978 -1.3486 -0.1952
11218SOL     OW36285   0.606   3.656   6.631  0.5665  0.2782  0.1393
11218SOL    HW136286   0.547   3.707   6.686 -1.1683 -1.3838 -0.0459
11218SOL    HW236287   0.635   3.717   6.563 -1.1033  1.1511  0.1445
11219SOL     OW36288  10.215   9.859   2.314 -0.0264 -0.8472 -0.1499
11219SOL    HW136289  10.271   9.782   2.304  0.7768 -0.1534 -1.1103
11219SOL    HW236290  10.258   9.927   2.262 -1.3740 -0.0904 -0.3038
11220SOL     OW36291   6.201   3.540   0.116 -0.5674 -0.2576  0.0302
11220SOL    HW136292   6.114   3.517   0.083 -0.2511 -0.2031 -0.8429
11220SOL    HW236293   6.250   3.567   0.039 -0.1023  0.7678  0.6713
11221SOL     OW36294   9.838   3.725   4.671  0.3100  0.5680  0.8005
11221SOL    HW136295   9.780   3.687   4.604  0.6867  1.5192 -0.0935
11221SOL    HW236296   9.915   3.754   4.622  0.4762  1.5287  1.5999
11222SOL     OW36297   6.618   2.109   3.970 -0.1579  0.4713 -0.0408
11222SOL    HW136298   6.711   2.090   3.956 -0.0022  1.4588 -0.4259
11222SOL    HW236299   6.586   2.134   3.884 -0.3996  1.6794  0.3800
11223SOL     OW36300   0.837   5.910   7.763  0.0896  0.1238 -0.3577
11223SOL    HW136301   0.760   5.859   7.736 -0.8649  1.5163 -0.3801
11223SOL    HW236302   0.849   5.974   7.693 -0.0531  1.3046  0.6666
11224SOL     OW36303   4.406   6.365   3.615  0.1491 -0.3307  0.5462
11224SOL    HW136304   4.352   6.390   3.690  0.0174 -0.1895  0.4052
11224SOL    HW236305   4.428   6.448   3.572  1.3433 -0.3015  1.1909
11225SOL     OW36306   0.132   9.591   2.503 -0.2248 -0.0239 -0.3217
11225SOL    HW136307   0.047   9.564   2.538  0.4573 -1.4572  0.3219
11225SOL    HW236308   0.138   9.684   2.525 -0.9862 -0.2452  0.9865
11226SOL     OW36309   9.571   8.409  10.178  0.1722 -0.2670 -0.4882
11226SOL    HW136310   9.575   8.342  10.109 -1.9354 -0.9278 -0.0466
11226SOL    HW236311   9.499   8.466  10.151  1.1225  1.1173 -0.1996
11227SOL     OW36312   7.115   4.949   1.399 -0.4399 -0.2610 -0.5815
11227SOL    HW136313   7.169   4.944   1.320 -0.2427 -0.9293 -0.4122
11227SOL    HW236314   7.031   4.983   1.368 -0.1614  0.0792 -0.9749
11228SOL     OW36315   7.316   6.404   2.232 -0.5825 -0.2992  0.1587
11228SOL    HW136316   7.378   6.414   2.304 -0.6676 -0.2426  0.2233
11228SOL    HW236317   7.322   6.312   2.207 -0.3507 -0.2579  0.0563
11229SOL     OW36318   5.137   4.376   8.842 -0.5099 -0.8120 -0.3105
11229SOL    HW136319   5.163   4.285   8.833  0.9547 -0.6572  1.6401
11229SOL    HW236320   5.071   4.375   8.911  1.0556 -0.2351  1.2730
11230SOL     OW36321   2.894   8.348   5.931  0.0449 -0.3344 -0.1928
11230SOL    HW136322   2.930   8.260   5.921  0.1398 -0.2209 -0.9334
11230SOL    HW236323   2.967   8.400   5.965 -0.3750 -0.8037  1.5066
11231SOL     OW36324   3.980   9.718   5.417  0.0335  0.4500  0.4701
11231SOL    HW136325   4.055   9.663   5.439  0.3904  1.2335  1.2882
11231SOL    HW236326   3.978   9.719   5.321  0.8434  0.1116  0.4428
11232SOL     OW36327   4.376   6.123  10.156  0.3528  0.0634 -0.4339
11232SOL    HW136328   4.369   6.188  10.225  1.5764 -0.3424  0.1000
11232SOL    HW236329   4.299   6.067  10.166  0.1256  0.4757  0.1071
11233SOL     OW36330   2.325   4.898   3.734  0.0808  0.2221 -0.1598
11233SOL    HW136331   2.257   4.940   3.787  0.4535 -0.0816  0.5837
11233SOL    HW236332   2.394   4.876   3.797  0.4849 -0.2611 -0.7577
11234SOL     OW36333   7.209   5.773   9.338  0.3273  0.1245  1.2661
11234SOL    HW136334   7.245   5.860   9.357 -0.8364  1.8692 -3.1746
11234SOL    HW236335   7.139   5.762   9.401 -1.3913  3.8766  0.2805
11235SOL     OW36336   1.797   7.446   1.374  0.0364 -0.2130  0.3126
11235SOL    HW136337   1.741   7.377   1.338  1.4045 -0.6340 -1.1725
11235SOL    HW236338   1.829   7.410   1.457  0.1098 -1.0542 -0.0660
11236SOL     OW36339   1.751   6.993   1.818  0.2326  0.6732 -0.1113
11236SOL    HW136340   1.672   7.039   1.789 -0.3285 -0.8771 -1.1509
11236SOL    HW236341   1.819   7.021   1.756 -0.4607 -0.9848 -1.6860
11237SOL     OW36342   7.393   9.244   2.980 -0.2151  0.3195 -0.1192
11237SOL    HW136343   7.302   9.273   2.985 -0.7786 -0.8655 -2.2433
11237SOL    HW236344   7.429   9.290   2.904  1.2037  1.2698  1.0601
11238SOL     OW36345   0.767   7.938   4.828 -0.0432  0.6884 -0.2293
11238SOL    HW136346   0.689   7.990   4.809  0.0002 -0.1587 -3.1634
11238SOL    HW236347   0.837   7.979   4.777  0.9463  0.1516  0.6491
11239SOL     OW36348   6.928   9.440   6.998  0.0057 -0.7496  0.1793
11239SOL    HW136349   6.933   9.380   6.924  1.3355  0.0947 -0.4475
11239SOL    HW236350   6.843   9.423   7.037  0.3860 -3.1191  0.0883
11240SOL     OW36351   2.267   7.958   7.715 -0.3200  0.2947  0.4982
11240SOL    HW136352   2.345   7.902   7.717  1.1412  2.2271  0.3846
11240SOL    HW236353   2.221   7.938   7.797  0.7986 -0.1794  1.0239
11241SOL     OW36354  10.084   0.264   1.235  0.6319 -0.5134 -0.1357
11241SOL    HW136355  10.018   0.238   1.298 -1.1790  0.3334 -1.5921
11241SOL    HW236356  10.162   0.281   1.287 -0.0454 -2.2572  1.5560
11242SOL     OW36357   8.142   0.169   4.899 -0.4231 -0.1999 -0.1374
11242SOL    HW136358   8.111   0.079   4.901  1.1464 -0.7696  0.3246
11242SOL    HW236359   8.237   0.161   4.890 -0.2534  1.4133 -0.0440
11243SOL     OW36360   6.167   1.713   7.367  0.2754  1.1848  0.3125
11243SOL    HW136361   6.091   1.672   7.409  1.2335  0.7645  1.7536
11243SOL    HW236362   6.170   1.674   7.280 -2.2867  2.7076 -0.5492
11244SOL     OW36363   5.830   2.904   8.801 -0.7499 -0.1858 -0.2361
11244SOL    HW136364   5.848   2.820   8.757 -1.1196  0.1974 -1.1387
11244SOL    HW236365   5.916   2.946   8.806 -0.4752 -0.8194  0.6734
11245SOL     OW36366   2.138   9.803   3.574  0.3718  0.1748 -0.1675
11245SOL    HW136367   2.099   9.720   3.548  0.9856 -0.2325  0.1974
11245SOL    HW236368   2.227   9.781   3.600  0.2831  0.8174  0.7272
11246SOL     OW36369   5.351   9.772   8.813 -0.2246  0.3602  0.1940
11246SOL    HW136370   5.402   9.760   8.893  1.3692  2.3780 -0.4530
11246SOL    HW236371   5.393   9.714   8.750  0.7060  1.2933 -0.0703
11247SOL     OW36372   2.698   0.644   3.311  0.1119 -0.3062  0.3020
11247SOL    HW136373   2.679   0.737   3.326  0.3955 -0.4427  1.6126
11247SOL    HW236374   2.637   0.598   3.368 -1.4199 -1.0426 -1.7757
11248SOL     OW36375   5.587   9.113   6.380 -0.9301 -0.4779  0.4212
11248SOL    HW136376   5.542   9.085   6.460 -1.6918 -0.8432 -0.1220
11248SOL    HW236377   5.538   9.190   6.350 -0.7477 -0.4364  0.2268
11249SOL     OW36378   9.446   1.165   4.723 -0.1711 -0.2890 -0.2102
11249SOL    HW136379   9.499   1.119   4.658 -1.2289 -1.0659 -0.5539
11249SOL    HW236380   9.510   1.201   4.785  0.9543  1.2591 -2.1332
11250SOL     OW36381   0.918   0.331   7.756 -0.4374  0.0974 -0.4343
11250SOL    HW136382   0.847   0.395   7.762 -1.2759 -0.7195 -1.2790
11250SOL    HW236383   0.901   0.269   7.827 -0.5932 -0.1221 -0.6630
11251SOL     OW36384   9.641   0.293   4.340 -0.2434  0.2640  0.4078
11251SOL    HW136385   9.623   0.308   4.433 -0.0417 -0.2107  0.5285
11251SOL    HW236386   9.583   0.220   4.316  0.6819 -0.5174  0.5092
11252SOL     OW36387   4.764   6.970   9.498  0.1038  0.4487  0.1636
11252SOL    HW136388   4.677   6.959   9.458  1.1471 -1.0149 -1.8346
11252SOL    HW236389   4.804   7.041   9.449  0.6856 -0.0657 -0.1145
11253SOL     OW36390   0.854   7.955   1.209 -0.1924  0.5410 -0.0699
11253SOL    HW136391   0.858   8.051   1.203 -0.0637  0.4777 -1.4142
11253SOL    HW236392   0.930   7.925   1.159  0.3759 -0.2692  1.2352
11254SOL     OW36393   9.464   8.870   9.093 -0.7380  0.1823 -0.1739
11254SOL    HW136394   9.428   8.928   9.160  1.3973  0.5648  0.7210
11254SOL    HW236395   9.484   8.789   9.140  0.3962  0.3098 -0.3978
11255SOL     OW36396   1.321   3.256  10.266  0.5740 -0.7555  0.1601
11255SOL    HW136397   1.313   3.180  10.208 -1.1604 -0.6726  0.2363
11255SOL    HW236398   1.271   3.325  10.222  1.6035  0.1736  0.3968
11256SOL     OW36399   6.680   4.315   3.430 -0.0822 -0.4785  0.2648
11256SOL    HW136400   6.610   4.331   3.493  1.2166  0.5682  1.5125
11256SOL    HW236401   6.683   4.220   3.420  1.4501 -1.0007  4.0312
11257SOL     OW36402   5.289   7.726   4.262  0.2122  0.7116 -0.0925
11257SOL    HW136403   5.320   7.665   4.195  1.5628  2.0229 -0.7327
11257SOL    HW236404   5.352   7.716   4.334 -0.3419  0.4187  0.3635
11258SOL     OW36405   1.933   9.312   3.805  0.2335 -0.6069  0.0077
11258SOL    HW136406   1.933   9.321   3.710  2.2713 -1.1681 -0.0980
11258SOL    HW236407   2.000   9.374   3.835 -0.7385 -0.0720  1.1252
11259SOL     OW36408   0.940   4.663   1.618 -0.8863 -0.3533  0.4800
11259SOL    HW136409   0.859   4.712   1.601 -0.3096  0.5659  0.3279
11259SOL    HW236410   0.972   4.698   1.701  0.4183  0.7642 -0.4553
11260SOL     OW36411   8.033   1.226   8.383  0.1849  0.5404 -0.7333
11260SOL    HW136412   8.005   1.307   8.426  2.1598  1.9102 -1.8908
11260SOL    HW236413   8.118   1.246   8.345  0.9140 -2.2070 -0.8043
11261SOL     OW36414   4.744   2.666   2.960  0.2307 -0.2625  0.0527
11261SOL    HW136415   4.683   2.592   2.957 -0.6892  0.4088  1.4486
11261SOL    HW236416   4.830   2.625   2.956 -0.2668 -1.3899  0.3043
11262SOL     OW36417   6.923   5.758   0.343  0.4721  0.2606  0.2619
11262SOL    HW136418   6.899   5.827   0.281  0.3529  0.2662  0.3138
11262SOL    HW236419   6.983   5.801   0.404  0.6314  0.2421  0.1208
11263SOL     OW36420   0.642   3.441   8.624 -0.2897 -0.3047  0.0477
11263SOL    HW136421   0.722   3.444   8.676 -0.1333  0.8701 -0.2304
11263SOL    HW236422   0.660   3.377   8.555  0.4539  0.0300 -0.0750
11264SOL     OW36423   8.439   2.326   1.821 -0.1424 -0.5553 -0.2280
11264SOL    HW136424   8.515   2.287   1.779 -0.9122 -2.2848 -0.0874
11264SOL    HW236425   8.475   2.397   1.874  1.5376 -2.0741  0.7909
11265SOL     OW36426   9.634   4.826   7.907 -0.0916  0.0256 -0.9449
11265SOL    HW136427   9.685   4.893   7.954  0.0005 -0.5643 -0.1884
11265SOL    HW236428   9.571   4.876   7.856 -0.0839  0.6959 -0.3160
11266SOL     OW36429   4.354   4.523   7.084  0.4112 -0.2601  0.2993
11266SOL    HW136430   4.333   4.602   7.034 -0.6602 -0.9059 -0.3253
11266SOL    HW236431   4.351   4.550   7.175 -2.7366 -0.1245  0.2671
11267SOL     OW36432   1.921   9.868   9.407 -0.2553  0.0605 -0.2812
11267SOL    HW136433   1.865   9.794   9.387  0.2602 -0.3812 -0.1173
11267SOL    HW236434   2.004   9.829   9.435  0.6060  0.6891 -1.8299
11268SOL     OW36435  10.050   1.449   0.310  0.2371  0.2308  0.1085
11268SOL    HW136436  10.126   1.417   0.358 -0.1602  0.0404  0.6255
11268SOL    HW236437  10.052   1.402   0.227  1.5188  1.3269 -0.5174
11269SOL     OW36438   8.613   5.043   5.776  0.5209  0.1281  0.8334
11269SOL    HW136439   8.659   5.021   5.695  0.9168  0.9320  0.8282
11269SOL    HW236440   8.669   5.108   5.819 -0.3485  0.7432  1.0792
11270SOL     OW36441   4.485   0.153   1.213  0.3799 -0.0375  0.1717
11270SOL    HW136442   4.443   0.069   1.192  1.8094 -0.5388 -0.7914
11270SOL    HW236443   4.420   0.218   1.187 -0.0307 -0.8042 -0.8196
11271SOL     OW36444   9.454   9.302   1.527  0.7754  0.3023 -0.4335
11271SOL    HW136445   9.525   9.302   1.591 -0.1906  2.4129  0.7317
11271SOL    HW236446   9.458   9.215   1.487  2.0493 -0.7488  1.7694
11272SOL     OW36447   3.063   5.348   8.943 -0.2852  0.4317 -0.4286
11272SOL    HW136448   3.109   5.433   8.942 -0.5882  0.6016 -1.4720
11272SOL    HW236449   3.120   5.290   8.892  2.3242 -1.3766  3.9962
11273SOL     OW36450   2.035   0.549   4.321 -0.3011  0.5440  0.6548
11273SOL    HW136451   1.975   0.589   4.259 -1.2384 -2.4116 -0.5255
11273SOL    HW236452   1.980   0.524   4.395 -0.1903 -0.4687  0.4099
11274SOL     OW36453   4.965   1.668   8.540 -0.6187  0.5586 -0.0879
11274SOL    HW136454   4.965   1.703   8.451 -3.1784 -1.1404 -0.8678
11274SOL    HW236455   4.884   1.701   8.579  1.2827  2.7719  2.3763
11275SOL     OW36456   0.529   0.263   3.454  0.2184 -0.3015 -0.0614
11275SOL    HW136457   0.445   0.251   3.409  0.6358 -1.0193 -0.6661
11275SOL    HW236458   0.509   0.249   3.546 -0.2040 -1.1441 -0.2707
11276SOL     OW36459   1.249   8.580   1.705  0.3348  0.4877 -0.0115
11276SOL    HW136460   1.287   8.648   1.760  0.0078  0.4267  0.2909
11276SOL    HW236461   1.244   8.503   1.761  0.6979  0.2114 -0.3488
11277SOL     OW36462   6.755   6.864   3.428  0.1417  0.8458  0.1074
11277SOL    HW136463   6.676   6.842   3.478 -0.2456 -0.0009 -0.8523
11277SOL    HW236464   6.825   6.867   3.493 -0.2768 -0.6400  0.6522
11278SOL     OW36465   0.237   1.157   3.812  0.0006  0.2897  0.1974
11278SOL    HW136466   0.326   1.121   3.803  0.6595  0.9746  3.0833
11278SOL    HW236467   0.181   1.080   3.808  0.5333 -0.0521 -2.8411
11279SOL     OW36468   1.102   3.263   7.030 -0.0219 -0.3965  0.4733
11279SOL    HW136469   1.143   3.306   7.105 -0.0703 -1.0041  0.8541
11279SOL    HW236470   1.132   3.314   6.954 -2.6075  2.3410  1.0968
11280SOL     OW36471   5.092   2.629   5.973  0.2291  0.3941  0.4038
11280SOL    HW136472   5.031   2.703   5.973  0.3767  0.5348  1.6196
11280SOL    HW236473   5.045   2.559   5.926 -0.7535  0.5976  1.0541
11281SOL     OW36474   0.071   6.484   0.569 -0.0981 -0.4607  0.2623
11281SOL    HW136475   0.094   6.563   0.521  1.2645 -0.3439  1.0559
11281SOL    HW236476  -0.006   6.508   0.620  0.2073  0.3139  0.3683
11282SOL     OW36477   0.467   7.321   9.180 -0.2615  0.0349  0.3019
11282SOL    HW136478   0.470   7.227   9.199  0.7883  0.6596  4.0121
11282SOL    HW236479   0.553   7.342   9.143 -0.4464 -0.3787 -0.3923
11283SOL     OW36480   9.594   4.684   5.731 -0.4137  0.5907 -0.5058
11283SOL    HW136481   9.534   4.627   5.778  1.4718 -1.1863 -0.1301
11283SOL    HW236482   9.610   4.757   5.792 -2.7627  1.5794 -0.9568
11284SOL     OW36483   7.925   5.390   7.723  0.4868  0.0511  0.2855
11284SOL    HW136484   7.889   5.360   7.806  0.7291 -0.6528  0.1405
11284SOL    HW236485   7.878   5.472   7.704 -0.1746 -0.2315  0.6861
11285SOL     OW36486   0.937   6.249   7.411 -0.6409  0.1337 -0.0898
11285SOL    HW136487   1.025   6.247   7.373 -0.3542  0.2963  0.5566
11285SOL    HW236488   0.878   6.240   7.336 -0.0484 -2.8206 -0.3330
11286SOL     OW36489   6.330   7.417   8.810 -0.3183  0.1317  0.1400
11286SOL    HW136490   6.267   7.483   8.781 -0.7252 -0.2841  0.0605
11286SOL    HW236491   6.276   7.341   8.832  0.3089 -1.1448 -2.3780
11287SOL     OW36492   0.453   1.914   3.499 -0.2406 -0.1692  0.4215
11287SOL    HW136493   0.442   1.875   3.412 -0.7101 -1.5799  1.0790
11287SOL    HW236494   0.529   1.971   3.490 -0.2581 -0.3169 -0.9026
11288SOL     OW36495   2.878   4.353   2.634 -0.0134 -0.1576 -0.1065
11288SOL    HW136496   2.944   4.365   2.703 -1.6480 -0.2560  1.5330
11288SOL    HW236497   2.881   4.259   2.614  1.3897  0.0809 -1.1832
11289SOL     OW36498  10.217   6.303   1.400  0.1453  1.1286 -0.4316
11289SOL    HW136499  10.293   6.355   1.373  2.7621 -0.7001  2.6486
11289SOL    HW236500  10.188   6.260   1.320  2.2159  2.1085 -1.8051
11290SOL     OW36501   9.932   3.369   6.662 -0.1043 -0.0032 -0.0076
11290SOL    HW136502   9.955   3.363   6.755 -2.0037  0.5947  0.5451
11290SOL    HW236503   9.923   3.462   6.645 -0.6832 -0.1570 -0.5601
11291SOL     OW36504   4.659   2.328   4.536  0.1476  0.3346 -0.3091
11291SOL    HW136505   4.659   2.271   4.458  0.6834 -3.4827  2.2203
11291SOL    HW236506   4.567   2.334   4.560  0.0356  1.0539 -0.8863
11292SOL     OW36507   4.917   3.783   7.699  0.3713  0.3846  0.3129
11292SOL    HW136508   4.940   3.872   7.670  0.0490  0.7369  1.0932
11292SOL    HW236509   4.881   3.796   7.787 -0.2343 -0.4575  0.1981
11293SOL     OW36510   9.943  10.275   8.915  0.2710 -0.0764 -0.6102
11293SOL    HW136511   9.869  10.278   8.975  1.2230  0.7085  0.5797
11293SOL    HW236512   9.930  10.350   8.856  0.7459  0.8117  0.3918
11294SOL     OW36513   6.894   2.343   8.945 -0.1394 -0.1254  0.4064
11294SOL    HW136514   6.904   2.281   8.873 -0.5296 -0.3105  0.5154
11294SOL    HW236515   6.921   2.427   8.907 -1.2229 -0.0442 -0.2300
11295SOL     OW36516   2.155   5.837   7.115  0.3341  0.1951  0.1209
11295SOL    HW136517   2.248   5.844   7.093  0.4706 -0.5586  0.4310
11295SOL    HW236518   2.131   5.748   7.091 -0.8636  1.0044 -1.9603
11296SOL     OW36519   4.556   9.361   8.534  0.3870  0.0676  0.1198
11296SOL    HW136520   4.618   9.416   8.486  0.6393 -1.3064 -1.2110
11296SOL    HW236521   4.520   9.302   8.468  1.3606 -2.4961  1.7245
11297SOL     OW36522   3.774   9.103   0.549 -0.1090 -0.1459  0.5702
11297SOL    HW136523   3.751   9.010   0.553  1.0144 -0.4439  0.4433
11297SOL    HW236524   3.856   9.106   0.501 -1.3607  1.1692 -1.6681
11298SOL     OW36525   0.897   8.428   3.222 -0.3420  0.1799 -0.0350
11298SOL    HW136526   0.823   8.479   3.253  0.7285  0.7868  1.6802
11298SOL    HW236527   0.876   8.407   3.131 -2.0638  1.3108  0.0644
11299SOL     OW36528   6.777   5.691   2.189 -0.1026  0.0026 -0.0072
11299SOL    HW136529   6.688   5.667   2.164 -0.0466 -0.8767  0.5851
11299SOL    HW236530   6.776   5.786   2.196 -0.8105  0.0525 -0.6960
11300SOL     OW36531   3.330   3.385   1.049  0.0744  0.6995 -0.1791
11300SOL    HW136532   3.371   3.327   1.114  1.2396  1.5721 -0.1151
11300SOL    HW236533   3.323   3.330   0.971  1.5668  0.5659 -0.2554
11301SOL     OW36534   6.234   6.207   1.065  0.6555 -0.1840  0.5647
11301SOL    HW136535   6.284   6.133   1.030  0.1382 -0.0737 -0.4455
11301SOL    HW236536   6.189   6.171   1.141  0.6668 -0.8284  0.2759
11302SOL     OW36537   5.935   2.780   4.426 -0.3990 -0.8553 -0.0308
11302SOL    HW136538   6.004   2.786   4.359 -0.8569  0.0313 -0.4332
11302SOL    HW236539   5.980   2.797   4.508 -0.0258 -0.9025 -0.2228
11303SOL     OW36540   3.389   9.270   2.498 -0.5264  0.2793  0.0081
11303SOL    HW136541   3.385   9.365   2.500 -1.7172  0.4816 -3.8885
11303SOL    HW236542   3.481   9.249   2.514 -0.4917  1.8583  2.4463
11304SOL     OW36543   7.962   5.496   4.306  0.4132 -0.5820 -0.0025
11304SOL    HW136544   8.002   5.547   4.235 -0.8674 -0.3568 -0.5820
11304SOL    HW236545   7.911   5.559   4.356  0.4855 -0.9317  0.5236
11305SOL     OW36546   1.673   6.645   1.458  0.1592 -0.2716 -0.0278
11305SOL    HW136547   1.693   6.555   1.482 -0.6438 -0.7281 -0.9778
11305SOL    HW236548   1.665   6.643   1.363  0.4299  0.8746 -0.0937
11306SOL     OW36549   6.757  10.113   0.803 -0.0074 -0.0254 -0.2231
11306SOL    HW136550   6.830  10.168   0.776  0.8468 -0.9027  0.2096
11306SOL    HW236551   6.679  10.165   0.785  0.6678  0.5787 -1.5602
11307SOL     OW36552   5.010   1.564   3.235 -0.2089 -0.1785 -0.1451
11307SOL    HW136553   4.973   1.481   3.264  0.4790 -0.1808  0.7713
11307SOL    HW236554   4.934   1.618   3.213 -0.6668 -0.9796 -0.5640
11308SOL     OW36555   7.197   1.770   6.415 -0.4602 -0.4335 -0.1015
11308SOL    HW136556   7.249   1.699   6.453  0.0920 -1.3687 -2.4625
11308SOL    HW236557   7.205   1.759   6.321 -2.1527  1.4956 -0.5548
11309SOL     OW36558   9.439   0.847   2.231 -0.0268 -0.4436 -0.1967
11309SOL    HW136559   9.467   0.888   2.313 -0.0446 -1.2327  0.2094
11309SOL    HW236560   9.414   0.758   2.256 -0.4761 -0.5455 -0.9837
11310SOL     OW36561   3.413   1.444   2.147 -0.6206 -0.6359 -0.1292
11310SOL    HW136562   3.453   1.456   2.061  1.4474 -0.5305  0.7892
11310SOL    HW236563   3.465   1.376   2.189 -1.6512 -0.7562  1.0163
11311SOL     OW36564   6.531   1.828   3.248 -0.4292  0.0278  0.3286
11311SOL    HW136565   6.562   1.811   3.337  1.1597 -2.8388 -0.6026
11311SOL    HW236566   6.469   1.757   3.231 -0.9079  0.6929 -0.7885
11312SOL     OW36567   8.458   7.566   6.512  0.0810  0.1447 -0.4469
11312SOL    HW136568   8.458   7.613   6.429 -0.8297  0.1930 -0.4222
11312SOL    HW236569   8.373   7.585   6.551  1.1461  1.5611  1.3306
11313SOL     OW36570   6.142   0.766   3.410 -0.0055  0.2835  0.2060
11313SOL    HW136571   6.169   0.819   3.335 -0.9273  0.7363  0.1880
11313SOL    HW236572   6.121   0.830   3.478 -1.3671 -0.0363  0.1071
11314SOL     OW36573   3.428   6.623   9.027 -0.2585 -0.4276  0.4670
11314SOL    HW136574   3.463   6.561   9.091 -0.5068  0.5821  1.6333
11314SOL    HW236575   3.505   6.665   8.989 -0.1198 -0.2263  0.9564
11315SOL     OW36576  10.028   2.236   9.201  0.0479  0.1967  0.0472
11315SOL    HW136577  10.077   2.248   9.282  0.0025 -0.7032  0.2187
11315SOL    HW236578   9.965   2.308   9.200  0.2581  0.3948  0.6503
11316SOL     OW36579   1.641   2.675   6.722  0.2229 -0.6310 -0.1000
11316SOL    HW136580   1.609   2.668   6.812  0.3688  3.2091  0.3985
11316SOL    HW236581   1.734   2.655   6.728  0.1900 -0.6170  0.5399
11317SOL     OW36582   0.098  10.262   2.458 -0.3759  0.3009 -0.1818
11317SOL    HW136583   0.076  10.334   2.518 -1.2778  1.1676 -1.5087
11317SOL    HW236584   0.059  10.287   2.374  0.1206 -1.2894 -0.9334
11318SOL     OW36585   6.175   3.468   6.361 -0.6349  0.0804  0.8017
11318SOL    HW136586   6.109   3.451   6.294  0.8989 -0.1740 -0.7057
11318SOL    HW236587   6.167   3.396   6.423 -1.0712 -0.5000  0.0753
11319SOL     OW36588   4.701   3.794   2.823 -0.1610 -0.2333 -0.5556
11319SOL    HW136589   4.722   3.771   2.733  1.0236  1.1402 -0.6622
11319SOL    HW236590   4.632   3.860   2.816 -1.8007 -1.8169 -0.3240
11320SOL     OW36591   4.664   1.895   6.746  0.1954  0.3072  0.2636
11320SOL    HW136592   4.635   1.962   6.684  1.1625  0.6559  0.1622
11320SOL    HW236593   4.627   1.814   6.713 -0.0194  0.6218 -0.2803
11321SOL     OW36594   4.860   3.385   5.728  0.0055  0.2835 -0.0739
11321SOL    HW136595   4.949   3.351   5.734  0.3245  1.3261  1.6547
11321SOL    HW236596   4.866   3.457   5.665  0.0224 -0.6560 -1.1759
11322SOL     OW36597   9.369   0.418   8.015  0.1586 -0.6377  0.0046
11322SOL    HW136598   9.334   0.472   8.087 -2.3377  0.3052 -1.7905
11322SOL    HW236599   9.452   0.385   8.049  0.8635  2.6723  2.0161
11323SOL     OW36600   3.010   5.839   3.608 -0.2554  0.6636  0.5807
11323SOL    HW136601   2.957   5.763   3.585  1.0905 -0.2687  0.4274
11323SOL    HW236602   3.048   5.869   3.525  0.8354  0.2212  0.8970
11324SOL     OW36603  10.095   3.952   5.976  0.3674  0.4412  0.0647
11324SOL    HW136604  10.156   3.974   6.046  0.6065 -0.2667  0.0876
11324SOL    HW236605  10.073   4.036   5.936  0.8288  0.7707  0.4884
11325SOL     OW36606   7.229   5.028   2.473  0.2612  0.1340 -0.3276
11325SOL    HW136607   7.195   4.944   2.505  0.8762 -0.6876 -1.7736
11325SOL    HW236608   7.175   5.048   2.397  0.1211  1.0699  0.0024
11326SOL     OW36609   9.505   9.399   2.044  0.0768 -0.0878 -0.1981
11326SOL    HW136610   9.528   9.433   2.131  1.2246  0.0705 -0.5408
11326SOL    HW236611   9.537   9.466   1.984  0.2524 -0.6920 -0.7853
11327SOL     OW36612   0.079   3.359   5.298 -0.2745 -0.2138  0.1167
11327SOL    HW136613   0.055   3.435   5.350  2.2332  0.0858  0.9413
11327SOL    HW236614   0.035   3.286   5.341 -0.6040  0.4244  0.8785
11328SOL     OW36615   4.827   2.927   3.631  0.1205 -0.6814  0.6481
11328SOL    HW136616   4.796   2.920   3.721 -0.9149 -0.0102  0.3625
11328SOL    HW236617   4.913   2.970   3.638 -0.5747  0.6707  1.2352
11329SOL     OW36618   2.176   3.462   3.145 -0.2464  0.6365 -0.5767
11329SOL    HW136619   2.231   3.533   3.177 -1.0391  1.5712 -1.2050
11329SOL    HW236620   2.105   3.506   3.098 -0.5374 -0.5851 -1.3411
11330SOL     OW36621   1.026   3.793   4.274 -0.0506  0.2314 -0.1642
11330SOL    HW136622   1.061   3.859   4.214 -0.5512  0.6720  0.0125
11330SOL    HW236623   1.102   3.747   4.307  0.3444  1.0019  0.0235
11331SOL     OW36624   3.420   0.649   6.090  0.5439  0.2462  0.4276
11331SOL    HW136625   3.514   0.636   6.078  0.8248  1.3469  1.1831
11331SOL    HW236626   3.401   0.607   6.174  0.2263 -0.5207 -0.0224
11332SOL     OW36627  10.293   9.592   5.478 -0.1284 -0.6740 -0.1388
11332SOL    HW136628  10.200   9.596   5.459 -0.8531  1.6200  3.1082
11332SOL    HW236629  10.300   9.533   5.552  0.5239  1.3470  1.4930
11333SOL     OW36630   4.926   5.898   1.367 -0.3565  0.4037  0.2910
11333SOL    HW136631   4.906   5.991   1.369  0.9189  0.7603 -1.4176
11333SOL    HW236632   4.996   5.887   1.432 -1.3459  0.3929  1.3728
11334SOL     OW36633   0.509   6.888   0.072 -0.4754  0.4283 -0.3855
11334SOL    HW136634   0.490   6.981   0.068  1.4046  0.8219 -3.2436
11334SOL    HW236635   0.468   6.851  -0.006  0.2074 -0.8271 -0.1820
11335SOL     OW36636   3.753   0.999   9.866  0.0904 -0.8391 -0.0719
11335SOL    HW136637   3.810   1.067   9.829  3.1705 -3.1016  0.1087
11335SOL    HW236638   3.730   1.033   9.953 -1.9027  1.6693 -1.4285
11336SOL     OW36639   7.889   8.204   9.277  0.4010  0.5867 -0.2326
11336SOL    HW136640   7.906   8.157   9.195 -0.9104 -1.1709  0.4332
11336SOL    HW236641   7.852   8.288   9.249  0.1034  0.0799 -1.4528
11337SOL     OW36642   5.009   8.328   5.088  0.6532 -0.3046  0.2462
11337SOL    HW136643   5.039   8.353   5.175 -1.0574 -1.7914  1.3449
11337SOL    HW236644   4.981   8.237   5.098  1.1210 -0.7617 -2.0691
11338SOL     OW36645   7.565   2.329   6.863  0.2558  0.6535 -0.5038
11338SOL    HW136646   7.570   2.245   6.910 -0.0188  0.8140 -0.1839
11338SOL    HW236647   7.656   2.351   6.845  0.4562  1.1348  0.9402
11339SOL     OW36648  10.236   3.997   9.488 -0.3921 -0.5010  0.4061
11339SOL    HW136649  10.218   4.055   9.562 -0.2504 -0.5799  0.5029
11339SOL    HW236650  10.166   3.933   9.490 -1.9221  1.0138 -1.0984
11340SOL     OW36651   4.646   7.997   8.675  0.0345  0.5292 -0.1988
11340SOL    HW136652   4.712   8.040   8.620  2.1834 -0.7982  1.2178
11340SOL    HW236653   4.586   7.957   8.613  1.6341  0.1845 -1.6080
11341SOL     OW36654   5.605   8.524   8.059  1.0050  0.0408 -0.6373
11341SOL    HW136655   5.524   8.561   8.094  2.1104  0.8196  1.2613
11341SOL    HW236656   5.637   8.590   7.997  1.7931  1.2701  1.0201
11342SOL     OW36657   7.941   8.991   2.634  0.1996 -0.6999 -0.0359
11342SOL    HW136658   7.889   9.059   2.678  0.6221 -1.3369  1.5051
11342SOL    HW236659   7.885   8.961   2.563 -0.0343  1.1875 -0.7295
11343SOL     OW36660   7.362   5.636   2.891  0.5833  0.2982 -0.3892
11343SOL    HW136661   7.317   5.691   2.827 -0.6634 -0.1806  0.0402
11343SOL    HW236662   7.443   5.609   2.847  0.6963  1.5696 -1.0024
11344SOL     OW36663   1.950   3.022  10.227  0.7773  0.1077 -0.3812
11344SOL    HW136664   2.003   3.065  10.294 -0.2707 -0.2600  0.7343
11344SOL    HW236665   1.900   3.094  10.187 -1.0345  0.0295  1.5391
11345SOL     OW36666   1.494   3.664   9.717  0.2906  0.3450  0.1545
11345SOL    HW136667   1.409   3.687   9.680 -0.0304  1.4178  1.5096
11345SOL    HW236668   1.473   3.603   9.788  0.8192 -0.8522 -0.6849
11346SOL     OW36669   3.480   4.596   1.585  0.3356  0.5203  0.1985
11346SOL    HW136670   3.387   4.608   1.568  0.6076  0.8592 -1.1110
11346SOL    HW236671   3.486   4.507   1.620 -0.4462  0.4050  0.0651
11347SOL     OW36672   4.937   8.588   8.816 -0.1089 -0.5854 -0.1031
11347SOL    HW136673   4.911   8.601   8.724  0.1532  0.0039 -0.0986
11347SOL    HW236674   4.879   8.646   8.865 -0.5006 -1.1762  0.1478
11348SOL     OW36675   3.306   2.816   4.078 -0.3474  0.6330 -0.4244
11348SOL    HW136676   3.388   2.766   4.069 -0.6798  0.0369 -0.2148
11348SOL    HW236677   3.279   2.801   4.168 -0.8514  0.5641 -0.5854
11349SOL     OW36678   2.838   3.248   4.928  0.1458  0.1845  0.5708
11349SOL    HW136679   2.766   3.199   4.886 -0.1700  2.1168 -1.3035
11349SOL    HW236680   2.910   3.241   4.866  0.3704  1.3551  0.6944
11350SOL     OW36681   7.067   2.447  10.213 -0.2321 -0.4688  0.1949
11350SOL    HW136682   7.024   2.514  10.266 -3.1404 -0.9358 -1.3567
11350SOL    HW236683   7.030   2.364  10.245  0.3049 -0.9946 -0.5309
11351SOL     OW36684   2.011  10.260   8.122 -0.0418  0.5161 -0.0551
11351SOL    HW136685   2.050  10.196   8.063  0.4927  0.7088  0.0864
11351SOL    HW236686   1.971  10.207   8.191  0.7479  0.3404  0.2797
11352SOL     OW36687   8.325   6.995   2.895 -0.1578  0.2098 -0.3549
11352SOL    HW136688   8.251   6.990   2.834 -0.5476  0.8614  0.0546
11352SOL    HW236689   8.291   6.959   2.977 -0.5284  1.9878  0.2984
11353SOL     OW36690   7.370   5.658   1.693 -0.6121 -0.2173 -0.0809
11353SOL    HW136691   7.383   5.566   1.670 -0.0816  0.3362 -2.1586
11353SOL    HW236692   7.416   5.707   1.625 -1.9482  1.6156  0.2632
11354SOL     OW36693   9.679   8.581   4.549  0.1481  0.0728 -0.4529
11354SOL    HW136694   9.692   8.500   4.599 -0.5449  1.0599  1.4638
11354SOL    HW236695   9.712   8.561   4.462  0.1822 -2.2062  0.0026
11355SOL     OW36696   1.611   3.234   1.096 -0.3832 -0.3478 -0.2589
11355SOL    HW136697   1.699   3.200   1.116 -0.4309 -0.5678 -0.4303
11355SOL    HW236698   1.619   3.272   1.009  0.3795  2.4872  0.9038
11356SOL     OW36699   8.155   7.994   1.742  0.3706  0.1666 -0.0225
11356SOL    HW136700   8.118   8.073   1.781 -0.5465 -0.9982  1.6084
11356SOL    HW236701   8.249   7.999   1.761 -0.0064 -0.2262  2.2306
11357SOL     OW36702   9.384   7.546   1.751  0.8308  0.2586  0.4421
11357SOL    HW136703   9.433   7.464   1.752 -1.2241 -1.0473  0.1619
11357SOL    HW236704   9.403   7.586   1.836  2.4506 -0.1092  0.2825
11358SOL     OW36705   7.757   9.295   6.740 -1.0898  0.0200 -0.1627
11358SOL    HW136706   7.774   9.239   6.665  1.3047 -1.2080  1.1818
11358SOL    HW236707   7.692   9.248   6.792 -0.5338 -0.5799 -0.0070
11359SOL     OW36708   2.389   4.851   1.664  0.8306 -0.2103  0.2432
11359SOL    HW136709   2.459   4.810   1.716 -0.5064  0.3311  2.6193
11359SOL    HW236710   2.405   4.945   1.674  0.9031 -0.0873 -0.9035
11360SOL     OW36711   6.849   2.059   1.529  0.2307  0.2215  0.1891
11360SOL    HW136712   6.853   2.115   1.452 -3.0532  1.1996  0.5434
11360SOL    HW236713   6.930   2.078   1.577 -0.2678  4.1648 -0.1342
11361SOL     OW36714   2.695   4.057   1.522  0.2154 -0.2777  0.0788
11361SOL    HW136715   2.716   4.061   1.429 -0.8302  1.3580 -0.1058
11361SOL    HW236716   2.628   3.989   1.528  0.6465 -0.7440 -0.2784
11362SOL     OW36717   9.356   0.768   6.202 -0.4339  0.5753 -0.1401
11362SOL    HW136718   9.404   0.699   6.156  0.1554  1.1217 -0.3615
11362SOL    HW236719   9.287   0.794   6.142 -1.0174 -0.2024  0.1704
11363SOL     OW36720   6.583   4.256   1.622  0.1268  0.8314  0.8479
11363SOL    HW136721   6.574   4.232   1.529 -2.0660  1.3803  0.8553
11363SOL    HW236722   6.622   4.179   1.663  1.4066  0.6859 -0.5681
11364SOL     OW36723   2.662   3.120   7.939  0.0711 -0.0649 -0.2063
11364SOL    HW136724   2.593   3.154   7.996  0.7097  1.4212 -0.2442
11364SOL    HW236725   2.730   3.089   7.999  0.2367  0.4062 -0.1399
11365SOL     OW36726   4.389   5.085   9.229 -0.4995 -0.4927 -0.2500
11365SOL    HW136727   4.389   5.120   9.140 -1.4663 -0.7923 -0.3763
11365SOL    HW236728   4.432   5.153   9.281  0.4460 -0.4897 -0.9940
11366SOL     OW36729   4.202   4.822   9.765 -0.2123  0.6000  0.4012
11366SOL    HW136730   4.107   4.818   9.771 -0.2123  1.2837  0.8361
11366SOL    HW236731   4.220   4.901   9.715  0.0901 -0.2829 -0.9531
11367SOL     OW36732   3.374   5.982   7.268 -0.6075  0.6063  0.1605
11367SOL    HW136733   3.408   6.041   7.201 -1.4937  0.8082 -0.1332
11367SOL    HW236734   3.359   5.899   7.223 -2.5862  1.1518 -0.3021
11368SOL     OW36735   4.078   1.190   1.979 -0.5281 -0.0511  0.0871
11368SOL    HW136736   4.090   1.277   1.943 -2.5247  0.3840  0.3336
11368SOL    HW236737   4.015   1.148   1.920  1.5223 -1.9206 -0.8984
11369SOL     OW36738   7.180   4.793   3.703  0.2611  0.0894 -0.5205
11369SOL    HW136739   7.094   4.833   3.712 -0.5024 -1.6890  0.5262
11369SOL    HW236740   7.231   4.857   3.653 -1.3084  1.6816 -0.1823
11370SOL     OW36741   8.881   6.985   5.009 -0.0417 -0.2093 -0.1587
11370SOL    HW136742   8.850   7.025   5.091  2.6759 -0.4900  1.1456
11370SOL    HW236743   8.910   6.898   5.035  2.7509  0.3975 -0.9083
11371SOL     OW36744   7.572   7.897   4.850  0.1255 -0.1529  0.0604
11371SOL    HW136745   7.533   7.815   4.820  3.1252 -0.8153 -2.5569
11371SOL    HW236746   7.587   7.884   4.944  1.4641 -3.0857 -0.4580
11372SOL     OW36747   6.508   6.641   6.094 -0.4824  0.0502 -0.3657
11372SOL    HW136748   6.480   6.666   6.006  2.2220 -0.2696 -1.4227
11372SOL    HW236749   6.472   6.553   6.107 -0.5874 -0.0604 -1.3350
11373SOL     OW36750   8.524   5.739   5.454  0.6611  0.0072 -0.1893
11373SOL    HW136751   8.514   5.828   5.489  2.7787  0.5792 -0.9204
11373SOL    HW236752   8.492   5.682   5.524 -0.4567  1.3080  0.4122
11374SOL     OW36753   9.231   1.133   3.839 -0.2499  0.3365  0.1308
11374SOL    HW136754   9.169   1.060   3.845  0.4639 -0.1885  2.1167
11374SOL    HW236755   9.286   1.124   3.917  1.3715  1.6564 -0.7761
11375SOL     OW36756   7.544   2.076   7.006  0.1954 -0.0202  0.6951
11375SOL    HW136757   7.591   1.994   7.022  0.7642 -0.0088 -0.7597
11375SOL    HW236758   7.560   2.128   7.085  0.6404 -0.9328  1.2249
11376SOL     OW36759  10.185   6.656   0.255 -0.0291 -0.0696 -0.5846
11376SOL    HW136760  10.221   6.584   0.203 -0.0204  0.9807 -2.0906
11376SOL    HW236761  10.261   6.709   0.279 -0.1520  0.0599 -0.4756
11377SOL     OW36762   0.847   9.864   6.450  0.1337 -0.0422  0.5367
11377SOL    HW136763   0.939   9.842   6.466  0.2710  0.0049 -0.1258
11377SOL    HW236764   0.798   9.812   6.513  0.6259  0.0917  1.0385
11378SOL     OW36765   8.916   0.959   2.159 -0.2475 -0.1278 -0.0917
11378SOL    HW136766   8.967   0.897   2.211 -1.4042  0.2031  1.5150
11378SOL    HW236767   8.954   0.954   2.071  1.2016 -1.3596  0.5644
11379SOL     OW36768   9.084   2.887   6.621  0.7421 -0.1560  0.2451
11379SOL    HW136769   9.103   2.970   6.576 -0.1156  0.4229  0.9064
11379SOL    HW236770   9.063   2.913   6.711  0.6119 -1.1166  0.5036
11380SOL     OW36771   5.244   2.742   2.181 -0.6217 -0.5505 -0.5472
11380SOL    HW136772   5.332   2.718   2.212 -0.6140  0.4695  0.3035
11380SOL    HW236773   5.237   2.835   2.201 -2.4454 -0.9185  0.7773
11381SOL     OW36774   4.161   6.917   8.074 -0.0984  0.6177  0.0207
11381SOL    HW136775   4.070   6.887   8.068  0.4337 -1.3106  0.8664
11381SOL    HW236776   4.176   6.965   7.993 -0.9991 -1.5373 -1.4887
11382SOL     OW36777   0.883   5.988   6.821 -0.1600  0.1508  0.5143
11382SOL    HW136778   0.911   6.069   6.863  0.1987  0.3429 -0.0748
11382SOL    HW236779   0.880   5.924   6.891 -0.2596  0.6291  0.9520
11383SOL     OW36780   6.331   3.118   7.078 -0.1981  0.3320  0.1558
11383SOL    HW136781   6.356   3.144   6.989 -2.1097  1.1869 -0.1732
11383SOL    HW236782   6.308   3.200   7.121 -1.5304 -0.2896  0.6835
11384SOL     OW36783   7.491   3.812   4.500  0.6913  0.4821 -0.2864
11384SOL    HW136784   7.454   3.724   4.507  2.6487 -0.3502  0.5446
11384SOL    HW236785   7.474   3.839   4.410 -1.7308  0.1416 -0.0038
11385SOL     OW36786   1.944   0.184   9.230  0.0503  0.3106 -0.0831
11385SOL    HW136787   2.031   0.221   9.217 -0.6111  1.4295 -1.5426
11385SOL    HW236788   1.950   0.094   9.198  1.0077 -0.0973  1.1539
11386SOL     OW36789   4.412   3.234   3.159  0.1764 -0.8789 -0.1749
11386SOL    HW136790   4.461   3.259   3.237 -0.2957 -0.5143  0.0090
11386SOL    HW236791   4.457   3.277   3.087  0.1960 -0.6342 -0.0177
11387SOL     OW36792   1.811   0.773   5.605 -0.4254 -0.4155 -0.0785
11387SOL    HW136793   1.833   0.847   5.661  3.5297 -0.8558 -0.7751
11387SOL    HW236794   1.759   0.811   5.534  0.2745  1.4270  0.3481
11388SOL     OW36795   2.175   6.285   2.773  0.0442  0.4198  0.0581
11388SOL    HW136796   2.110   6.303   2.842 -0.2785  1.2334 -0.4460
11388SOL    HW236797   2.203   6.195   2.790 -0.0385  0.6016  1.2448
11389SOL     OW36798   8.167   5.121   6.417  0.3169  0.1355  0.2703
11389SOL    HW136799   8.224   5.107   6.492  0.5123 -0.4473  0.0177
11389SOL    HW236800   8.082   5.144   6.455 -0.2618 -2.5077  0.7737
11390SOL     OW36801   7.632   9.824   9.477  0.3484  1.0274 -0.3427
11390SOL    HW136802   7.539   9.827   9.455  0.4118 -0.6804 -0.9119
11390SOL    HW236803   7.637   9.772   9.557  0.9622 -0.6721 -1.4231
11391SOL     OW36804   9.621   9.552   5.024  0.2286 -0.0355 -0.4102
11391SOL    HW136805   9.646   9.490   4.956 -2.6453 -0.6277 -1.0852
11391SOL    HW236806   9.529   9.531   5.043  0.1177  1.9073  1.6989
11392SOL     OW36807   6.400   1.646   5.421  0.3809 -0.0317  0.3459
11392SOL    HW136808   6.474   1.602   5.380  0.0081 -0.1098 -0.2490
11392SOL    HW236809   6.402   1.735   5.388  0.6154  0.1620  0.8705
11393SOL     OW36810   6.974   8.935   5.825  0.1471 -0.0842 -0.5415
11393SOL    HW136811   6.917   8.865   5.857  0.1998  0.4143  0.6939
11393SOL    HW236812   7.037   8.949   5.896  0.0520  1.2995 -0.6986
11394SOL     OW36813   7.334   8.779   5.073 -0.5702  0.0678  0.0725
11394SOL    HW136814   7.250   8.825   5.070 -1.4811 -1.2706  2.2969
11394SOL    HW236815   7.365   8.792   5.163  0.0581 -2.0104  0.2084
11395SOL     OW36816   4.670   5.798   5.477  0.0939 -0.5840  0.2693
11395SOL    HW136817   4.712   5.867   5.424 -0.9419  0.5815  0.9250
11395SOL    HW236818   4.577   5.812   5.465 -0.1383 -1.7823  0.5684
11396SOL     OW36819   9.789   9.158   9.618  0.0116  0.6559  0.0637
11396SOL    HW136820   9.828   9.244   9.637 -1.8939  0.8072  4.4048
11396SOL    HW236821   9.695   9.172   9.629 -0.4700 -1.7329 -0.5491
11397SOL     OW36822   5.900   5.592   5.586  0.1746 -0.0998  0.7753
11397SOL    HW136823   5.943   5.622   5.666  0.8428 -1.0475  0.7872
11397SOL    HW236824   5.819   5.550   5.617  1.2574 -2.0360  1.1589
11398SOL     OW36825  10.251   7.520  10.021 -0.2097  0.2053  0.3866
11398SOL    HW136826  10.291   7.547  10.103 -0.5553  1.6004  0.1153
11398SOL    HW236827  10.317   7.463   9.980  0.1473 -0.1297  1.4015
11399SOL     OW36828   4.377   6.073   9.008  0.0081 -0.4842  0.1347
11399SOL    HW136829   4.378   6.095   8.915 -0.8478  0.0754  0.2478
11399SOL    HW236830   4.468   6.078   9.035  0.1447  0.3366 -0.4540
11400SOL     OW36831   9.133   1.753   6.222  0.2512 -0.4676  0.6674
11400SOL    HW136832   9.179   1.813   6.280 -0.3493  0.1047  0.5631
11400SOL    HW236833   9.086   1.810   6.161 -0.3377 -1.0448  0.5744
11401SOL     OW36834   1.205   6.185   4.115 -0.0041 -0.0159  0.4056
11401SOL    HW136835   1.166   6.194   4.028 -2.1911  0.2287  1.3369
11401SOL    HW236836   1.261   6.262   4.125 -0.4929  0.4646 -0.4376
11402SOL     OW36837   4.467   5.458   5.014  0.2677 -0.3262  0.5499
11402SOL    HW136838   4.494   5.434   4.925  0.3036 -1.0755  0.7560
11402SOL    HW236839   4.485   5.552   5.020  0.3387 -0.2821 -0.2065
11403SOL     OW36840   3.916   0.762   5.053  0.3066 -0.1823  0.4814
11403SOL    HW136841   4.009   0.782   5.050  0.3466 -0.0387 -3.9156
11403SOL    HW236842   3.877   0.836   5.099  2.2518  0.1079  1.7607
11404SOL     OW36843   0.922   0.379   9.757  0.5125  0.0789 -0.2693
11404SOL    HW136844   0.943   0.445   9.823  0.4028  0.8501 -0.9867
11404SOL    HW236845   0.829   0.390   9.739  0.7072  0.4233 -1.1277
11405SOL     OW36846   5.569   2.073   6.612 -0.0401  0.3789  0.3057
11405SOL    HW136847   5.547   2.121   6.533  0.6178  0.3622  0.1016
11405SOL    HW236848   5.621   1.999   6.582 -0.5930 -0.1620  0.6700
11406SOL     OW36849   7.562   7.545  10.043 -0.1618 -0.2306 -0.0413
11406SOL    HW136850   7.629   7.481  10.067  1.2316  0.9264 -0.7811
11406SOL    HW236851   7.504   7.498   9.983  0.6097 -0.9078 -0.2594
11407SOL     OW36852   6.498   3.769   9.000 -0.1653 -0.7436 -0.5668
11407SOL    HW136853   6.482   3.711   8.926  0.8877 -0.9517 -0.6475
11407SOL    HW236854   6.419   3.823   9.005 -0.6515 -1.3660 -1.2405
11408SOL     OW36855   0.931   4.005   6.377 -0.5735 -0.0678 -0.2590
11408SOL    HW136856   0.998   4.057   6.332  0.2452 -0.3849  0.5715
11408SOL    HW236857   0.850   4.056   6.366  0.1946  1.3874  0.4842
11409SOL     OW36858   6.282   5.304   3.148 -0.3848 -0.5182  0.1023
11409SOL    HW136859   6.339   5.371   3.110 -1.4861  1.0526  1.1102
11409SOL    HW236860   6.249   5.255   3.073  0.6646 -0.1276 -0.6363
11410SOL     OW36861   9.383   0.207   2.279 -0.0749 -0.3487  0.6484
11410SOL    HW136862   9.432   0.288   2.269  2.6797 -1.9018  0.7934
11410SOL    HW236863   9.370   0.174   2.190 -0.8932  0.0333  0.6122
11411SOL     OW36864   0.464   8.562   4.483  0.0385  0.6241 -0.1610
11411SOL    HW136865   0.490   8.470   4.472 -0.5933  0.6306 -2.2128
11411SOL    HW236866   0.377   8.566   4.444 -0.8517  1.6894  1.8214
11412SOL     OW36867   9.456   6.234   6.521  0.1512  0.4879 -0.2551
11412SOL    HW136868   9.519   6.189   6.465 -0.9485 -0.2219 -0.9709
11412SOL    HW236869   9.476   6.327   6.510  1.8595  0.2448  0.5177
11413SOL     OW36870   1.567   3.362   9.527 -0.0252 -0.4546  0.1282
11413SOL    HW136871   1.609   3.447   9.540  0.7606 -0.8769  0.4162
11413SOL    HW236872   1.474   3.381   9.526 -0.0098  0.1193  2.6596
11414SOL     OW36873   4.381   4.671   6.246  0.0066 -0.0803 -0.1110
11414SOL    HW136874   4.309   4.673   6.310  0.3334  1.4297  0.2597
11414SOL    HW236875   4.339   4.646   6.164 -0.7487 -0.2514  0.3147
11415SOL     OW36876  10.276   4.848   9.131 -0.1380  0.1096 -0.8141
11415SOL    HW136877  10.341   4.915   9.110 -0.5076  0.5543 -0.5412
11415SOL    HW236878  10.324   4.765   9.123  1.0222  0.5099  1.3851
11416SOL     OW36879   9.273   7.101   8.388 -0.3791  0.1472 -0.6186
11416SOL    HW136880   9.304   7.099   8.298 -0.0480 -0.1201 -0.5005
11416SOL    HW236881   9.203   7.036   8.392  0.5421 -0.8671 -0.3509
11417SOL     OW36882   6.113   5.702   0.344  0.0288 -0.3358  0.3444
11417SOL    HW136883   6.135   5.771   0.281 -0.4667 -0.3629  0.1426
11417SOL    HW236884   6.045   5.651   0.301 -0.4867 -0.2151  1.0034
11418SOL     OW36885   7.265   7.295   1.703  0.8078 -0.3709  0.6452
11418SOL    HW136886   7.174   7.302   1.675  1.2804 -0.0241 -0.9121
11418SOL    HW236887   7.294   7.209   1.670  1.5998  0.3711 -0.6572
11419SOL     OW36888   2.675   6.108   9.760 -0.3031 -0.6805  0.0675
11419SOL    HW136889   2.677   6.202   9.776 -0.0158 -0.3950 -1.5561
11419SOL    HW236890   2.625   6.098   9.679  2.3567 -1.6536 -1.5560
11420SOL     OW36891   5.966   4.473   2.421  0.7018  0.4210  0.6650
11420SOL    HW136892   6.027   4.514   2.483  0.3194  3.2398 -0.6935
11420SOL    HW236893   5.887   4.456   2.473  1.6801 -0.8964  1.8139
11421SOL     OW36894   8.104   0.628   2.445  0.2570  0.2793 -0.0074
11421SOL    HW136895   8.044   0.658   2.377 -0.4153 -0.5527  0.2121
11421SOL    HW236896   8.151   0.707   2.472 -1.6981  1.2353  0.7998
11422SOL     OW36897   0.112   3.861   4.273  0.2275  0.1698  0.2537
11422SOL    HW136898   0.184   3.800   4.254 -1.8387 -1.9045 -1.5394
11422SOL    HW236899   0.108   3.864   4.368  1.6408 -1.0103  0.3937
11423SOL     OW36900   7.521   2.748   7.560  0.0513 -0.3500 -0.1002
11423SOL    HW136901   7.425   2.743   7.559  0.0022  0.2164  0.8432
11423SOL    HW236902   7.547   2.676   7.617  0.1088  0.3170  0.7357
11424SOL     OW36903   3.054   7.649   0.752  0.5433 -0.0189  0.4589
11424SOL    HW136904   3.082   7.558   0.742  1.3439  0.1303  1.1698
11424SOL    HW236905   2.958   7.644   0.754  0.5374 -0.7056 -0.6383
11425SOL     OW36906   4.266   2.357   4.003  0.3101 -0.2620  0.4179
11425SOL    HW136907   4.270   2.450   3.982  0.1217 -0.1009  1.0750
11425SOL    HW236908   4.358   2.331   4.013  0.4312 -0.4682 -1.1089
11426SOL     OW36909   3.633   7.128   2.984 -0.1151  0.3300  0.4237
11426SOL    HW136910   3.677   7.212   2.972  0.0755  0.2563  0.6046
11426SOL    HW236911   3.663   7.096   3.068 -0.1164  0.0358  0.3154
11427SOL     OW36912   1.276   2.683   2.909  0.3260 -0.5011  0.0615
11427SOL    HW136913   1.189   2.712   2.881  0.6504  0.0986 -0.3625
11427SOL    HW236914   1.326   2.678   2.827  0.9605  0.1213  0.3944
11428SOL     OW36915   7.974   0.694   2.230 -0.2431 -0.0006  0.1848
11428SOL    HW136916   7.991   0.740   2.148  1.5584 -1.4926 -0.3547
11428SOL    HW236917   7.942   0.608   2.202 -0.8742 -0.0819  1.1042
11429SOL     OW36918   2.905   0.064   2.577 -0.4066  0.4296  0.1095
11429SOL    HW136919   2.835   0.007   2.546  0.2924 -0.5708  0.3174
11429SOL    HW236920   2.963   0.006   2.628  0.0121  1.4385  0.8292
11430SOL     OW36921   8.999   2.519   3.690 -0.4036  0.7918  0.0144
11430SOL    HW136922   8.941   2.454   3.650  1.6849 -0.2955 -1.3890
11430SOL    HW236923   8.945   2.598   3.696 -2.0002 -0.1351 -1.3015
11431SOL     OW36924   0.887   0.208   2.156  0.2906 -0.4846  1.0789
11431SOL    HW136925   0.833   0.137   2.192 -0.4024 -0.3106  0.4074
11431SOL    HW236926   0.884   0.195   2.062 -0.8290  1.1180  0.8477
11432SOL     OW36927   5.199   2.636   9.865 -0.2381 -0.0090 -0.6274
11432SOL    HW136928   5.221   2.718   9.820 -1.4134  0.9859  0.5349
11432SOL    HW236929   5.148   2.587   9.801 -1.4239  1.1521 -0.6065
11433SOL     OW36930   1.929   8.652   0.050  0.0255  0.1156  0.0577
11433SOL    HW136931   2.003   8.645  -0.011 -0.0019  0.5481 -0.0269
11433SOL    HW236932   1.875   8.723   0.015  0.0761  0.4564  0.6449
11434SOL     OW36933   0.970   4.221   0.035 -0.1833  0.0041  0.0097
11434SOL    HW136934   0.896   4.266   0.076  0.7205  0.1706  1.5378
11434SOL    HW236935   0.945   4.128   0.035 -1.3008  0.2537 -1.5468
11435SOL     OW36936   9.695   4.993   4.835 -0.1947  0.5899  0.1421
11435SOL    HW136937   9.637   4.919   4.820  0.5611 -0.2324  1.1219
11435SOL    HW236938   9.770   4.977   4.778  1.4840 -1.1820  2.6512
11436SOL     OW36939   5.958   1.280   0.715 -0.0158  0.1729  0.6664
11436SOL    HW136940   5.979   1.369   0.688 -0.3521  0.4644  1.3347
11436SOL    HW236941   6.015   1.263   0.790  0.1223 -0.2157  0.4773
11437SOL     OW36942   5.439   7.440   2.314 -1.3023 -0.6269  0.4829
11437SOL    HW136943   5.345   7.451   2.325 -1.1964 -0.1841  1.0161
11437SOL    HW236944   5.475   7.457   2.401 -0.6227  0.4674 -0.0012
11438SOL     OW36945   1.657   5.334   4.253  0.0602  0.0949 -0.7859
11438SOL    HW136946   1.582   5.294   4.298 -0.0775  1.5616  0.3504
11438SOL    HW236947   1.621   5.369   4.172 -0.1926 -0.3880 -0.8880
11439SOL     OW36948   3.153   8.468   8.634 -0.4459 -0.3546 -0.1748
11439SOL    HW136949   3.144   8.419   8.552  0.9156 -1.2692  0.2018
11439SOL    HW236950   3.219   8.534   8.615 -1.6469  0.8124 -0.4164
11440SOL     OW36951   0.548   8.645   9.061  0.1472  0.1777 -0.1186
11440SOL    HW136952   0.520   8.657   9.151  0.1330 -1.6346  0.1583
11440SOL    HW236953   0.501   8.711   9.011 -1.6734 -0.3237  0.8715
11441SOL     OW36954   8.730   9.308   3.184 -0.3394 -0.4310 -0.1003
11441SOL    HW136955   8.651   9.352   3.216 -0.6489  0.0509 -1.4751
11441SOL    HW236956   8.699   9.251   3.114  0.5772  0.1523 -1.0056
11442SOL     OW36957   6.797  10.052   7.683  0.2496  0.4530 -0.3947
11442SOL    HW136958   6.720  10.046   7.626  0.4343 -0.1441 -0.5928
11442SOL    HW236959   6.796   9.971   7.733  1.4677 -0.1884 -1.3478
11443SOL     OW36960   4.651   2.651   4.218 -0.0939  0.2554 -0.2078
11443SOL    HW136961   4.581   2.605   4.263 -1.0936  1.0222 -0.9204
11443SOL    HW236962   4.719   2.585   4.204 -1.6705 -1.1736 -1.6429
11444SOL     OW36963   5.811   8.304   0.649  0.0894 -0.4023 -0.4750
11444SOL    HW136964   5.785   8.213   0.659 -0.8652 -0.0594  0.3060
11444SOL    HW236965   5.779   8.328   0.562 -2.2111 -0.0423  0.3844
11445SOL     OW36966   2.604   1.696   6.628  0.2667 -0.1673 -0.0562
11445SOL    HW136967   2.543   1.770   6.629  0.2030 -0.2178  0.6845
11445SOL    HW236968   2.663   1.714   6.555 -0.1431  0.2880 -0.2814
11446SOL     OW36969   4.719   9.664   5.632 -0.3145  0.2836  0.5719
11446SOL    HW136970   4.676   9.588   5.671 -0.0997  0.3579  0.9642
11446SOL    HW236971   4.651   9.732   5.629 -0.5652  0.0147  0.0248
11447SOL     OW36972   4.399   3.198   4.192 -0.2618 -0.0227  0.3434
11447SOL    HW136973   4.347   3.277   4.209  0.3408  0.3327  0.5802
11447SOL    HW236974   4.336   3.134   4.160 -0.8508  0.3870  0.6624
11448SOL     OW36975   0.514   7.131   9.882  0.0835  0.7206  0.1806
11448SOL    HW136976   0.556   7.051   9.914 -1.7613 -0.9444 -1.3053
11448SOL    HW236977   0.503   7.116   9.788 -3.6040  1.0806  0.4281
11449SOL     OW36978   4.170   9.024   7.677  0.2947  0.2598 -0.1661
11449SOL    HW136979   4.213   9.094   7.628 -0.8339  2.2737  1.5432
11449SOL    HW236980   4.076   9.036   7.658  0.1454 -1.4883 -0.6610
11450SOL     OW36981   3.033   3.461   7.644  0.2437  0.0264 -0.0355
11450SOL    HW136982   2.962   3.397   7.648  0.6757 -0.4872 -0.4758
11450SOL    HW236983   3.090   3.439   7.717 -0.6733  1.2194  1.0988
11451SOL     OW36984   8.399   5.707   9.554  0.0724 -0.0184  0.7110
11451SOL    HW136985   8.467   5.692   9.620  0.0001  0.4208  0.8873
11451SOL    HW236986   8.349   5.625   9.552  1.4136 -0.8563 -0.3726
11452SOL     OW36987   1.124   3.218   8.232 -0.0760  0.6701 -0.6732
11452SOL    HW136988   1.105   3.134   8.190  0.4299  0.0396  0.3152
11452SOL    HW236989   1.094   3.206   8.322  0.8320  1.2312 -0.2881
11453SOL     OW36990   2.627   7.152   6.150  0.2152 -0.4288  0.5439
11453SOL    HW136991   2.660   7.090   6.215  0.4265 -0.1725  0.6825
11453SOL    HW236992   2.639   7.238   6.190 -1.4059 -0.3692  0.9457
11454SOL     OW36993   8.632   9.868   8.553 -0.5638 -0.3937  0.5584
11454SOL    HW136994   8.547   9.829   8.534 -0.3689 -0.5255 -0.0708
11454SOL    HW236995   8.613   9.957   8.581 -0.7698  0.4406 -2.0551
11455SOL     OW36996   1.658   6.457   0.438  0.2872  0.2688  0.2855
11455SOL    HW136997   1.602   6.418   0.371 -1.2668  0.0271  1.6486
11455SOL    HW236998   1.666   6.549   0.413 -0.8140  0.3311  0.0983
11456SOL     OW36999   2.139   5.151   9.774 -0.1764 -0.2035  0.1730
11456SOL    HW137000   2.124   5.225   9.832  0.9230  1.3112 -1.3855
11456SOL    HW237001   2.127   5.186   9.686  0.2843 -1.8952 -0.6082
11457SOL     OW37002   7.554   1.658   3.438 -0.4770  0.0210 -0.3527
11457SOL    HW137003   7.500   1.734   3.460 -0.2570  0.3392 -0.9037
11457SOL    HW237004   7.614   1.689   3.371 -0.7596 -0.7775 -1.0063
11458SOL     OW37005   1.648   0.279   8.005  0.3823  0.6160 -0.2935
11458SOL    HW137006   1.720   0.221   8.031  0.0823 -0.3856 -1.5684
11458SOL    HW237007   1.599   0.295   8.085  0.2997 -1.1635  0.0379
11459SOL     OW37008   2.437   5.348   2.354 -0.6133 -0.3620 -0.4600
11459SOL    HW137009   2.397   5.435   2.350 -0.4015 -0.2445 -0.0882
11459SOL    HW237010   2.463   5.337   2.446 -1.8089 -1.3509 -0.2160
11460SOL     OW37011   3.550   0.887   3.332  0.3906  0.2590  0.9987
11460SOL    HW137012   3.536   0.795   3.353  1.6968 -0.3878 -0.7305
11460SOL    HW237013   3.479   0.910   3.274  3.1848 -1.5996 -3.7386
11461SOL     OW37014   0.104   9.016   6.957 -0.0482  0.2590  0.1553
11461SOL    HW137015   0.133   9.019   6.866 -0.0666  2.4017  0.1586
11461SOL    HW237016   0.181   8.987   7.006 -0.4201 -2.2612 -0.6158
11462SOL     OW37017   2.329   1.460   4.756  0.1199  0.0010  0.3146
11462SOL    HW137018   2.400   1.419   4.804  1.0553 -1.0158 -1.8202
11462SOL    HW237019   2.373   1.515   4.691 -1.0770  0.2791 -0.2825
11463SOL     OW37020   8.502   9.667   7.927 -0.0906  0.2085 -0.0519
11463SOL    HW137021   8.509   9.701   8.017  0.8687 -0.7522  0.2598
11463SOL    HW237022   8.592   9.669   7.894 -0.0521 -1.6806 -0.1377
11464SOL     OW37023   9.534   4.353   9.373 -0.8849  0.1163 -0.7075
11464SOL    HW137024   9.582   4.361   9.291 -0.6485  0.3102 -0.5498
11464SOL    HW237025   9.451   4.312   9.348 -1.5994  1.8749 -1.3387
11465SOL     OW37026   7.504   7.221   7.234  0.7197  0.3852  0.3547
11465SOL    HW137027   7.581   7.193   7.185 -0.5828 -0.5517 -1.2559
11465SOL    HW237028   7.435   7.230   7.168 -0.6421  0.9255  1.7742
11466SOL     OW37029   0.718   2.143   8.482 -0.1632 -0.4224 -0.1676
11466SOL    HW137030   0.698   2.196   8.560 -2.8637 -0.4082 -0.7686
11466SOL    HW237031   0.640   2.150   8.428  0.9950 -1.8043 -2.1428
11467SOL     OW37032   2.349   5.234   6.753 -0.6663  1.0708 -0.0143
11467SOL    HW137033   2.394   5.222   6.837 -1.2347 -1.6626 -0.0083
11467SOL    HW237034   2.270   5.283   6.775  0.2975  2.3995  0.6281
11468SOL     OW37035   5.412   2.888   5.103  0.0663 -0.0343  0.4190
11468SOL    HW137036   5.501   2.878   5.069 -0.4385 -0.0661 -0.9971
11468SOL    HW237037   5.385   2.800   5.126 -0.3235 -0.3546 -1.1577
11469SOL     OW37038   7.928   9.242   4.073 -0.2080 -0.2572 -0.1448
11469SOL    HW137039   7.955   9.333   4.057 -0.2795 -0.1248  0.4616
11469SOL    HW237040   7.874   9.220   3.998 -0.2413  0.2268 -0.2682
11470SOL     OW37041   8.533   1.473   0.667 -0.4377  0.0229 -0.5918
11470SOL    HW137042   8.524   1.567   0.686  1.2647  0.4501 -1.6101
11470SOL    HW237043   8.527   1.431   0.752  0.3028  1.2302  0.0992
11471SOL     OW37044   2.361   6.315   2.479  0.5002  0.5159 -0.3713
11471SOL    HW137045   2.271   6.320   2.513 -0.0772  0.0655 -1.7461
11471SOL    HW237046   2.396   6.234   2.515 -0.1595 -0.0396 -0.9324
11472SOL     OW37047   7.726   4.495   2.604  0.2000  0.0769 -0.5000
11472SOL    HW137048   7.660   4.435   2.639  0.7474 -0.3677 -0.2119
11472SOL    HW237049   7.779   4.440   2.546  0.2274  0.4665 -0.8515
11473SOL     OW37050   5.938   9.660   4.128  0.3060 -0.3415  0.3463
11473SOL    HW137051   6.005   9.723   4.102  2.1504 -2.3978 -0.2457
11473SOL    HW237052   5.948   9.588   4.065 -1.0953 -1.5890  1.4942
11474SOL     OW37053   0.504   7.861   9.422 -0.4678 -0.0746  0.0331
11474SOL    HW137054   0.446   7.894   9.354 -2.5379 -1.1833  1.1622
11474SOL    HW237055   0.517   7.769   9.400 -1.5695 -0.5766  1.3266
11475SOL     OW37056   7.595   3.295   0.198 -0.2582  0.8483  0.8448
11475SOL    HW137057   7.644   3.270   0.120 -1.0925  1.4799  0.1006
11475SOL    HW237058   7.504   3.277   0.176 -0.6110  1.9828  1.2942
11476SOL     OW37059   2.427   2.303   7.852  0.1961 -0.4670 -0.1185
11476SOL    HW137060   2.501   2.357   7.825 -1.5403  1.6154 -1.0973
11476SOL    HW237061   2.351   2.361   7.844 -1.4291 -2.1143  1.9728
11477SOL     OW37062   1.009   9.190   1.209 -0.6634 -0.0788 -0.5938
11477SOL    HW137063   0.978   9.223   1.293 -0.8480 -2.2123  0.2456
11477SOL    HW237064   0.937   9.137   1.176  0.3200 -1.3175 -0.8539
11478SOL     OW37065   0.552   8.423   6.720 -0.1279  0.2604 -0.1834
11478SOL    HW137066   0.464   8.417   6.683  0.7199 -1.4129 -2.0767
11478SOL    HW237067   0.567   8.517   6.731 -1.7229  0.6303 -0.8757
11479SOL     OW37068   9.437   0.277  10.189  0.3066  0.5851 -0.5509
11479SOL    HW137069   9.469   0.337  10.256  0.9833  0.8031 -1.0614
11479SOL    HW237070   9.502   0.207  10.185 -0.6322 -0.3672  0.2560
11480SOL     OW37071   6.025  10.168   9.016  0.8039  0.7608  0.3079
11480SOL    HW137072   5.955  10.187   8.953  0.9072 -2.3147 -0.9011
11480SOL    HW237073   6.105  10.198   8.972  0.6475  0.7098 -0.0127
11481SOL     OW37074  10.166   3.059   2.252  0.5224 -0.3351  0.6872
11481SOL    HW137075  10.203   3.127   2.308  0.1571  0.5858 -0.1433
11481SOL    HW237076  10.085   3.033   2.295 -0.7654  1.7423 -0.2964
11482SOL     OW37077   0.006   0.686   6.294 -0.1351 -0.4728 -0.7696
11482SOL    HW137078   0.009   0.658   6.385 -2.6267 -1.3106 -0.8526
11482SOL    HW237079   0.095   0.677   6.262  1.0453  0.9184  1.8593
11483SOL     OW37080   5.278   4.408   6.214  0.0824 -0.3269 -0.0098
11483SOL    HW137081   5.227   4.457   6.279  0.2138  0.3880 -0.4334
11483SOL    HW237082   5.262   4.316   6.235  1.9230 -0.1580  2.4457
11484SOL     OW37083   5.309   3.133   8.055 -0.4927  0.0883  0.3203
11484SOL    HW137084   5.283   3.117   8.146 -1.9325  1.6363  0.2487
11484SOL    HW237085   5.397   3.170   8.062 -0.2170 -0.6662  1.0028
11485SOL     OW37086   3.887   8.542   9.755  0.4880  0.3111  0.5876
11485SOL    HW137087   3.959   8.598   9.784  0.2668  1.1912 -0.4854
11485SOL    HW237088   3.928   8.459   9.733  0.9368  0.2823  1.4881
11486SOL     OW37089   7.541   4.473   8.488  0.2419  0.2704 -0.0647
11486SOL    HW137090   7.470   4.523   8.528  0.2976  0.9140 -0.7621
11486SOL    HW237091   7.572   4.528   8.416  1.8350  0.2681  0.5845
11487SOL     OW37092   3.410   5.702   0.227 -0.3064 -0.1991  0.1005
11487SOL    HW137093   3.465   5.722   0.302 -1.9938  0.2124  1.2566
11487SOL    HW237094   3.336   5.654   0.263 -1.5993  0.7735 -1.1687
11488SOL     OW37095   6.466   8.981   3.144 -0.5358  0.1431 -0.1286
11488SOL    HW137096   6.443   9.047   3.210 -0.3636  1.7927 -1.6352
11488SOL    HW237097   6.561   8.985   3.138 -0.4709 -0.7503  0.2510
11489SOL     OW37098   2.472   8.537   5.828 -0.1618 -0.2175  0.4477
11489SOL    HW137099   2.491   8.450   5.863 -0.7127 -1.0307 -1.1552
11489SOL    HW237100   2.544   8.554   5.767 -0.0973  0.4314  0.6962
11490SOL     OW37101   9.715   1.430   7.177  0.4096 -0.0967 -0.1781
11490SOL    HW137102   9.686   1.344   7.146  0.2628 -0.2509  0.3788
11490SOL    HW237103   9.684   1.435   7.268  2.1574 -0.2916  0.4664
11491SOL     OW37104   0.568   3.411   8.321 -0.4660 -0.0426  0.8248
11491SOL    HW137105   0.653   3.432   8.283 -0.7509 -0.9189 -0.3514
11491SOL    HW237106   0.552   3.481   8.385  0.1472  1.3255 -0.4782
11492SOL     OW37107   9.280   6.933   5.603 -0.1448 -0.4783  0.2152
11492SOL    HW137108   9.277   6.837   5.600  1.6195 -0.5574 -0.0338
11492SOL    HW237109   9.309   6.959   5.516  0.8966  0.1742  0.7365
11493SOL     OW37110   1.205   6.738   2.323 -0.1082  0.2160  0.1688
11493SOL    HW137111   1.135   6.746   2.387  0.3405 -1.4737  0.9386
11493SOL    HW237112   1.275   6.795   2.355 -0.0584 -0.2757  0.9638
11494SOL     OW37113   7.436   3.161   9.107  0.2393 -0.6339  0.1256
11494SOL    HW137114   7.412   3.231   9.167  1.7001 -0.6144  0.7243
11494SOL    HW237115   7.526   3.180   9.082  0.1956 -1.5442 -0.7989
11495SOL     OW37116   5.751   1.869   7.150 -0.2222 -0.5580  0.6383
11495SOL    HW137117   5.694   1.795   7.134 -0.8186 -0.3072  1.5372
11495SOL    HW237118   5.775   1.901   7.063 -0.6813 -1.2514  0.2566
11496SOL     OW37119   8.421   1.791   9.431 -0.4381 -0.4119 -0.1788
11496SOL    HW137120   8.333   1.778   9.466 -0.9782  0.3423 -1.2199
11496SOL    HW237121   8.464   1.706   9.445 -1.3167 -0.7909  0.3443
11497SOL     OW37122   1.955   8.206   9.990  0.2661 -0.1819  0.0278
11497SOL    HW137123   2.021   8.268  10.023  2.4806 -0.8664 -2.6754
11497SOL    HW237124   1.922   8.247   9.910 -1.5195 -0.5780  0.5236
11498SOL     OW37125   9.379   5.796   6.354  0.3470  0.2591 -0.2364
11498SOL    HW137126   9.433   5.815   6.430  1.4782  0.0043 -0.9546
11498SOL    HW237127   9.299   5.758   6.390 -0.6778  3.3178  1.0692
11499SOL     OW37128   5.548   9.084  10.231 -0.1036  0.0733 -0.2020
11499SOL    HW137129   5.569   9.058  10.142 -1.0228 -0.6295 -0.2309
11499SOL    HW237130   5.632   9.108  10.270  0.1786  1.4475 -1.5689
11500SOL     OW37131   0.511   4.256   8.881  0.0259 -0.6869 -0.0474
11500SOL    HW137132   0.556   4.328   8.924  0.0286 -0.3803 -0.5544
11500SOL    HW237133   0.515   4.277   8.787 -0.7438 -0.8972 -0.1370
11501SOL     OW37134   1.143   3.390   6.223  0.5549 -0.5101  1.1035
11501SOL    HW137135   1.051   3.378   6.245 -0.0757  0.2363 -0.8617
11501SOL    HW237136   1.191   3.350   6.296 -1.2944 -0.1210  2.6178
11502SOL     OW37137   1.272  10.246   0.156 -0.3950  0.2331  0.2304
11502SOL    HW137138   1.338  10.306   0.190  0.9018 -0.9085 -0.1920
11502SOL    HW237139   1.238  10.200   0.233  1.0048 -0.8305  0.2480
11503SOL     OW37140   0.907   1.317   4.584  0.1249  0.0466  0.9890
11503SOL    HW137141   0.944   1.262   4.514  0.2643 -0.1532  1.2181
11503SOL    HW237142   0.880   1.254   4.651 -0.3181  0.2170  0.9711
11504SOL     OW37143   6.885   6.081   6.300 -0.6113 -0.0945 -0.1966
11504SOL    HW137144   6.816   6.019   6.326 -2.1596  1.5909 -0.0361
11504SOL    HW237145   6.966   6.042   6.333 -1.5153 -2.0060 -0.0950
11505SOL     OW37146   6.141   4.428   5.957 -0.4205 -0.1402  0.4585
11505SOL    HW137147   6.157   4.363   6.026 -0.4863 -0.4317  0.2002
11505SOL    HW237148   6.071   4.483   5.992  0.0085  0.1296  0.9044
11506SOL     OW37149   3.219   2.822   0.788 -0.1779 -0.2075  0.1103
11506SOL    HW137150   3.270   2.743   0.767 -1.4759 -0.5991 -1.8920
11506SOL    HW237151   3.193   2.810   0.879 -0.6340 -2.2995 -0.2441
11507SOL     OW37152   6.671   3.773   1.508 -0.0344  0.0865 -0.0674
11507SOL    HW137153   6.600   3.823   1.468  0.1765 -0.7315 -1.5210
11507SOL    HW237154   6.748   3.796   1.457  0.0226 -1.8631 -0.9448
11508SOL     OW37155   5.707   1.508   3.800 -0.1354  0.0826  0.1299
11508SOL    HW137156   5.611   1.504   3.792 -0.2493 -0.1801  1.4038
11508SOL    HW237157   5.739   1.461   3.723 -1.0477 -0.3467 -0.0054
11509SOL     OW37158   7.904   3.473   5.825 -0.1782  0.4506 -0.3371
11509SOL    HW137159   7.882   3.466   5.918  0.0207  0.7217 -0.2696
11509SOL    HW237160   7.956   3.395   5.806 -2.0106 -0.7523 -0.7389
11510SOL     OW37161   9.717   1.262   7.636  0.0432  0.0369 -0.0671
11510SOL    HW137162   9.807   1.253   7.606 -0.6523 -1.4611 -1.8871
11510SOL    HW237163   9.682   1.173   7.632 -1.8161  0.7440 -0.4332
11511SOL     OW37164   2.897   5.650   1.029 -0.2841 -0.0675 -0.4518
11511SOL    HW137165   2.967   5.589   1.054  0.4581  0.8052 -0.3277
11511SOL    HW237166   2.836   5.597   0.979 -0.4650 -1.2728  0.9653
11512SOL     OW37167   4.212   9.221  10.255  0.6609 -0.1769  0.2223
11512SOL    HW137168   4.179   9.305  10.224 -0.4554  0.3059  2.4979
11512SOL    HW237169   4.134   9.168  10.269  1.3101 -1.3508 -0.4732
11513SOL     OW37170   5.769   7.934   6.415 -0.3505  0.2433 -0.1700
11513SOL    HW137171   5.863   7.952   6.424 -0.7023  1.4509  1.5805
11513SOL    HW237172   5.765   7.841   6.391  1.2860  0.1542 -0.2040
11514SOL     OW37173   0.693   8.369   1.596  0.4209  0.2057  0.7530
11514SOL    HW137174   0.688   8.379   1.501  1.6713 -0.5394  0.5775
11514SOL    HW237175   0.603   8.377   1.626 -0.3200 -1.6859 -0.7388
11515SOL     OW37176   8.980   5.529  10.250 -0.4422 -0.7596  0.3374
11515SOL    HW137177   8.953   5.597  10.312  3.0449  0.3510  0.8936
11515SOL    HW237178   9.020   5.461  10.304 -0.2859 -1.3400 -0.4849
11516SOL     OW37179   1.881   0.752   4.702 -0.3303 -0.2972  0.2688
11516SOL    HW137180   1.838   0.772   4.785 -0.5352 -1.6095  0.4924
11516SOL    HW237181   1.866   0.830   4.648 -0.0413  0.6344  1.5122
11517SOL     OW37182   7.807   6.299   7.352 -0.0812  0.2534  0.7873
11517SOL    HW137183   7.757   6.378   7.330 -1.3500 -0.5203  0.7800
11517SOL    HW237184   7.741   6.230   7.357  1.2616 -1.4519 -2.1809
11518SOL     OW37185   4.825   4.485   3.417 -0.2888 -0.4772 -0.4252
11518SOL    HW137186   4.853   4.425   3.486  0.0132  1.3152  1.1153
11518SOL    HW237187   4.829   4.434   3.337  0.2850 -2.3801  0.7512
11519SOL     OW37188   6.153   9.410   4.199 -0.5452 -0.5103 -0.3351
11519SOL    HW137189   6.239   9.437   4.165  0.7397 -1.6067  1.7792
11519SOL    HW237190   6.114   9.491   4.231  0.9363 -0.3084  1.1205
11520SOL     OW37191   7.521   1.228   5.891  0.4664  0.0881  0.0111
11520SOL    HW137192   7.434   1.201   5.864  1.1187 -0.8067 -1.2936
11520SOL    HW237193   7.564   1.146   5.918  0.8036  0.5665  1.0056
11521SOL     OW37194   6.481   8.051   9.064  0.7235 -0.1029  0.1583
11521SOL    HW137195   6.482   8.102   8.984  2.0215  0.1986  0.3395
11521SOL    HW237196   6.428   7.974   9.043  0.0534  0.5455 -0.5959
11522SOL     OW37197   0.915   7.243   8.290 -0.0167  0.2769 -0.0895
11522SOL    HW137198   0.906   7.232   8.195  0.4735  2.0700 -0.3782
11522SOL    HW237199   0.827   7.269   8.319 -0.4386 -1.3077  0.1462
11523SOL     OW37200   3.519   7.239   3.635 -0.2291  0.4754 -0.6425
11523SOL    HW137201   3.510   7.162   3.579 -1.7382 -1.7622  2.4216
11523SOL    HW237202   3.446   7.296   3.609 -0.4167 -0.1136 -1.4506
11524SOL     OW37203   8.120   4.655   7.980  0.1803  0.3688  0.5694
11524SOL    HW137204   8.126   4.732   8.037 -1.2995 -0.0978  1.4133
11524SOL    HW237205   8.049   4.676   7.919 -0.1811 -0.2823  0.7587
11525SOL     OW37206   3.934  10.147   4.090  0.7368  0.2215 -0.3675
11525SOL    HW137207   3.988  10.155   4.168  2.8739 -0.5443 -1.6645
11525SOL    HW237208   3.997  10.145   4.018 -1.1592  1.1103 -2.1397
11526SOL     OW37209   0.063   8.957   5.654 -0.1940  0.4063 -0.0190
11526SOL    HW137210   0.007   9.008   5.596  0.5372 -0.9999 -2.0800
11526SOL    HW237211   0.140   8.937   5.601 -0.4493 -2.8155  0.6199
11527SOL     OW37212   0.512   1.596   5.027 -0.0241 -0.0410  0.1101
11527SOL    HW137213   0.428   1.555   5.006 -0.9716  2.4307 -1.4024
11527SOL    HW237214   0.570   1.569   4.956 -0.0525 -0.3779  0.2154
11528SOL     OW37215   6.076   5.321   1.567  0.2106 -0.1110 -0.3567
11528SOL    HW137216   5.989   5.360   1.575 -0.6844 -1.4552 -2.4624
11528SOL    HW237217   6.106   5.346   1.479  1.4924 -0.5148 -0.0511
11529SOL     OW37218   4.436   2.263   3.403 -0.6621  0.2420 -0.1603
11529SOL    HW137219   4.409   2.225   3.486 -2.0341 -0.6014 -0.9652
11529SOL    HW237220   4.415   2.356   3.411  1.3267  0.6315  1.2502
11530SOL     OW37221   9.247   2.128   4.470  0.3312  0.2977  0.1223
11530SOL    HW137222   9.327   2.151   4.422  0.0833 -0.1640 -0.5203
11530SOL    HW237223   9.182   2.192   4.441  0.2737  0.2338  0.1098
11531SOL     OW37224   6.444   3.196   4.768  0.2126 -0.8386 -0.4929
11531SOL    HW137225   6.381   3.171   4.700  0.1981  2.1677 -1.7374
11531SOL    HW237226   6.526   3.158   4.739 -0.3447 -1.9421 -0.6715
11532SOL     OW37227   8.765   4.743   5.001  0.3774  0.3758 -0.0517
11532SOL    HW137228   8.698   4.812   4.995 -0.7838 -0.8416 -1.8594
11532SOL    HW237229   8.755   4.708   5.090  0.1492  1.6789  0.4619
11533SOL     OW37230   7.131   4.448   0.581  0.2412  0.0402  0.4194
11533SOL    HW137231   7.102   4.383   0.517  0.3283  0.7191 -0.3330
11533SOL    HW237232   7.121   4.532   0.535  0.2396  0.5452  1.3273
11534SOL     OW37233   0.110   8.700   2.716  0.0947  0.2932 -0.1835
11534SOL    HW137234   0.171   8.708   2.643  0.0536  0.2152 -0.2255
11534SOL    HW237235   0.033   8.658   2.679  1.4108 -3.1658  0.6786
11535SOL     OW37236   4.682   9.889   3.932  0.4299 -0.2141  0.2677
11535SOL    HW137237   4.690   9.971   3.883 -0.6710  0.3190  0.9453
11535SOL    HW237238   4.771   9.856   3.938  0.8656  0.8366 -0.1742
11536SOL     OW37239   6.137   7.953   5.764 -0.4998 -0.5435 -0.3343
11536SOL    HW137240   6.133   7.859   5.781 -0.3323 -0.2759  1.3449
11536SOL    HW237241   6.105   7.994   5.844  0.4919  0.8502 -0.6070
11537SOL     OW37242   1.751   2.899   8.793 -0.6032  0.5109  0.0163
11537SOL    HW137243   1.817   2.942   8.847 -0.9151 -0.4938  1.2534
11537SOL    HW237244   1.732   2.962   8.724  1.4060  0.9410 -0.2047
11538SOL     OW37245   2.565   3.863   9.611  0.1504  0.6864 -0.6488
11538SOL    HW137246   2.553   3.958   9.611  0.5371  0.7588  0.6453
11538SOL    HW237247   2.520   3.834   9.690  1.0334 -0.0593 -0.4020
11539SOL     OW37248   0.693   6.169   7.656 -0.4370  0.3304 -0.6649
11539SOL    HW137249   0.702   6.254   7.613  1.5470  0.5640  0.1416
11539SOL    HW237250   0.729   6.106   7.593 -0.1153  0.3253 -0.4753
11540SOL     OW37251   8.392   6.139   3.427  0.3309  0.2587  0.1242
11540SOL    HW137252   8.396   6.072   3.359  1.5240  0.2257  0.2091
11540SOL    HW237253   8.300   6.142   3.452  0.2930 -1.5477  0.3303
11541SOL     OW37254   2.665   9.058   5.017  0.2120  0.1367  0.0797
11541SOL    HW137255   2.658   9.153   5.017  1.6455  0.2692 -0.1560
11541SOL    HW237256   2.696   9.036   4.930 -0.1165 -0.5581  0.1287
11542SOL     OW37257   1.476   9.763   9.817 -0.2095 -0.1169  0.0061
11542SOL    HW137258   1.403   9.721   9.862 -1.3840  1.7134 -0.1053
11542SOL    HW237259   1.452   9.759   9.724 -0.3213  0.7329 -0.0092
11543SOL     OW37260   1.636   3.099   9.853 -0.7495  0.4252 -0.2408
11543SOL    HW137261   1.601   3.179   9.814 -0.1313 -0.1124 -1.9963
11543SOL    HW237262   1.581   3.029   9.818  1.7947 -0.4271 -2.9704
11544SOL     OW37263   7.374   9.072   0.685  0.4166  0.3278  0.8960
11544SOL    HW137264   7.285   9.106   0.693  0.7177  1.0407  1.2445
11544SOL    HW237265   7.367   9.004   0.617 -0.7083 -0.7304  2.0037
11545SOL     OW37266   2.998   2.745  10.254  0.1726  0.6248 -0.3815
11545SOL    HW137267   2.980   2.664  10.303  0.2848  1.5222  1.2324
11545SOL    HW237268   2.984   2.721  10.163  0.9478 -1.4366 -0.0378
11546SOL     OW37269   1.185   2.489   0.972 -0.8720  0.1191  0.9782
11546SOL    HW137270   1.255   2.459   1.029 -0.1658 -0.0360  0.0436
11546SOL    HW237271   1.163   2.413   0.917  0.6153  1.0881 -1.0879
11547SOL     OW37272   0.324   4.282   7.726  0.1762 -0.1617  0.6471
11547SOL    HW137273   0.354   4.243   7.808  0.9027  0.6007  0.7530
11547SOL    HW237274   0.285   4.366   7.752  0.6037  0.1848  0.1913
11548SOL     OW37275   1.645   9.114   6.283 -0.2519  0.0312  0.1305
11548SOL    HW137276   1.584   9.076   6.346 -0.8565 -1.4773 -1.3089
11548SOL    HW237277   1.731   9.082   6.311 -0.4444 -0.1229  0.5501
11549SOL     OW37278   7.037   3.429   6.386 -0.5504  0.7689  0.4220
11549SOL    HW137279   7.111   3.391   6.338 -1.2980 -0.1438 -0.0375
11549SOL    HW237280   7.002   3.496   6.327 -2.0820 -1.0240 -0.7959
11550SOL     OW37281   3.100   7.515   1.661  0.3330 -0.3014  0.3758
11550SOL    HW137282   3.030   7.479   1.717 -0.1329  1.4676  0.9794
11550SOL    HW237283   3.122   7.442   1.603 -0.5247 -1.5933  1.5662
11551SOL     OW37284   4.160   2.598   1.332  0.0699  1.1304  0.0993
11551SOL    HW137285   4.121   2.611   1.418  1.1259 -0.7332  0.8996
11551SOL    HW237286   4.231   2.663   1.328  1.7561 -0.5096  1.7873
11552SOL     OW37287   5.520  10.347   6.750 -0.1549 -0.2163  0.5835
11552SOL    HW137288   5.518  10.305   6.836 -0.5951 -1.0466  0.1686
11552SOL    HW237289   5.592  10.303   6.704  0.7886  0.9522  0.8755
11553SOL     OW37290  10.300   7.502   7.137  0.3074  0.0212  0.4528
11553SOL    HW137291  10.340   7.453   7.066 -0.8206 -0.8131  0.3616
11553SOL    HW237292  10.319   7.451   7.215  1.1429  0.6907  0.6987
11554SOL     OW37293   0.033   7.787   8.239 -0.0980  0.0228 -0.3146
11554SOL    HW137294   0.007   7.857   8.298 -0.5358  0.5229 -1.0771
11554SOL    HW237295   0.122   7.811   8.212  0.4210 -0.6400  0.7579
11555SOL     OW37296   8.115   9.069   4.155 -0.3160 -0.5818  0.2068
11555SOL    HW137297   8.118   9.010   4.079  1.7143 -0.8773  0.4416
11555SOL    HW237298   8.045   9.131   4.135 -0.2571 -1.0465 -1.6123
11556SOL     OW37299   4.334   3.842   7.012  0.1388 -0.6726  0.1342
11556SOL    HW137300   4.302   3.780   6.946  0.4123 -0.5295 -0.1323
11556SOL    HW237301   4.396   3.792   7.065  0.3481 -0.6282 -0.0716
11557SOL     OW37302   8.443   4.375   8.946  0.3460 -0.4354  0.2151
11557SOL    HW137303   8.433   4.455   8.999 -1.1610 -0.0356 -0.6204
11557SOL    HW237304   8.467   4.406   8.859  0.0247 -0.8980 -0.0460
11558SOL     OW37305   6.920   9.230   8.330 -0.1071 -0.4231  0.2133
11558SOL    HW137306   6.882   9.178   8.401 -0.0109 -0.7837  0.0057
11558SOL    HW237307   6.909   9.321   8.357 -0.8039 -0.5344  0.3177
11559SOL     OW37308   4.051  10.091   0.642  0.2871 -0.1896 -0.3906
11559SOL    HW137309   4.136  10.096   0.597  0.7855  1.2123  0.6536
11559SOL    HW237310   3.987  10.104   0.573  0.9978  0.7215 -0.8977
11560SOL     OW37311   0.653   3.791   3.800  0.1218 -0.3728 -0.3094
11560SOL    HW137312   0.735   3.840   3.797  0.3214 -0.6629  0.2829
11560SOL    HW237313   0.605   3.819   3.722 -0.1767  1.4745  0.4987
11561SOL     OW37314   9.826   0.391   5.560 -0.6938  0.4216  0.6091
11561SOL    HW137315   9.904   0.394   5.616  0.3020 -0.0504 -0.6907
11561SOL    HW237316   9.806   0.298   5.553 -1.2075  0.5231  0.6918
11562SOL     OW37317   3.378   1.022  10.068  0.1305 -0.7808  0.3113
11562SOL    HW137318   3.328   0.999   9.990  1.0845 -0.1437 -0.5035
11562SOL    HW237319   3.368   0.946  10.126 -3.1385 -0.0552  0.9043
11563SOL     OW37320   6.535   5.624   2.111 -0.0727  0.0671  0.4927
11563SOL    HW137321   6.474   5.650   2.042  0.3355  0.4363  0.2673
11563SOL    HW237322   6.509   5.535   2.134 -1.4581  0.6166  1.2215
11564SOL     OW37323   9.753   2.136   1.320 -0.2467  0.0576 -0.3459
11564SOL    HW137324   9.688   2.171   1.259  1.3911  0.8165 -1.7203
11564SOL    HW237325   9.836   2.175   1.293  1.0721 -2.0331  0.3925
11565SOL     OW37326   7.789   7.968   4.662 -0.3476 -0.3441 -0.8206
11565SOL    HW137327   7.711   7.956   4.716 -1.3063  0.7879 -1.8974
11565SOL    HW237328   7.839   8.036   4.708 -0.1928 -0.7591 -0.3611
11566SOL     OW37329   6.176   8.810   7.234  0.1276  0.7591  0.3206
11566SOL    HW137330   6.158   8.747   7.165  0.6251  2.1902 -1.1597
11566SOL    HW237331   6.270   8.804   7.249  0.2982  1.6376 -0.3411
11567SOL     OW37332   5.169   3.849   7.173  0.1262 -0.4582 -0.2364
11567SOL    HW137333   5.129   3.897   7.100  1.1707  0.4255 -0.2543
11567SOL    HW237334   5.259   3.882   7.177  0.5981 -1.7490  0.3636
11568SOL     OW37335   7.015   3.022   8.564  0.5979 -0.1175 -0.5207
11568SOL    HW137336   7.074   2.998   8.635  0.2555 -1.1519 -0.5723
11568SOL    HW237337   7.073   3.038   8.489  0.8015 -1.4759 -0.6659
11569SOL     OW37338   7.564   4.876   6.955 -0.1576 -0.0658 -0.5793
11569SOL    HW137339   7.620   4.925   7.016 -0.1791  0.7613 -1.1955
11569SOL    HW237340   7.478   4.918   6.964 -0.4920 -0.8197 -0.2087
11570SOL     OW37341   0.613   5.915   0.325  0.4337 -0.5371  0.3809
11570SOL    HW137342   0.546   5.974   0.290 -1.5368 -2.2333  1.0931
11570SOL    HW237343   0.692   5.967   0.327 -0.6277  1.2841 -1.4176
11571SOL     OW37344   2.203   8.986   6.240 -0.0457  0.0883 -0.0232
11571SOL    HW137345   2.225   9.035   6.320  1.7144 -0.0027 -0.3991
11571SOL    HW237346   2.210   9.050   6.170  1.9804 -0.5679 -0.4840
11572SOL     OW37347   2.015   2.543   5.410 -0.2734 -0.3790 -0.0504
11572SOL    HW137348   1.964   2.624   5.401  0.0982 -0.0492  0.7814
11572SOL    HW237349   1.981   2.486   5.341 -1.5587 -0.0552  0.2963
11573SOL     OW37350   9.250   5.559   4.807 -0.1219 -0.2074  0.0374
11573SOL    HW137351   9.244   5.642   4.759  1.2570  0.7596  1.4361
11573SOL    HW237352   9.238   5.584   4.899 -2.1297 -1.9226  0.3417
11574SOL     OW37353   7.651   6.955   7.855 -0.0969 -0.2003 -0.1410
11574SOL    HW137354   7.639   6.967   7.761  1.0390 -0.0432 -0.2788
11574SOL    HW237355   7.743   6.932   7.865  0.0290  0.6927  1.0144
11575SOL     OW37356  10.265   2.301   4.337  0.3687  0.2137 -0.2793
11575SOL    HW137357  10.213   2.365   4.287 -0.2723 -1.1227 -1.4083
11575SOL    HW237358  10.353   2.337   4.338  0.4945  0.1525 -2.7502
11576SOL     OW37359   7.524   6.575   2.924 -0.3731 -0.3597 -0.0244
11576SOL    HW137360   7.497   6.503   2.867 -0.7667 -0.5565  0.4051
11576SOL    HW237361   7.474   6.650   2.893  0.3924 -0.1497 -0.7812
11577SOL     OW37362   4.842   9.893   1.954  0.7608  0.3316 -0.5169
11577SOL    HW137363   4.822   9.938   2.036 -0.5444 -0.8301 -0.1655
11577SOL    HW237364   4.779   9.927   1.891 -1.4983 -2.1962  0.2022
11578SOL     OW37365  10.334   0.293   3.701  0.0904  0.3179  0.1056
11578SOL    HW137366  10.244   0.268   3.723  0.4544  0.6564  2.1898
11578SOL    HW237367  10.328   0.329   3.612 -1.6422 -0.5997 -0.1882
11579SOL     OW37368   5.880   5.414   1.898 -0.0952 -0.4540 -0.2867
11579SOL    HW137369   5.830   5.337   1.923 -2.8441  1.0861 -0.6271
11579SOL    HW237370   5.866   5.477   1.969  0.6210  0.3412 -0.8180
11580SOL     OW37371   6.728   6.797   9.406  0.0299  0.1025  0.3745
11580SOL    HW137372   6.787   6.728   9.375 -0.0279 -0.0155  0.5249
11580SOL    HW237373   6.647   6.751   9.426 -0.2215  0.3144 -0.1416
11581SOL     OW37374   0.041   3.830   7.529  0.6349  0.0310  0.0245
11581SOL    HW137375   0.116   3.786   7.487 -0.6758 -1.5537 -0.8175
11581SOL    HW237376   0.043   3.799   7.619  1.0756  0.0944  0.0379
11582SOL     OW37377   3.509   3.446   7.756  0.0257  0.0292 -0.5008
11582SOL    HW137378   3.549   3.532   7.741  1.2699 -0.5852 -0.8125
11582SOL    HW237379   3.453   3.459   7.833 -1.8571  1.7591 -2.0264
11583SOL     OW37380   2.792   0.644   0.019 -0.0143  0.5171 -0.3370
11583SOL    HW137381   2.807   0.595   0.100 -0.0438  0.5952 -0.2843
11583SOL    HW237382   2.869   0.625  -0.035  0.0484  0.5369 -0.2552
11584SOL     OW37383   0.833   0.073   5.936  0.0138 -0.2419  0.2064
11584SOL    HW137384   0.826   0.127   5.857 -0.0394 -0.4893  0.0410
11584SOL    HW237385   0.745   0.075   5.974  0.0218 -0.1779  0.2207
11585SOL     OW37386   9.116   2.682   5.515 -0.4409  0.7651  0.0407
11585SOL    HW137387   9.155   2.756   5.468  0.6045  1.3568  1.7668
11585SOL    HW237388   9.127   2.608   5.455  2.9457  1.0033  0.1905
11586SOL     OW37389   4.763   8.069   1.563  0.2521  0.4097  0.6380
11586SOL    HW137390   4.686   8.099   1.611  1.3406  0.3563  2.5083
11586SOL    HW237391   4.831   8.058   1.630  1.4467 -1.0594 -0.7140
11587SOL     OW37392   3.163   8.445   2.574  0.4215  0.1666  0.3156
11587SOL    HW137393   3.126   8.378   2.631  0.8768 -1.4051 -1.1684
11587SOL    HW237394   3.105   8.447   2.498  1.3331  0.2616 -0.3984
11588SOL     OW37395   8.448   0.741   7.999  0.3620  0.2406 -0.3387
11588SOL    HW137396   8.500   0.820   7.983 -0.1501  0.7492  0.4527
11588SOL    HW237397   8.495   0.696   8.069  0.7287 -0.2448 -0.8817
11589SOL     OW37398   4.515   1.194   6.627 -0.0931  0.1733  0.0035
11589SOL    HW137399   4.522   1.190   6.531 -1.8508  0.3237 -0.1641
11589SOL    HW237400   4.430   1.236   6.643  0.0331 -0.1401  1.6333
11590SOL     OW37401   7.682   4.711   1.509 -0.1401 -0.5972  0.2779
11590SOL    HW137402   7.692   4.620   1.482  0.5837 -0.3706 -0.2393
11590SOL    HW237403   7.723   4.715   1.595  1.3178 -0.4160 -0.3981
11591SOL     OW37404   1.615   8.949   9.687  0.0655  0.3381  0.3616
11591SOL    HW137405   1.605   8.903   9.603 -1.4768 -0.2268  0.8110
11591SOL    HW237406   1.660   9.030   9.665  3.3107 -1.5049 -0.4019
11592SOL     OW37407   1.095   0.770   7.348 -0.7954  0.4226 -0.1973
11592SOL    HW137408   1.157   0.698   7.357 -0.2624  0.9763  0.6584
11592SOL    HW237409   1.023   0.733   7.297  0.2856 -0.1959 -1.3477
11593SOL     OW37410   6.649   8.780   8.691  0.0080  0.3101  0.2343
11593SOL    HW137411   6.737   8.753   8.716 -0.2511 -1.9696 -1.0574
11593SOL    HW237412   6.609   8.813   8.772  1.7976  0.8014  0.9633
11594SOL     OW37413   5.597   9.462   7.244 -0.4113 -0.4950 -0.1850
11594SOL    HW137414   5.518   9.462   7.297 -1.3846 -1.5678 -1.5486
11594SOL    HW237415   5.591   9.382   7.191 -0.3447  1.2412 -3.0535
11595SOL     OW37416   4.246   4.167   9.956 -0.8164 -0.3266 -0.0407
11595SOL    HW137417   4.304   4.210  10.019  0.2464  3.4860 -3.1647
11595SOL    HW237418   4.306   4.119   9.898 -1.0024  1.1571 -1.5292
11596SOL     OW37419   0.716   6.674   0.162  0.1596  0.0352  0.2207
11596SOL    HW137420   0.634   6.716   0.136  1.6978  2.1914 -1.5649
11596SOL    HW237421   0.756   6.735   0.224  0.6481 -0.7385  0.6868
11597SOL     OW37422   5.214   4.389   2.477  0.0053  0.4057 -0.3193
11597SOL    HW137423   5.278   4.362   2.411 -0.6658  0.9751 -1.2318
11597SOL    HW237424   5.266   4.412   2.554  0.8180 -0.0648 -0.7106
11598SOL     OW37425   8.600   3.112   7.304 -0.7197 -0.0889 -0.2643
11598SOL    HW137426   8.637   3.198   7.324 -0.3134 -0.2309 -0.3914
11598SOL    HW237427   8.506   3.128   7.294 -0.6756  0.3019 -0.0757
11599SOL     OW37428   5.867   1.387   2.798 -0.4827 -0.5388 -0.6880
11599SOL    HW137429   5.926   1.335   2.853 -0.1932  2.5439  2.1766
11599SOL    HW237430   5.779   1.363   2.828 -0.4659 -0.8032 -0.8365
11600SOL     OW37431   5.963   9.119   1.731 -0.1590 -0.2326 -0.1011
11600SOL    HW137432   6.028   9.149   1.794  0.5601 -1.1031 -0.4091
11600SOL    HW237433   5.886   9.175   1.747  0.3328  0.1809  0.8931
11601SOL     OW37434   7.947   7.728   2.959  0.0834  0.2240  0.5588
11601SOL    HW137435   8.011   7.700   3.024  2.0833  0.0494 -1.3539
11601SOL    HW237436   7.904   7.804   2.998  1.6103  0.4715  1.8499
11602SOL     OW37437   5.860   3.636   0.840  0.2809 -0.2060 -0.0747
11602SOL    HW137438   5.784   3.579   0.826 -1.6069  2.4669 -1.6093
11602SOL    HW237439   5.910   3.629   0.758  1.0359 -0.9809  0.4374
11603SOL     OW37440   3.563   9.853   6.718 -0.4795  0.4201  0.1244
11603SOL    HW137441   3.508   9.808   6.654  0.7910 -0.3649 -0.4535
11603SOL    HW237442   3.529   9.824   6.803  1.2541 -3.0310 -0.1928
11604SOL     OW37443   0.372   6.287   6.334  0.0982 -0.3374  0.9159
11604SOL    HW137444   0.289   6.302   6.379 -0.4279  0.1242 -0.1811
11604SOL    HW237445   0.435   6.273   6.405 -0.8567 -0.4447  1.7679
11605SOL     OW37446   3.377   9.148   9.083  0.2519 -0.6691 -0.4906
11605SOL    HW137447   3.416   9.199   9.155  0.6910  1.2399 -1.9928
11605SOL    HW237448   3.289   9.126   9.115  0.5108 -0.0670  0.7240
11606SOL     OW37449   4.117   4.205   7.596  0.3535 -0.5938 -0.4506
11606SOL    HW137450   4.189   4.175   7.652  1.6164 -0.4358 -1.9052
11606SOL    HW237451   4.091   4.128   7.546 -0.1990 -0.5476 -0.2359
11607SOL     OW37452   4.436   1.252   1.288 -0.1395 -0.0922  0.5990
11607SOL    HW137453   4.391   1.330   1.318 -0.1014  0.4260 -0.6387
11607SOL    HW237454   4.508   1.240   1.350 -0.1798  0.8187  0.8301
11608SOL     OW37455   5.806   4.798   9.190 -0.0247  0.1218 -0.1601
11608SOL    HW137456   5.844   4.809   9.103 -0.3142 -1.4464 -0.5266
11608SOL    HW237457   5.862   4.733   9.232  0.0473  0.7900  0.7846
11609SOL     OW37458   8.054   5.040   2.779 -0.0469  0.0715  0.2070
11609SOL    HW137459   7.976   5.008   2.734 -0.9535  0.5209  1.3869
11609SOL    HW237460   8.086   5.110   2.723  1.4512 -2.1709 -1.9519
11610SOL     OW37461   2.354   1.974   0.470 -0.6522 -0.4702 -0.4269
11610SOL    HW137462   2.292   2.043   0.445 -0.2343  0.0527 -0.0359
11610SOL    HW237463   2.344   1.966   0.565 -0.9042 -1.1511 -0.5090
11611SOL     OW37464   6.099   8.383   0.650  0.0202 -0.0528  0.0436
11611SOL    HW137465   6.032   8.324   0.616  0.7055 -0.5239 -0.5110
11611SOL    HW237466   6.168   8.383   0.583 -0.0518  1.5416 -0.0758
11612SOL     OW37467   1.939   5.936   7.227 -0.1421 -0.0181  0.3672
11612SOL    HW137468   1.916   6.007   7.167  1.6619  0.2974 -0.0174
11612SOL    HW237469   2.015   5.894   7.186 -0.5708 -1.5468  1.0875
11613SOL     OW37470   4.463   7.326   2.072  0.2140  0.2272 -0.5036
11613SOL    HW137471   4.476   7.266   2.145 -0.3694 -0.0593 -0.6304
11613SOL    HW237472   4.384   7.375   2.094 -0.0938 -0.0167 -1.0390
11614SOL     OW37473   6.742   3.350   5.179 -0.4792 -0.3461 -0.1210
11614SOL    HW137474   6.780   3.428   5.140  0.2456 -0.1803  0.8591
11614SOL    HW237475   6.764   3.279   5.118 -0.8233  0.1550 -0.8298
11615SOL     OW37476   4.295   3.169   1.064 -0.2620 -0.5044  0.1086
11615SOL    HW137477   4.254   3.251   1.092  0.3707  0.0104 -0.4394
11615SOL    HW237478   4.383   3.195   1.035 -0.0885 -1.3631 -0.1513
11616SOL     OW37479   2.515   3.567   5.094 -0.7819  0.2202  0.5738
11616SOL    HW137480   2.445   3.535   5.151 -0.9276 -0.0462  0.2534
11616SOL    HW237481   2.469   3.593   5.013 -0.3072 -2.0572 -0.5224
11617SOL     OW37482   0.056   3.615   4.549  0.2701 -0.8223  1.2254
11617SOL    HW137483   0.035   3.558   4.476  0.7523 -0.8677  1.1177
11617SOL    HW237484  -0.019   3.675   4.556  1.1032  0.5239 -0.6308
11618SOL     OW37485   5.815   5.429   8.187  0.0722  0.7229  0.3114
11618SOL    HW137486   5.732   5.394   8.220 -0.1781  1.0549  0.0474
11618SOL    HW237487   5.881   5.393   8.245 -0.4277  1.9440  1.6965
11619SOL     OW37488   7.288   6.276   8.063  0.0252 -0.1097 -0.4021
11619SOL    HW137489   7.309   6.359   8.021  1.8732 -1.6316 -2.7740
11619SOL    HW237490   7.207   6.247   8.020 -0.4346  0.2617  0.1889
11620SOL     OW37491   5.013   2.269   9.852 -0.0110  0.1628  0.0913
11620SOL    HW137492   4.946   2.207   9.881  0.5542  0.0502  1.2010
11620SOL    HW237493   5.086   2.213   9.823  0.5576  0.2714  1.2320
11621SOL     OW37494   5.641   0.958   6.352 -0.3798  0.0012  0.5065
11621SOL    HW137495   5.653   1.029   6.289  0.3741  0.5072  1.1880
11621SOL    HW237496   5.671   0.995   6.435 -0.7119 -0.8684  1.0270
11622SOL     OW37497   2.687   0.082   8.379  0.0455 -0.5644 -0.4603
11622SOL    HW137498   2.701  -0.010   8.401 -0.9891 -0.9128 -1.1675
11622SOL    HW237499   2.620   0.080   8.310 -0.4415  0.7486 -0.0480
11623SOL     OW37500   4.640   6.226   2.215  0.3921  0.3387  0.5201
11623SOL    HW137501   4.670   6.159   2.277  0.4485  0.3241  0.4763
11623SOL    HW237502   4.589   6.287   2.269  1.9769  1.3534  0.9492
11624SOL     OW37503   6.236   6.494   8.280 -0.9906  0.2022 -0.2974
11624SOL    HW137504   6.267   6.583   8.261  0.5346  0.0145  1.0606
11624SOL    HW237505   6.284   6.438   8.219 -1.5009  0.2474 -0.7451
11625SOL     OW37506   8.523   8.389   8.973 -0.2455  0.0993  0.1237
11625SOL    HW137507   8.508   8.353   8.886  0.8877 -0.9991  0.3661
11625SOL    HW237508   8.616   8.377   8.989 -0.0795  1.9203  0.7889
11626SOL     OW37509   6.550   6.551   0.492 -0.4583  0.1090 -0.3854
11626SOL    HW137510   6.633   6.527   0.534 -1.1512 -0.8254  0.5035
11626SOL    HW237511   6.550   6.499   0.411 -0.1583  0.1440 -0.4113
11627SOL     OW37512   1.025   2.354   4.994 -0.1049 -0.3033  0.4050
11627SOL    HW137513   1.115   2.383   5.013 -0.0273 -0.6294  0.5245
11627SOL    HW237514   0.982   2.350   5.079 -0.5697  0.9596  0.2514
11628SOL     OW37515   8.052   2.768   5.133 -0.0080 -0.3237 -0.0876
11628SOL    HW137516   7.964   2.798   5.108  0.1940 -0.1548 -0.5997
11628SOL    HW237517   8.112   2.826   5.085  0.3965  0.2859  1.1073
11629SOL     OW37518   3.930   2.654   0.703 -0.2654 -0.4977  0.1346
11629SOL    HW137519   3.851   2.692   0.666 -0.2467 -2.1448 -1.7333
11629SOL    HW237520   3.899   2.593   0.770 -0.6198 -1.3241 -0.7626
11630SOL     OW37521   5.244   8.077   9.317  0.6347  0.5609  0.3580
11630SOL    HW137522   5.310   8.057   9.383  0.4026 -0.4651  0.3019
11630SOL    HW237523   5.289   8.064   9.233  0.6321  0.8130  0.3167
11631SOL     OW37524   7.471   3.550   8.185 -0.4060 -0.1492 -0.5471
11631SOL    HW137525   7.528   3.614   8.142  1.8090 -1.3197  0.4972
11631SOL    HW237526   7.465   3.478   8.123  0.4108 -0.6179 -0.0849
11632SOL     OW37527  10.300   9.096   1.514 -0.0586  0.6773  0.0194
11632SOL    HW137528  10.317   9.001   1.511  1.6015  0.8479  2.1546
11632SOL    HW237529  10.387   9.136   1.504 -0.7229  1.9888 -0.6792
11633SOL     OW37530   7.042   2.198   0.743  0.0333  0.3392  0.1834
11633SOL    HW137531   7.108   2.139   0.707  0.2589  0.7616 -0.1037
11633SOL    HW237532   7.054   2.280   0.694 -0.4331  0.5454  0.4109
11634SOL     OW37533   0.911  10.126   8.148 -0.2758 -0.1976  0.2239
11634SOL    HW137534   0.865  10.046   8.120 -0.5743 -0.4679  1.4192
11634SOL    HW237535   0.942  10.165   8.067 -1.5823 -0.6470 -0.5343
11635SOL     OW37536   9.149   5.848   9.630 -0.5236  0.1846  0.9744
11635SOL    HW137537   9.122   5.763   9.665  1.6465 -1.1727 -0.4155
11635SOL    HW237538   9.164   5.902   9.707 -1.5912 -0.7756  1.8968
11636SOL     OW37539   6.760   5.243   6.500  0.5038 -0.2111  0.0729
11636SOL    HW137540   6.843   5.230   6.454 -0.4875 -2.9586 -1.1491
11636SOL    HW237541   6.763   5.181   6.573 -0.3951 -0.2220  0.1127
11637SOL     OW37542   7.615   6.942   7.597 -0.2897  0.3410 -0.2492
11637SOL    HW137543   7.539   6.980   7.554  0.3522  0.4524 -1.3262
11637SOL    HW237544   7.649   6.879   7.534  2.3703  2.5404 -1.2500
11638SOL     OW37545   8.472   2.843   1.473 -0.9013  0.0423  0.1864
11638SOL    HW137546   8.404   2.828   1.407 -0.0232 -0.4043 -0.6354
11638SOL    HW237547   8.473   2.762   1.525  0.4366 -0.8595 -1.1496
11639SOL     OW37548   4.595   0.296   5.005 -0.5793 -0.0882 -0.0810
11639SOL    HW137549   4.678   0.275   5.048 -0.0849  0.8072 -0.5748
11639SOL    HW237550   4.550   0.212   4.997 -0.0331 -0.4851  0.8229
11640SOL     OW37551   2.003   5.142   1.782  0.1787  0.4588  0.9305
11640SOL    HW137552   2.031   5.216   1.729  0.3535 -1.5403 -2.0440
11640SOL    HW237553   2.081   5.117   1.832  0.8876  0.7544 -0.0034
11641SOL     OW37554   1.986   4.577   9.927  0.0998 -0.2757  0.4708
11641SOL    HW137555   1.925   4.515   9.888  1.0221 -1.2591  0.5468
11641SOL    HW237556   1.946   4.602  10.010 -0.8897  0.2419 -0.1450
11642SOL     OW37557   7.652   2.723   6.821 -0.4588 -0.1677  0.4648
11642SOL    HW137558   7.734   2.673   6.822  0.0173  0.6036  1.2956
11642SOL    HW237559   7.591   2.669   6.872  0.0146  0.0001  1.2379
11643SOL     OW37560   8.206   9.427   6.178  0.2589 -0.1765 -0.0537
11643SOL    HW137561   8.198   9.477   6.097  4.2794 -0.1394 -0.6332
11643SOL    HW237562   8.256   9.350   6.154  1.5041 -0.2157  2.3514
11644SOL     OW37563   8.160   5.716   8.397  0.0805 -0.3864 -0.0398
11644SOL    HW137564   8.082   5.749   8.352 -0.3028 -1.3220 -0.0691
11644SOL    HW237565   8.138   5.627   8.424  1.0161 -0.5464  0.2594
11645SOL     OW37566   9.928   5.424   6.107  0.3416 -0.3976  0.0390
11645SOL    HW137567   9.885   5.339   6.101  1.8788 -1.3154  1.2769
11645SOL    HW237568  10.016   5.409   6.072 -0.2798  1.4649 -2.5956
11646SOL     OW37569   5.641   3.192   8.078  0.0422  0.9648 -0.4020
11646SOL    HW137570   5.698   3.244   8.135  1.5871  0.0652 -1.0555
11646SOL    HW237571   5.642   3.105   8.116  0.3119  0.5900 -1.2363
11647SOL     OW37572   8.163   7.267   6.112  0.3671  0.2932  0.0907
11647SOL    HW137573   8.072   7.237   6.117  0.2259  0.6424 -0.2866
11647SOL    HW237574   8.156   7.360   6.092  0.7866 -0.0729 -2.1189
11648SOL     OW37575   6.048  10.195   4.072 -0.2146 -0.2318 -0.0761
11648SOL    HW137576   6.005  10.257   4.013 -2.2908 -0.6947  0.8529
11648SOL    HW237577   5.984  10.180   4.142  0.9664 -1.9855  0.7061
11649SOL     OW37578   7.444   2.699   9.272  0.2498 -0.9989  0.4546
11649SOL    HW137579   7.394   2.711   9.353 -0.0852 -2.0146  0.4099
11649SOL    HW237580   7.408   2.764   9.212  0.2499 -0.4808  0.9961
11650SOL     OW37581   7.442   1.987   0.145 -0.0920 -0.0575 -0.3004
11650SOL    HW137582   7.521   1.932   0.142 -1.0983 -1.5125 -1.4406
11650SOL    HW237583   7.454   2.050   0.075  0.8994  1.0195  0.7747
11651SOL     OW37584   4.188   9.291   9.468  0.5724 -0.1112 -0.0795
11651SOL    HW137585   4.262   9.231   9.460 -0.4013 -1.1927 -1.4174
11651SOL    HW237586   4.193   9.323   9.558  3.1103  0.4748 -0.3579
11652SOL     OW37587   6.429   7.260   3.981  0.5869  0.7049 -0.4191
11652SOL    HW137588   6.490   7.305   3.923 -1.1053  0.5629 -2.4502
11652SOL    HW237589   6.345   7.304   3.966 -0.3235 -0.6750  0.3814
11653SOL     OW37590   4.127   4.732   7.541  0.2547 -0.0594  0.0146
11653SOL    HW137591   4.113   4.637   7.534 -2.5666  0.3263 -0.7221
11653SOL    HW237592   4.163   4.745   7.628  0.1325 -1.7708  0.3522
11654SOL     OW37593   9.025   9.329   6.173  0.0583  0.1400 -0.7968
11654SOL    HW137594   9.009   9.386   6.247  0.5650  0.1297 -0.6760
11654SOL    HW237595   9.093   9.268   6.203 -0.1051 -0.1968 -1.0911
11655SOL     OW37596   3.291   6.935   2.065  0.4309 -0.0406  0.7634
11655SOL    HW137597   3.338   7.018   2.054 -0.6957  0.4891 -0.3218
11655SOL    HW237598   3.303   6.890   1.981  0.1416 -0.4938  0.9650
11656SOL     OW37599   7.811   1.716   3.060 -0.1421 -0.0971 -0.9514
11656SOL    HW137600   7.716   1.730   3.057  0.1247  3.1552  1.0578
11656SOL    HW237601   7.844   1.763   2.984  0.0536  2.3687  0.5624
11657SOL     OW37602   5.130   1.642   0.743 -0.1617  0.0188  0.4587
11657SOL    HW137603   5.133   1.618   0.650 -0.4808  1.0642  0.1695
11657SOL    HW237604   5.157   1.562   0.789  0.2870 -0.4270 -0.5429
11658SOL     OW37605   3.599   5.180   2.753  0.0599  0.1155  0.3150
11658SOL    HW137606   3.657   5.179   2.829  1.4492  0.7520 -0.6821
11658SOL    HW237607   3.517   5.218   2.785 -0.9254 -3.3326  2.4553
11659SOL     OW37608   6.683   3.478   2.653  0.6532  0.4812 -0.6484
11659SOL    HW137609   6.648   3.564   2.677  0.5458  0.2140  0.1665
11659SOL    HW237610   6.612   3.437   2.603  1.0818  1.2508 -1.9211
11660SOL     OW37611   3.043   5.308   2.203  0.4209  0.2949 -0.7603
11660SOL    HW137612   2.959   5.271   2.175 -0.1468  0.7204  0.3433
11660SOL    HW237613   3.092   5.320   2.121 -1.9973  3.5250 -1.9480
11661SOL     OW37614   3.994   4.440   5.073 -0.0697  0.3634 -0.9919
11661SOL    HW137615   3.962   4.529   5.056 -0.3844  0.0861 -1.9070
11661SOL    HW237616   3.964   4.389   4.998 -0.9408 -0.7935  0.1127
11662SOL     OW37617   1.402   9.519   5.841 -0.0546 -0.2444 -0.4418
11662SOL    HW137618   1.418   9.612   5.853  0.1010 -0.1929 -1.0093
11662SOL    HW237619   1.394   9.484   5.930  0.5799  0.1872 -0.2098
11663SOL     OW37620   8.726   9.679   9.124  0.0568  0.2412 -0.0967
11663SOL    HW137621   8.720   9.774   9.126 -0.5475  0.1967  0.5953
11663SOL    HW237622   8.688   9.653   9.040 -2.1239  0.4694  0.7588
11664SOL     OW37623   6.809   9.280   2.910 -0.1403 -1.0286 -0.6644
11664SOL    HW137624   6.837   9.368   2.886  0.4526 -1.0316  0.0062
11664SOL    HW237625   6.758   9.292   2.990  0.6085 -1.3762 -0.1268
11665SOL     OW37626   6.283   9.643   5.361 -0.2568 -0.3027 -0.4022
11665SOL    HW137627   6.307   9.551   5.373  1.1703 -0.0533 -1.1235
11665SOL    HW237628   6.224   9.643   5.286  1.1286 -0.4851 -1.5409
11666SOL     OW37629   9.157   4.203   7.936  0.3052  0.3030 -0.0243
11666SOL    HW137630   9.198   4.282   7.969 -1.4417  0.4292  2.1148
11666SOL    HW237631   9.103   4.232   7.863 -0.3473  1.1175  0.7649
11667SOL     OW37632   8.502   0.439   9.094  0.5013  0.7432 -0.1999
11667SOL    HW137633   8.434   0.373   9.081 -0.9117  2.2712 -0.9141
11667SOL    HW237634   8.584   0.391   9.081 -0.2940 -1.5135  2.2115
11668SOL     OW37635  10.102   7.816   0.551  0.0624  0.0828  0.0921
11668SOL    HW137636  10.104   7.762   0.630  0.2927 -0.3543 -0.2113
11668SOL    HW237637  10.058   7.762   0.486 -0.4071  0.5626  0.0057
11669SOL     OW37638   6.829   0.430   7.319  0.1491  0.5492 -0.1100
11669SOL    HW137639   6.842   0.344   7.279  2.0259  1.2651 -1.1704
11669SOL    HW237640   6.785   0.412   7.402  0.7888 -1.4569 -0.1656
11670SOL     OW37641   3.483   3.536   4.140 -0.2492  0.1714  0.1582
11670SOL    HW137642   3.415   3.602   4.148 -3.7425 -3.2315  1.2820
11670SOL    HW237643   3.519   3.527   4.228  0.4476  0.7157 -0.0591
11671SOL     OW37644   0.914   7.379   4.227  0.0000 -0.0215  0.5780
11671SOL    HW137645   0.973   7.349   4.296 -1.1151 -2.0297  0.7308
11671SOL    HW237646   0.826   7.361   4.261 -0.6133  0.1175 -0.8695
11672SOL     OW37647   8.696   2.901   4.706 -0.0393  0.4694 -0.0602
11672SOL    HW137648   8.682   2.815   4.667 -0.6116 -0.0434  1.2395
11672SOL    HW237649   8.786   2.924   4.680 -0.2266 -0.0469 -1.2522
11673SOL     OW37650   3.679  10.009   9.435  0.9964  0.2860  0.0465
11673SOL    HW137651   3.742   9.943   9.408  1.0293  0.8001 -1.2088
11673SOL    HW237652   3.702  10.087   9.384 -1.2244  0.2218 -1.2020
11674SOL     OW37653   8.292   4.509   2.259 -0.3422 -0.4230 -0.2523
11674SOL    HW137654   8.300   4.485   2.167 -0.1769 -1.4563  0.0243
11674SOL    HW237655   8.234   4.586   2.259 -1.5222 -1.2823 -1.1035
11675SOL     OW37656   5.584   4.737   6.775 -0.1963 -0.2836  0.1857
11675SOL    HW137657   5.593   4.711   6.683 -1.4755 -2.0748  0.5210
11675SOL    HW237658   5.530   4.816   6.772  0.7798  0.3871 -0.6464
11676SOL     OW37659   4.614   3.006   6.262 -0.1462 -0.3939 -0.1744
11676SOL    HW137660   4.648   3.095   6.275 -0.7266 -0.3195  0.9867
11676SOL    HW237661   4.691   2.954   6.240  0.5259  0.0148  1.1319
11677SOL     OW37662   9.077   1.184   3.230  0.4615  0.3590  0.0183
11677SOL    HW137663   9.144   1.220   3.287  1.9711  0.1701 -1.5469
11677SOL    HW237664   9.005   1.160   3.289  1.5168  1.0998  1.6775
11678SOL     OW37665   6.699   1.835   0.141  0.1332  0.4171 -0.2360
11678SOL    HW137666   6.661   1.747   0.152 -4.0440  1.8043 -1.4096
11678SOL    HW237667   6.715   1.866   0.230 -0.5817 -0.7234  0.3091
11679SOL     OW37668  10.087   3.582   9.144 -0.0288  0.0918  0.1478
11679SOL    HW137669  10.157   3.541   9.092 -0.6839 -2.6072  1.2116
11679SOL    HW237670  10.069   3.665   9.099  1.3233 -0.8223 -2.2761
11680SOL     OW37671   4.067   0.115   8.741  0.4732 -0.5147  0.3027
11680SOL    HW137672   4.133   0.135   8.807  0.9251  0.5007 -0.4232
11680SOL    HW237673   3.996   0.176   8.760  0.4498 -0.4749  0.0859
11681SOL     OW37674   2.219   9.708   0.707 -0.1004 -0.4462 -0.1095
11681SOL    HW137675   2.162   9.752   0.770 -0.5154  0.1070 -0.8634
11681SOL    HW237676   2.182   9.620   0.699 -0.2793 -0.3950  0.1303
11682SOL     OW37677   8.469   0.707   3.767 -0.8245 -0.2570  0.0262
11682SOL    HW137678   8.556   0.678   3.794 -0.1914  1.5920  0.1130
11682SOL    HW237679   8.478   0.726   3.673 -1.5093 -1.3332 -0.2708
11683SOL     OW37680   3.873   6.923   5.533 -0.3368  0.2317 -0.2783
11683SOL    HW137681   3.919   6.991   5.485 -1.5862  0.5532 -1.0758
11683SOL    HW237682   3.797   6.903   5.479 -0.3275 -1.3603  0.2449
11684SOL     OW37683   7.145   0.087   2.625  0.5571  0.0242 -0.9590
11684SOL    HW137684   7.069   0.125   2.581 -0.1525 -0.0163  0.1927
11684SOL    HW237685   7.210   0.076   2.556 -1.0165 -1.3989 -2.2796
11685SOL     OW37686   5.577   5.326   1.516  0.4602  0.5076 -0.1792
11685SOL    HW137687   5.490   5.315   1.477  0.1854  0.6178  0.3960
11685SOL    HW237688   5.637   5.307   1.444 -0.0198 -1.0184 -0.2203
11686SOL     OW37689   2.573   2.785   3.563  0.0885 -0.5904  0.2020
11686SOL    HW137690   2.666   2.787   3.584 -0.4480  2.1791  3.0308
11686SOL    HW237691   2.543   2.700   3.594  1.2658 -0.5081  1.6946
11687SOL     OW37692   7.714   9.783   3.023  0.4250  0.1477 -0.2100
11687SOL    HW137693   7.712   9.877   3.037 -2.6951  0.2698 -0.7490
11687SOL    HW237694   7.684   9.771   2.933 -0.5525 -1.3693  0.2666
11688SOL     OW37695   6.190  10.027   8.723  0.5946 -0.2099 -0.6979
11688SOL    HW137696   6.170   9.938   8.693 -1.7082 -0.5830  1.6479
11688SOL    HW237697   6.226  10.016   8.810 -0.9790  1.1488  0.1916
11689SOL     OW37698   5.541   0.920   4.427 -0.0761 -0.4286  0.8028
11689SOL    HW137699   5.450   0.942   4.407 -0.5400 -0.6878  2.4564
11689SOL    HW237700   5.542   0.904   4.522  1.6103 -0.8470  0.7564
11690SOL     OW37701   4.787   5.942   8.550 -0.6013  0.2701  0.0715
11690SOL    HW137702   4.815   5.979   8.466  0.0541 -0.1871  0.0796
11690SOL    HW237703   4.719   5.879   8.527 -1.9050  1.6276  0.0788
11691SOL     OW37704   6.366   5.377   1.679 -0.3155  0.5799  0.2869
11691SOL    HW137705   6.290   5.397   1.734 -2.1303  1.6553 -2.3943
11691SOL    HW237706   6.369   5.448   1.616  1.9722 -0.3065 -0.6921
11692SOL     OW37707   5.148   4.002   2.027  0.0911 -0.5938 -0.0757
11692SOL    HW137708   5.064   4.039   2.055 -0.2980 -1.1165 -0.5259
11692SOL    HW237709   5.183   3.960   2.106 -0.5425 -1.2300 -0.1241
11693SOL     OW37710   5.171   3.183   4.667 -0.0576  0.2350  0.9071
11693SOL    HW137711   5.117   3.259   4.645 -1.3752 -1.2077 -1.3039
11693SOL    HW237712   5.113   3.127   4.718  0.4822  0.1422  1.4260
11694SOL     OW37713   7.065   2.881   6.681 -0.2883  0.2678 -0.1668
11694SOL    HW137714   7.084   2.926   6.763  0.4026  0.3740 -0.3772
11694SOL    HW237715   7.151   2.864   6.642  0.0164 -5.1749  1.9326
11695SOL     OW37716   4.964   1.876   9.678  0.2382  0.3045  0.0151
11695SOL    HW137717   4.984   1.908   9.590  1.2859 -1.3869 -0.4204
11695SOL    HW237718   4.912   1.797   9.662 -1.1660  0.9829  0.9992
11696SOL     OW37719   3.676   7.928   1.467  0.3774 -0.3481 -0.1968
11696SOL    HW137720   3.673   7.915   1.562 -0.9286  2.2219  0.2191
11696SOL    HW237721   3.657   8.021   1.456  0.0270 -0.6806 -3.0340
11697SOL     OW37722   1.770   5.477   8.543 -0.4569  0.3111  0.2678
11697SOL    HW137723   1.684   5.441   8.564 -0.1472  0.0612  1.1931
11697SOL    HW237724   1.831   5.421   8.591  0.3525 -0.4835 -1.5994
11698SOL     OW37725   8.783   8.244   5.109 -0.3013  0.0753  0.5987
11698SOL    HW137726   8.810   8.169   5.161 -1.2145 -2.0166 -1.7689
11698SOL    HW237727   8.844   8.247   5.036 -1.7579  0.0044 -0.6890
11699SOL     OW37728   3.191   2.141   6.253 -0.2771 -0.2071  0.3398
11699SOL    HW137729   3.184   2.068   6.192 -0.0714  0.0940 -0.0487
11699SOL    HW237730   3.201   2.218   6.197  2.9916 -0.2110  0.7281
11700SOL     OW37731   8.725   6.685   9.469 -0.6426  0.1432 -0.2433
11700SOL    HW137732   8.637   6.662   9.439 -0.5965 -0.0538 -0.2257
11700SOL    HW237733   8.731   6.651   9.558 -0.1082 -0.9634 -0.6822
11701SOL     OW37734   0.095   1.644   7.649  0.4695 -0.4495  0.2279
11701SOL    HW137735   0.142   1.599   7.720 -0.2723 -0.1131  0.9530
11701SOL    HW237736   0.164   1.681   7.595  1.0847 -1.7267  0.0808
11702SOL     OW37737   6.252   2.664   3.953 -0.5826 -0.2229  0.3085
11702SOL    HW137738   6.163   2.697   3.966 -1.2114 -2.1564  1.1759
11702SOL    HW237739   6.242   2.585   3.901  0.7026 -0.1907 -0.0263
11703SOL     OW37740   1.282   1.792   9.677  0.3815 -0.1269  0.3233
11703SOL    HW137741   1.241   1.872   9.647  1.2670  0.2939  0.1944
11703SOL    HW237742   1.234   1.722   9.633  1.7195  0.4710 -2.2939
11704SOL     OW37743   0.801   4.756   7.943  0.2532 -0.3179 -0.1509
11704SOL    HW137744   0.870   4.690   7.932  1.1448  0.6703 -0.6020
11704SOL    HW237745   0.811   4.785   8.034 -1.3371 -2.0655  0.6730
11705SOL     OW37746   2.333   5.642   1.134  0.4444 -0.4703 -0.4361
11705SOL    HW137747   2.275   5.692   1.191 -0.1137 -0.6104 -0.8677
11705SOL    HW237748   2.376   5.579   1.192 -1.5034 -1.8856 -0.4014
11706SOL     OW37749   8.227   5.858   7.954 -0.0032  0.2066 -0.0859
11706SOL    HW137750   8.247   5.890   8.042  0.1286  2.7045 -0.9334
11706SOL    HW237751   8.222   5.763   7.963  2.5569  0.1533  2.1144
11707SOL     OW37752   8.238   8.750   8.483 -0.2779  0.3334 -0.1150
11707SOL    HW137753   8.316   8.700   8.458 -0.9083 -0.0479 -1.4170
11707SOL    HW237754   8.264   8.842   8.470  0.2973  0.2749  0.5367
11708SOL     OW37755   7.985   5.045   1.652  0.5877 -0.0998  0.2667
11708SOL    HW137756   7.999   5.103   1.727 -0.1586  0.7986 -0.2644
11708SOL    HW237757   7.894   5.060   1.627  1.0375  0.2247 -1.3127
11709SOL     OW37758   3.784   5.769   8.403  0.4956 -0.1168  0.2385
11709SOL    HW137759   3.817   5.760   8.493  0.3403 -0.0344  0.3063
11709SOL    HW237760   3.785   5.863   8.387 -0.4742 -0.0343  0.5481
11710SOL     OW37761   7.357   3.559   4.486 -0.2486 -0.0724 -0.2927
11710SOL    HW137762   7.274   3.539   4.531  0.0219  0.4322  0.4553
11710SOL    HW237763   7.339   3.541   4.394 -1.4035  0.6384 -0.2347
11711SOL     OW37764   3.139   9.986   8.426  0.3922  0.3094 -0.3134
11711SOL    HW137765   3.132   9.945   8.512  1.9858 -1.3499 -0.9113
11711SOL    HW237766   3.057  10.035   8.416 -0.0288  0.1566  1.9187
11712SOL     OW37767   9.086   8.967   7.858 -0.2865 -0.1191 -0.2614
11712SOL    HW137768   9.108   8.986   7.949  1.4316 -1.0833 -0.4161
11712SOL    HW237769   9.145   9.023   7.807  0.6835 -1.4888 -0.7271
11713SOL     OW37770   3.062   9.500   6.852  0.5899 -0.1447 -0.1527
11713SOL    HW137771   3.129   9.550   6.806 -0.3698  1.0648 -0.2742
11713SOL    HW237772   3.110   9.429   6.895  1.7096 -0.2973 -1.6180
11714SOL     OW37773   6.752   7.483   4.787 -0.4313  0.5402 -0.1066
11714SOL    HW137774   6.677   7.531   4.824 -1.4393 -1.2784  0.3364
11714SOL    HW237775   6.821   7.492   4.853 -0.2709  2.1370 -0.4618
11715SOL     OW37776   9.013   2.964   4.133  0.2422  0.0012  0.0327
11715SOL    HW137777   8.956   3.018   4.078  1.5461  1.3147 -0.0849
11715SOL    HW237778   9.075   3.026   4.172  1.5859 -1.3589  0.1631
11716SOL     OW37779   3.692   5.657   7.560  0.0600 -0.5239 -0.2229
11716SOL    HW137780   3.654   5.722   7.501 -1.7754  0.4109  1.8084
11716SOL    HW237781   3.619   5.598   7.580  0.5934 -0.7594  1.1199
11717SOL     OW37782   1.001   8.168   3.310  0.0683 -0.7350  0.2272
11717SOL    HW137783   1.091   8.158   3.278 -0.2698  0.1630 -1.0739
11717SOL    HW237784   0.972   8.253   3.277 -1.7862 -1.6645 -0.7029
11718SOL     OW37785   0.670   3.289   2.382  0.1945  0.0422 -0.0603
11718SOL    HW137786   0.724   3.217   2.414  0.8591  1.9151  3.4870
11718SOL    HW237787   0.580   3.259   2.395  0.4474 -0.5513  0.3841
11719SOL     OW37788   4.177   2.819   9.761 -0.2256  0.0085 -0.3570
11719SOL    HW137789   4.259   2.862   9.737  0.1855 -0.3774  0.2946
11719SOL    HW237790   4.118   2.890   9.786  0.9511  0.1893  2.2347
11720SOL     OW37791   7.184   9.431   7.104 -0.2199 -0.0762  0.0451
11720SOL    HW137792   7.089   9.427   7.093 -0.1957 -0.7076  0.0615
11720SOL    HW237793   7.202   9.375   7.178  0.1622  0.1014  0.0855
11721SOL     OW37794   0.662   4.980   2.171 -0.2736 -0.7233  0.1641
11721SOL    HW137795   0.672   5.027   2.087 -1.1964 -2.1663 -0.7948
11721SOL    HW237796   0.686   4.890   2.150 -1.7035 -1.3568  1.1596
11722SOL     OW37797   2.161   1.264   5.257 -0.6849 -0.0333  0.1013
11722SOL    HW137798   2.178   1.288   5.166  2.2780 -0.1709  0.5096
11722SOL    HW237799   2.156   1.348   5.303  2.0585  0.0763  0.3675
11723SOL     OW37800   7.272   5.455   9.597  0.1561 -0.5381 -0.3017
11723SOL    HW137801   7.352   5.437   9.548 -0.9540  2.8063 -3.8945
11723SOL    HW237802   7.204   5.406   9.552 -0.1919 -2.3287  1.9402
11724SOL     OW37803   2.120   6.619   6.598  0.6352 -0.0684 -0.4596
11724SOL    HW137804   2.060   6.626   6.673  2.0051  1.7090  0.5513
11724SOL    HW237805   2.207   6.614   6.637  1.5308  2.5089 -1.8485
11725SOL     OW37806   8.518   8.284   0.929  0.0195  0.5126  0.1008
11725SOL    HW137807   8.561   8.213   0.881  0.2432  0.9913 -0.4144
11725SOL    HW237808   8.584   8.353   0.934 -0.1140  0.5954  0.8175
11726SOL     OW37809   3.681   7.571   8.635 -0.5576 -0.1584 -0.5007
11726SOL    HW137810   3.710   7.651   8.591  0.2782 -0.9217 -1.3830
11726SOL    HW237811   3.747   7.555   8.702 -1.9335  1.1117  1.2578
11727SOL     OW37812   1.702   9.181   2.991 -0.7790  0.1182  0.3572
11727SOL    HW137813   1.729   9.105   3.042 -0.3397 -0.3842 -0.5849
11727SOL    HW237814   1.679   9.145   2.905  0.1340  1.1172 -0.3359
11728SOL     OW37815   1.211   0.862   3.207 -0.1882  0.2571  0.2258
11728SOL    HW137816   1.232   0.781   3.254 -1.0204  0.3218  0.7210
11728SOL    HW237817   1.259   0.855   3.125  1.0995  0.0348  0.9707
11729SOL     OW37818   2.443   3.256   3.032 -0.1880  0.1940 -0.7366
11729SOL    HW137819   2.482   3.266   2.945 -0.7092  1.4356 -0.8503
11729SOL    HW237820   2.403   3.341   3.050  2.1321  0.8845  1.8334
11730SOL     OW37821   7.355  10.161   4.081 -0.4057 -0.2552 -0.5782
11730SOL    HW137822   7.339  10.104   4.005 -0.3528 -0.9490 -0.0751
11730SOL    HW237823   7.298  10.236   4.066 -2.9449 -1.8784  0.2954
11731SOL     OW37824   5.139   9.933   8.757 -0.1387  0.0726  0.4089
11731SOL    HW137825   5.217   9.880   8.770  1.4863  1.7999 -1.5589
11731SOL    HW237826   5.085   9.883   8.695 -0.7031 -1.1597  1.8385
11732SOL     OW37827   8.233   1.935   9.891 -0.0612  0.5112 -0.0435
11732SOL    HW137828   8.225   1.917   9.985  1.4356  1.7692  0.3664
11732SOL    HW237829   8.217   1.850   9.850 -0.7820 -0.0634  1.3387
11733SOL     OW37830   5.422  10.142   0.516  0.2132  0.2379  0.1151
11733SOL    HW137831   5.403  10.136   0.610 -1.9204  0.3883 -0.2470
11733SOL    HW237832   5.394  10.058   0.481 -0.8103  0.8582 -0.6190
11734SOL     OW37833   5.224   9.440   0.253  0.5721  0.1926  0.1921
11734SOL    HW137834   5.278   9.490   0.192  0.0334 -0.5480 -0.9314
11734SOL    HW237835   5.208   9.357   0.207 -3.4937  1.2387 -0.6366
11735SOL     OW37836   3.154   8.813   9.394 -0.0236 -0.3258 -0.3149
11735SOL    HW137837   3.189   8.757   9.324 -0.4465 -0.2058 -0.6252
11735SOL    HW237838   3.187   8.774   9.475 -0.3729 -1.0650 -0.5252
11736SOL     OW37839   6.525  10.070   1.462 -0.5372  0.1708  0.7078
11736SOL    HW137840   6.499  10.025   1.382 -0.9260  0.5117  0.6365
11736SOL    HW237841   6.508  10.007   1.532 -0.8321  0.1149  0.5856
11737SOL     OW37842   8.582   4.057  10.331 -0.3210 -0.2053  0.7204
11737SOL    HW137843   8.501   4.108  10.333  0.7311  1.5455  0.2985
11737SOL    HW237844   8.646   4.110  10.378  1.2941 -0.2123 -1.2887
11738SOL     OW37845   0.449   9.295   0.547  0.1624  0.2942  0.2685
11738SOL    HW137846   0.363   9.278   0.509  0.0753  2.2374 -0.5261
11738SOL    HW237847   0.508   9.235   0.502 -0.4549  0.4223 -0.7444
11739SOL     OW37848   6.755   0.431   5.264  0.1879 -0.1767  0.1152
11739SOL    HW137849   6.667   0.421   5.227 -1.9541  1.4324  4.1432
11739SOL    HW237850   6.768   0.526   5.269  1.5000 -0.3762  0.9538
11740SOL     OW37851   3.419   2.285   6.336 -0.0140  0.5827  0.2366
11740SOL    HW137852   3.343   2.238   6.300  1.0748 -1.1627  0.0560
11740SOL    HW237853   3.389   2.375   6.348 -2.5337 -0.3303  1.4872
11741SOL     OW37854   2.682   8.990   8.119 -0.1440 -0.0066 -0.1191
11741SOL    HW137855   2.701   9.082   8.138  2.9926 -0.3191 -1.1733
11741SOL    HW237856   2.726   8.941   8.189 -1.1777 -0.7652  0.0334
11742SOL     OW37857   0.584   4.705   4.707 -0.4615 -0.2731  0.0546
11742SOL    HW137858   0.658   4.667   4.755 -0.1900  0.7162  0.4529
11742SOL    HW237859   0.580   4.655   4.625 -0.8675 -1.9218  1.0392
11743SOL     OW37860  10.297   5.259   6.976  0.4733 -0.1298 -0.6386
11743SOL    HW137861  10.267   5.168   6.980 -1.7761  0.5887  1.7454
11743SOL    HW237862  10.358   5.268   7.049  0.7871  0.2678 -0.9444
11744SOL     OW37863   8.305   2.707   2.256  0.7012 -0.3046  0.5479
11744SOL    HW137864   8.367   2.651   2.303  2.0330  1.0658  0.4864
11744SOL    HW237865   8.272   2.767   2.322 -0.0538 -0.5749  0.4270
11745SOL     OW37866  10.269   9.813   8.515 -0.0104 -0.2985 -0.0029
11745SOL    HW137867  10.187   9.844   8.553  0.0830  0.4164 -0.3675
11745SOL    HW237868  10.312   9.765   8.586 -1.1286 -1.4310 -0.0635
11746SOL     OW37869   4.293   1.859   9.748  0.2833 -0.1115 -0.0864
11746SOL    HW137870   4.217   1.916   9.735  0.5216 -0.1230 -1.7502
11746SOL    HW237871   4.295   1.843   9.842 -1.8851 -0.2619 -0.0188
11747SOL     OW37872   6.781   9.043   2.765  0.3901  0.4621 -0.8209
11747SOL    HW137873   6.801   9.128   2.803 -0.0641 -0.2960  1.2936
11747SOL    HW237874   6.852   9.027   2.703  0.9162  2.0180 -0.6670
11748SOL     OW37875   0.092   9.968   4.505 -0.0080  0.2668 -0.2186
11748SOL    HW137876   0.143  10.036   4.549  1.6507 -0.1283 -1.4151
11748SOL    HW237877   0.158   9.908   4.470 -1.2992 -0.0871 -2.1716
11749SOL     OW37878   5.665  10.260   0.266 -0.4632 -0.1177  0.1899
11749SOL    HW137879   5.605  10.314   0.318 -2.4887  0.5513 -2.6100
11749SOL    HW237880   5.641  10.278   0.175  1.3192 -2.9354 -0.9802
11750SOL     OW37881   5.758   2.932   0.793  0.4004  0.4351 -0.1329
11750SOL    HW137882   5.756   3.018   0.836 -1.1992  0.6402 -0.5354
11750SOL    HW237883   5.814   2.945   0.716 -0.8233  1.5273 -0.8987
11751SOL     OW37884   4.087   5.291   7.472 -0.2977  0.5506 -0.2399
11751SOL    HW137885   4.171   5.339   7.471 -0.6242  1.2039 -2.3107
11751SOL    HW237886   4.023   5.355   7.441 -0.7931 -1.0619 -2.9299
11752SOL     OW37887   1.739   1.276   0.758 -0.7884  0.1893  0.2406
11752SOL    HW137888   1.698   1.190   0.763 -0.3350 -0.1863 -1.6732
11752SOL    HW237889   1.782   1.287   0.843 -1.0422 -1.3721  0.6046
11753SOL     OW37890   2.988   8.146   2.207 -0.5424 -0.5780 -0.3532
11753SOL    HW137891   2.943   8.076   2.160 -0.0579 -1.8655  1.0188
11753SOL    HW237892   2.960   8.226   2.164 -0.7230 -1.6395 -2.3085
11754SOL     OW37893   6.487   2.121   0.451  0.5849  0.7013  0.2113
11754SOL    HW137894   6.526   2.170   0.378 -0.5368 -0.3945 -1.1815
11754SOL    HW237895   6.541   2.043   0.459  1.0492  1.0943  0.9517
11755SOL     OW37896   6.364   6.159   3.098 -0.5166 -0.5256  0.1386
11755SOL    HW137897   6.405   6.240   3.128  0.5017 -1.3007  0.8754
11755SOL    HW237898   6.361   6.168   3.002  1.1977 -0.3592  0.0808
11756SOL     OW37899   0.744   0.767   0.983  0.2789 -0.5978 -0.9063
11756SOL    HW137900   0.773   0.683   1.019  0.2392 -0.0476  0.4746
11756SOL    HW237901   0.824   0.819   0.976 -0.0339  0.1834  0.8805
11757SOL     OW37902   6.709   9.851   2.518  0.4035  0.1249  0.1711
11757SOL    HW137903   6.754   9.831   2.601  0.6093 -0.1271  0.0014
11757SOL    HW237904   6.764   9.810   2.451 -0.5679 -0.9800  0.0344
11758SOL     OW37905   3.659   3.470   1.126  0.0875  0.0106 -0.5976
11758SOL    HW137906   3.647   3.517   1.043  1.0270  0.1249 -0.6856
11758SOL    HW237907   3.754   3.473   1.141  0.0034 -0.6422  0.1115
11759SOL     OW37908   8.476   0.939   8.459 -0.3620  1.0340 -0.0275
11759SOL    HW137909   8.440   0.866   8.509 -0.4883  0.7018 -0.6074
11759SOL    HW237910   8.402   1.000   8.450 -0.0881  1.5514  1.0265
11760SOL     OW37911   1.572   2.960   0.533 -0.2372 -0.0131  0.0746
11760SOL    HW137912   1.481   2.969   0.503 -0.4778 -2.2100 -0.0206
11760SOL    HW237913   1.585   3.035   0.591 -1.8724  0.7403 -0.4459
11761SOL     OW37914   9.643   1.735   0.446  0.0337  0.4010 -0.3043
11761SOL    HW137915   9.664   1.694   0.362 -1.4941  0.0193 -0.5304
11761SOL    HW237916   9.654   1.665   0.511 -0.9814  0.0521 -0.4882
11762SOL     OW37917   4.723   9.958   7.127  0.2958  0.1457 -0.4172
11762SOL    HW137918   4.663   9.975   7.199  0.9037  0.5982  0.0004
11762SOL    HW237919   4.783  10.033   7.128  0.8071 -0.2467 -0.8732
11763SOL     OW37920   6.992   8.909   0.993 -0.2941 -0.5063  0.1922
11763SOL    HW137921   6.961   8.959   0.916  1.7352  0.5178 -0.0234
11763SOL    HW237922   7.046   8.839   0.956 -1.0117 -1.3047  0.6253
11764SOL     OW37923   3.563   3.003   4.064  0.3436 -0.8475 -0.0308
11764SOL    HW137924   3.526   2.933   4.010 -1.9046  0.0157  0.2958
11764SOL    HW237925   3.578   3.075   4.004  0.0685 -0.6934  0.0819
11765SOL     OW37926   7.940   4.986   5.978  0.4070 -0.6412  0.0347
11765SOL    HW137927   7.917   5.076   5.953 -3.0904 -1.7716 -1.4337
11765SOL    HW237928   7.934   4.986   6.073 -0.5972  0.4756  0.0065
11766SOL     OW37929   4.751   6.894   7.923  0.3859 -0.4202 -0.4377
11766SOL    HW137930   4.749   6.830   7.852  2.4922 -1.7203  0.5870
11766SOL    HW237931   4.831   6.944   7.908 -0.4606  1.0091 -0.3688
11767SOL     OW37932   4.263   0.291   6.600 -0.2449 -0.0884  0.1223
11767SOL    HW137933   4.279   0.220   6.662 -0.7290  0.0344  0.3920
11767SOL    HW237934   4.190   0.340   6.637 -0.7781 -0.2204 -0.7152
11768SOL     OW37935  10.143   6.489   0.694 -0.4311 -0.6607  0.2122
11768SOL    HW137936  10.107   6.577   0.704 -0.1863 -0.5731  0.3245
11768SOL    HW237937  10.087   6.448   0.628 -0.8905 -0.6132  0.5709
11769SOL     OW37938   1.926   3.499   0.801 -0.3190 -0.5460  0.2171
11769SOL    HW137939   1.933   3.572   0.862 -4.1373 -0.9455  1.3655
11769SOL    HW237940   1.993   3.437   0.830  0.5966  0.9542  1.4514
11770SOL     OW37941   5.888   8.163   3.070 -0.0165  0.3595 -0.1534
11770SOL    HW137942   5.940   8.135   3.146 -1.7042  0.5243  1.1128
11770SOL    HW237943   5.913   8.101   3.001  1.3432  0.0119  0.6037
11771SOL     OW37944   2.330   9.365   8.023 -0.3313  0.8719  0.2084
11771SOL    HW137945   2.296   9.318   7.947  1.1472  0.7445 -0.4066
11771SOL    HW237946   2.372   9.442   7.986  0.0766  0.9984  0.9385
11772SOL     OW37947   1.836   8.690   4.416  0.3111 -0.4882  0.2209
11772SOL    HW137948   1.922   8.702   4.456  0.8185 -1.2424 -0.5905
11772SOL    HW237949   1.795   8.776   4.420  1.0737 -0.1379  0.6893
11773SOL     OW37950   7.917   4.707   6.821  0.2042  0.5638  0.4903
11773SOL    HW137951   7.977   4.660   6.879  0.5469  0.2325 -0.1207
11773SOL    HW237952   7.832   4.665   6.834  0.4231  0.0412  0.2532
11774SOL     OW37953   8.826   4.562   1.858  0.1126 -0.1929 -0.1646
11774SOL    HW137954   8.779   4.484   1.888 -0.7193  0.1800 -0.4757
11774SOL    HW237955   8.851   4.607   1.938 -0.6961 -0.0278  0.0036
11775SOL     OW37956   5.282   8.065   2.886 -0.4642 -0.7436  0.2845
11775SOL    HW137957   5.288   8.063   2.982 -1.2206 -1.6939  0.3339
11775SOL    HW237958   5.363   8.022   2.857 -1.3876 -2.8702  0.6088
11776SOL     OW37959   6.779   9.996   6.138  0.0021  0.9083  0.0025
11776SOL    HW137960   6.764  10.040   6.054  0.9934  1.5004  0.1177
11776SOL    HW237961   6.698  10.008   6.187 -0.7642  0.1488 -1.0451
11777SOL     OW37962   6.051   3.144   6.231 -0.4304 -0.1209 -0.0712
11777SOL    HW137963   6.100   3.106   6.304 -0.6031  1.1086  0.6979
11777SOL    HW237964   6.110   3.137   6.156  0.5102  0.3821  0.6110
11778SOL     OW37965   8.878   2.884   4.373  0.6474  0.6281 -0.0338
11778SOL    HW137966   8.841   2.970   4.392 -1.3247 -0.2314  0.3173
11778SOL    HW237967   8.917   2.893   4.286 -0.8888  1.4877 -0.6724
11779SOL     OW37968   6.636   9.941  10.110 -0.0883  0.3855  0.0539
11779SOL    HW137969   6.644   9.989  10.192 -0.6666  0.0263  0.3297
11779SOL    HW237970   6.670   9.854  10.129  0.5298  0.5417 -0.3175
11780SOL     OW37971   3.433   9.334   1.444  0.5192  0.2742  0.2949
11780SOL    HW137972   3.430   9.318   1.349  0.0359  1.0772  0.1706
11780SOL    HW237973   3.522   9.310   1.469  0.8856  0.7529 -0.4964
11781SOL     OW37974   7.046   8.649   2.241  0.0959 -0.4975  0.0501
11781SOL    HW137975   7.048   8.646   2.146 -0.4380  1.1793 -0.0663
11781SOL    HW237976   6.960   8.613   2.265 -2.0777  3.5826 -0.5444
11782SOL     OW37977   0.983   6.537   4.209 -0.0197 -0.2974  0.0286
11782SOL    HW137978   0.961   6.619   4.166 -2.8645  0.2137  2.1414
11782SOL    HW237979   0.986   6.472   4.138 -2.0551  0.9046 -1.2525
11783SOL     OW37980   8.820   2.156   9.801 -0.5459  0.5981  0.3021
11783SOL    HW137981   8.812   2.156   9.705 -0.5857  1.3695  0.3053
11783SOL    HW237982   8.765   2.228   9.830 -0.7529  0.1972  0.9350
11784SOL     OW37983   7.826   1.556   4.761 -0.3411 -0.1155 -0.6810
11784SOL    HW137984   7.732   1.568   4.753 -0.3581 -0.6480 -1.4037
11784SOL    HW237985   7.835   1.477   4.815 -0.2861  0.4904  0.2216
11785SOL     OW37986   5.818   3.596   1.699 -0.6050 -0.4889  0.2967
11785SOL    HW137987   5.844   3.548   1.620  2.5011 -0.1281  0.9927
11785SOL    HW237988   5.835   3.536   1.771 -0.2738  0.3294  0.9164
11786SOL     OW37989   3.369   5.682   2.327 -0.6450  0.4220  0.3155
11786SOL    HW137990   3.372   5.613   2.393 -1.0840  0.1047  0.0026
11786SOL    HW237991   3.461   5.698   2.305 -0.5536 -0.1730  0.2649
11787SOL     OW37992   3.031   9.532   2.368 -0.1881 -0.0391  0.0870
11787SOL    HW137993   3.055   9.501   2.281 -0.6870  0.2274 -0.1495
11787SOL    HW237994   3.087   9.608   2.384 -0.0338 -0.1425  0.0400
11788SOL     OW37995   1.242   2.160   0.746  0.0634 -0.1308  0.2113
11788SOL    HW137996   1.307   2.123   0.686 -1.0058 -0.9103 -0.4976
11788SOL    HW237997   1.223   2.089   0.808  0.1778  0.2308  0.6698
11789SOL     OW37998   8.813   1.248   8.993  0.1703 -0.0728  0.7130
11789SOL    HW137999   8.760   1.310   8.943  1.8155  0.5925 -0.2761
11789SOL    HW238000   8.883   1.302   9.031  0.4791 -1.0128  1.5197
11790SOL     OW38001  10.090   7.063   3.622 -0.4786  0.0444 -0.0789
11790SOL    HW138002  10.114   7.151   3.594 -0.9664 -0.1884 -1.2797
11790SOL    HW238003  10.132   7.005   3.559  0.3610 -0.6298  1.0686
11791SOL     OW38004  10.027   0.544   6.677 -0.6395 -0.0638  0.1209
11791SOL    HW138005  10.122   0.547   6.680 -0.6677 -0.0754  1.3482
11791SOL    HW238006   9.999   0.546   6.769 -1.7600 -2.4103 -0.1002
11792SOL     OW38007   6.196   3.164   6.475  0.0140 -0.3188 -0.4251
11792SOL    HW138008   6.182   3.192   6.566 -2.2992  0.7520 -1.0392
11792SOL    HW238009   6.148   3.081   6.469  2.2494 -1.7176 -0.0790
11793SOL     OW38010   7.453   0.304   9.768 -0.0054 -0.4946 -0.5809
11793SOL    HW138011   7.397   0.228   9.782 -0.4874 -0.2304 -1.0297
11793SOL    HW238012   7.536   0.268   9.736 -0.3217 -0.8142 -1.0473
11794SOL     OW38013   1.782   8.413   9.136  0.4246  0.3213 -0.4746
11794SOL    HW138014   1.737   8.334   9.106  0.5731 -0.0394  0.2448
11794SOL    HW238015   1.771   8.413   9.231  0.6701  1.0175 -0.4401
11795SOL     OW38016   1.886   0.356   0.516  0.0396 -0.2330 -0.4053
11795SOL    HW138017   1.827   0.350   0.591  0.5229  1.6341  0.1965
11795SOL    HW238018   1.972   0.332   0.550  0.3010  0.8338 -0.2760
11796SOL     OW38019   4.929   3.829   6.816 -0.3306  0.2469 -0.3446
11796SOL    HW138020   4.892   3.751   6.774 -1.0435  0.6956 -0.5691
11796SOL    HW238021   4.915   3.899   6.752  2.1974  0.1865 -1.0633
11797SOL     OW38022   3.444   3.018   3.203  0.4565  0.2422  0.3020
11797SOL    HW138023   3.532   3.008   3.168  1.4073  1.5417  2.1564
11797SOL    HW238024   3.448   3.097   3.257 -1.7645  0.1599  0.7111
11798SOL     OW38025   4.758   6.098   7.028  0.1320 -0.1808 -0.0439
11798SOL    HW138026   4.703   6.125   7.102 -2.2660 -1.0308 -1.3853
11798SOL    HW238027   4.833   6.054   7.069  1.5930  3.7360  1.9961
11799SOL     OW38028   7.758  10.184   3.840 -0.2752  0.4135  0.0943
11799SOL    HW138029   7.799  10.235   3.770  0.7429 -0.6632 -0.1311
11799SOL    HW238030   7.695  10.244   3.880 -0.0430  1.4163 -0.9893
11800SOL     OW38031   9.332   3.557   4.837  0.5747 -0.4568 -0.2260
11800SOL    HW138032   9.326   3.637   4.786  1.3208  0.3641  0.9103
11800SOL    HW238033   9.252   3.556   4.889  0.6523 -0.3385 -0.1025
11801SOL     OW38034   4.248   2.640   3.970 -0.1969  0.1088  0.1224
11801SOL    HW138035   4.154   2.633   3.987 -0.4410  2.0819 -0.2393
11801SOL    HW238036   4.274   2.722   4.011  1.7257 -1.1672  1.5940
11802SOL     OW38037   7.175   6.192   9.081  0.5233 -0.1127  0.5770
11802SOL    HW138038   7.085   6.197   9.113 -0.0402  1.1183 -1.0786
11802SOL    HW238039   7.171   6.130   9.007  0.9373  0.2663  0.2284
11803SOL     OW38040   2.455   1.683   0.825 -0.2494 -0.0739  0.2640
11803SOL    HW138041   2.388   1.751   0.823  0.2882  0.4632  0.2839
11803SOL    HW238042   2.451   1.649   0.914  0.5855  1.0638  0.7577
11804SOL     OW38043   8.680   1.615   2.032 -0.1573 -0.4685 -0.2261
11804SOL    HW138044   8.656   1.559   1.959  2.7572 -1.4937 -0.5393
11804SOL    HW238045   8.720   1.556   2.096 -0.3044  0.7760  1.0698
11805SOL     OW38046   6.145   4.488  10.253 -0.0260 -0.3263 -0.0043
11805SOL    HW138047   6.167   4.545  10.326 -0.1752 -0.5224  0.1933
11805SOL    HW238048   6.052   4.470  10.263 -0.1447 -0.0110 -0.4836
11806SOL     OW38049   0.038   5.798   7.209  0.0365  0.6602 -0.1057
11806SOL    HW138050  -0.042   5.744   7.208 -0.8085  1.8590  0.1323
11806SOL    HW238051   0.007   5.886   7.187  1.4913  0.9255 -1.2413
11807SOL     OW38052   4.929   1.123   9.629 -0.6429  0.3397 -0.2544
11807SOL    HW138053   4.927   1.133   9.533 -1.1571  2.1326 -0.0942
11807SOL    HW238054   4.864   1.185   9.660 -1.7910 -1.4955  1.2065
11808SOL     OW38055   7.438   8.199   1.764 -0.4540 -0.1302 -0.4449
11808SOL    HW138056   7.395   8.113   1.766  0.0392 -0.3847 -0.6464
11808SOL    HW238057   7.517   8.187   1.816  0.7025 -0.4048 -2.1954
11809SOL     OW38058   7.773   6.683   3.565 -0.4857  0.1007  0.1835
11809SOL    HW138059   7.837   6.618   3.595 -0.9160 -1.0101 -1.1872
11809SOL    HW238060   7.772   6.749   3.634 -0.0775 -1.3673  1.6694
11810SOL     OW38061   0.908   1.696   8.764 -0.1165 -0.0410  0.3299
11810SOL    HW138062   0.964   1.770   8.742  0.7311 -1.3380 -2.2447
11810SOL    HW238063   0.961   1.642   8.822 -0.5676  1.0603  1.8363
11811SOL     OW38064   5.824   5.884   2.691 -0.3226 -0.0469  0.3593
11811SOL    HW138065   5.831   5.831   2.612  0.4999 -0.5037  0.7281
11811SOL    HW238066   5.840   5.823   2.763 -0.8071  0.4121  0.8753
11812SOL     OW38067   6.608   2.240   0.687 -0.0157  0.1519 -0.0280
11812SOL    HW138068   6.544   2.194   0.632  0.4637 -0.6129  0.0367
11812SOL    HW238069   6.606   2.330   0.656  1.6074 -0.6004 -2.6489
11813SOL     OW38070   8.302   2.466   3.564  0.1244  0.5009 -0.1370
11813SOL    HW138071   8.376   2.499   3.513 -0.8074  2.0894 -0.5421
11813SOL    HW238072   8.231   2.456   3.500 -0.9632  2.2077  0.7345
11814SOL     OW38073   1.177   7.677   7.507  0.0873 -0.0671 -0.1891
11814SOL    HW138074   1.201   7.632   7.588 -0.6140 -2.8849 -1.4284
11814SOL    HW238075   1.243   7.649   7.443 -0.1720  0.9973 -0.9568
11815SOL     OW38076   4.053   8.538   3.336 -0.4349  0.8254 -0.2773
11815SOL    HW138077   4.130   8.541   3.392 -0.6938  1.1011  0.0775
11815SOL    HW238078   4.087   8.523   3.248 -0.1443 -1.5767  0.1951
11816SOL     OW38079   6.393   8.328   9.870 -0.2007  0.1324  0.3215
11816SOL    HW138080   6.463   8.366   9.816 -1.7604  3.6889  0.6044
11816SOL    HW238081   6.439   8.291   9.946  1.7169 -2.0625 -1.7279
11817SOL     OW38082   6.239   8.640   7.503  0.2210 -0.1913 -0.2122
11817SOL    HW138083   6.201   8.636   7.591  1.1520  1.1146  0.2748
11817SOL    HW238084   6.194   8.571   7.454 -0.2673 -0.9826  1.3028
11818SOL     OW38085   6.125   5.137   7.668  0.3528 -0.1488 -0.2151
11818SOL    HW138086   6.177   5.170   7.741 -0.4091 -0.1900  0.3581
11818SOL    HW238087   6.098   5.215   7.620  0.8145 -0.1190 -0.4305
11819SOL     OW38088   1.592   0.233   6.840  0.1124 -0.3635 -0.4164
11819SOL    HW138089   1.559   0.267   6.924 -0.8996 -1.2162 -0.4299
11819SOL    HW238090   1.661   0.172   6.865  0.3812  0.0100 -0.2504
11820SOL     OW38091   4.595   9.253   1.566  0.4712  0.5646 -0.1951
11820SOL    HW138092   4.531   9.205   1.513 -0.1741  0.9209  0.2502
11820SOL    HW238093   4.667   9.191   1.579 -0.3118 -0.2513  0.3127
11821SOL     OW38094   8.358   2.251   5.866 -0.6677 -0.2316 -0.3230
11821SOL    HW138095   8.379   2.186   5.934 -0.2438 -0.7880 -0.9697
11821SOL    HW238096   8.264   2.239   5.850 -0.8265  0.0776  0.3348
11822SOL     OW38097   1.596   2.669   5.197 -0.2482  0.4529  0.5195
11822SOL    HW138098   1.665   2.735   5.189  0.2468  0.0412  1.3001
11822SOL    HW238099   1.516   2.715   5.174  0.1883  1.1219  0.2973
11823SOL     OW38100   6.659   4.456   4.586 -0.6142  0.5010  0.2452
11823SOL    HW138101   6.625   4.473   4.498  1.0660 -1.0203 -0.7672
11823SOL    HW238102   6.723   4.525   4.601  0.3443 -0.2095 -0.4741
11824SOL     OW38103   8.087   0.018   1.926  0.1441  0.3176 -0.1215
11824SOL    HW138104   8.132   0.073   1.990  1.9420 -0.9973 -0.1895
11824SOL    HW238105   8.156  -0.030   1.882 -1.1553  0.1317 -2.1121
11825SOL     OW38106   6.006   0.599   6.930 -0.7576 -0.3165 -0.0309
11825SOL    HW138107   5.935   0.659   6.907 -0.7969  0.1162  1.1419
11825SOL    HW238108   5.981   0.516   6.891 -1.3166  0.1260 -0.6376
11826SOL     OW38109   3.220   4.455   5.501  0.2606  0.0730 -0.5499
11826SOL    HW138110   3.298   4.499   5.536  0.8797 -1.8958  0.7051
11826SOL    HW238111   3.163   4.443   5.576 -0.0454 -0.9093 -0.9192
11827SOL     OW38112   2.334   6.387  10.021  0.4156 -0.0198  0.0882
11827SOL    HW138113   2.406   6.446  10.042 -1.8380  2.4814  1.2695
11827SOL    HW238114   2.283   6.433   9.955 -0.3965 -1.5228 -0.3807
11828SOL     OW38115   4.141   4.450   2.089 -0.2970  0.0940  0.2636
11828SOL    HW138116   4.069   4.399   2.128  1.2783 -1.8119  0.8770
11828SOL    HW238117   4.186   4.489   2.164  0.1287  0.1084  0.0032
11829SOL     OW38118   2.176   1.270   2.422 -1.0190 -0.5189 -0.4129
11829SOL    HW138119   2.227   1.254   2.501 -1.2509  1.1315  0.1042
11829SOL    HW238120   2.198   1.197   2.364 -1.1143 -1.9649  1.2851
11830SOL     OW38121   3.243   2.211   5.347 -0.5588  0.4172 -0.3358
11830SOL    HW138122   3.325   2.245   5.384 -0.1384 -1.7446  0.8988
11830SOL    HW238123   3.267   2.181   5.259 -0.4735  1.3856 -0.6587
11831SOL     OW38124   6.555   8.675   2.033 -0.3239  0.0787 -0.2120
11831SOL    HW138125   6.523   8.765   2.040 -1.5886 -0.4813  2.5598
11831SOL    HW238126   6.536   8.650   1.943 -2.4909  1.7205 -0.2961
11832SOL     OW38127   4.568   2.012   8.886  0.0368  0.0404 -0.1881
11832SOL    HW138128   4.660   1.993   8.905 -0.1403 -1.2473 -0.4610
11832SOL    HW238129   4.566   2.026   8.792 -0.5381 -3.8730 -0.9504
11833SOL     OW38130  10.297   4.067   0.718 -0.1910 -0.0952 -0.1823
11833SOL    HW138131  10.273   4.075   0.810  0.8904 -2.0431  0.3150
11833SOL    HW238132  10.351   4.144   0.701 -4.0791  2.8232 -0.5562
11834SOL     OW38133   4.460   9.477   1.650  0.1227  0.0025  0.1232
11834SOL    HW138134   4.503   9.510   1.729 -0.2580 -1.7897  1.1528
11834SOL    HW238135   4.510   9.399   1.627 -1.3905 -1.0315  0.2223
11835SOL     OW38136   2.192   4.091   1.996 -0.6930  0.7710  0.3321
11835SOL    HW138137   2.233   4.034   2.062  2.0176  2.0316 -0.1361
11835SOL    HW238138   2.161   4.166   2.046 -1.1559  0.4724  0.5033
11836SOL     OW38139   9.579   4.798   4.610  0.0316 -0.3924  0.0050
11836SOL    HW138140   9.500   4.806   4.663  0.2861 -0.4588  0.3925
11836SOL    HW238141   9.564   4.857   4.536  0.4499  1.1320  1.0887
11837SOL     OW38142   7.813   6.271   8.793  0.1652 -0.0223 -0.3628
11837SOL    HW138143   7.903   6.240   8.799  1.1335  2.6875  0.9978
11837SOL    HW238144   7.781   6.237   8.710  2.1301 -1.7747 -0.4758
11838SOL     OW38145   0.203   9.419   7.658 -0.1046 -0.3928 -0.5588
11838SOL    HW138146   0.139   9.349   7.646  0.0231 -0.7138  0.5188
11838SOL    HW238147   0.178   9.460   7.741  1.6523 -1.1563  0.4037
11839SOL     OW38148   0.869   2.952   4.930  0.4266 -0.0586  0.4681
11839SOL    HW138149   0.949   2.983   4.972  1.5031 -2.3010  0.2449
11839SOL    HW238150   0.895   2.931   4.840 -1.3153  2.5587 -0.7760
11840SOL     OW38151   0.734   1.504   8.628  0.1474 -0.2254 -0.1828
11840SOL    HW138152   0.655   1.556   8.637  0.9668  0.8619  1.2224
11840SOL    HW238153   0.803   1.558   8.667  1.4671 -1.4006 -0.7869
11841SOL     OW38154   4.214   3.237   8.558  0.1503  0.0403  0.0242
11841SOL    HW138155   4.282   3.284   8.510 -1.2452 -0.3726 -2.5088
11841SOL    HW238156   4.139   3.296   8.556  0.3951  0.6109  3.0320
11842SOL     OW38157   1.702   2.902   3.220  0.1185  0.5429  0.1557
11842SOL    HW138158   1.620   2.878   3.264 -0.2806 -0.8800 -1.2847
11842SOL    HW238159   1.675   2.964   3.152  0.2815  0.2981 -0.1317
11843SOL     OW38160   8.105   7.808   8.844  0.4595  0.7656 -0.3719
11843SOL    HW138161   8.079   7.800   8.936  0.1489  0.4000 -0.4904
11843SOL    HW238162   8.039   7.864   8.805 -1.1312 -1.4412 -1.0411
11844SOL     OW38163   9.054   4.757   0.191 -0.2019 -0.3254 -0.7294
11844SOL    HW138164   8.992   4.830   0.202 -1.5323 -1.7744  2.2924
11844SOL    HW238165   9.009   4.681   0.227  2.2311 -2.0974 -1.1751
11845SOL     OW38166   0.637   0.800   4.025 -0.3032 -0.0394  0.1651
11845SOL    HW138167   0.556   0.768   3.985 -0.8131  0.8009  0.4960
11845SOL    HW238168   0.701   0.800   3.954 -0.7384 -0.1925 -0.2335
11846SOL     OW38169  10.039   6.054   5.362  0.0230 -0.0075 -0.0077
11846SOL    HW138170  10.084   6.008   5.290  0.0480 -0.6908  0.4354
11846SOL    HW238171  10.104   6.118   5.393  0.5434 -0.6969  0.3490
11847SOL     OW38172   5.214   8.387   6.203  0.0431 -0.8916  0.4427
11847SOL    HW138173   5.150   8.456   6.218 -0.9625 -1.8108  0.4406
11847SOL    HW238174   5.217   8.339   6.286  0.3762 -1.1584  0.2781
11848SOL     OW38175   6.019   9.069   1.464 -0.0050  0.3141 -0.3524
11848SOL    HW138176   5.998   9.056   1.557  0.6160 -3.1217 -0.5582
11848SOL    HW238177   6.053   9.158   1.460 -0.0764  0.6126  2.7164
11849SOL     OW38178   8.204   3.378   6.443 -0.0016  0.4917 -0.1298
11849SOL    HW138179   8.278   3.352   6.498  0.5385  2.0027 -0.0905
11849SOL    HW238180   8.172   3.459   6.482 -1.2897  0.2036 -0.5287
11850SOL     OW38181   3.980   9.735   7.188  0.1627  0.1698 -0.5213
11850SOL    HW138182   4.034   9.669   7.232  1.6335  0.6638 -1.5031
11850SOL    HW238183   3.898   9.735   7.237  1.2992 -0.0913  1.4910
11851SOL     OW38184   8.417   3.838   7.111  0.3782 -0.1203  0.4279
11851SOL    HW138185   8.451   3.784   7.183  0.2223  0.3254  0.8459
11851SOL    HW238186   8.365   3.777   7.058  1.6377 -0.7559 -0.1006
11852SOL     OW38187  10.167   2.293  10.175 -0.4439  0.6452 -0.0034
11852SOL    HW138188  10.257   2.261  10.170 -1.3510 -2.1293 -0.5674
11852SOL    HW238189  10.176   2.385  10.199  2.5099  0.3991  0.2897
11853SOL     OW38190   3.380   2.459   8.469  0.2332  0.0554 -0.4446
11853SOL    HW138191   3.326   2.520   8.419  0.3261 -0.5244 -1.2738
11853SOL    HW238192   3.349   2.372   8.443 -0.8764 -0.2901  1.7878
11854SOL     OW38193   1.452   6.314   1.371 -0.1247 -0.1260  0.4685
11854SOL    HW138194   1.433   6.276   1.286 -1.3023  3.0319 -0.8536
11854SOL    HW238195   1.542   6.346   1.364  0.1004 -0.6782  0.7735
11855SOL     OW38196   5.627   1.316   3.306 -0.3684  0.0130 -0.3195
11855SOL    HW138197   5.626   1.339   3.213  1.5172 -1.2119 -0.7004
11855SOL    HW238198   5.606   1.223   3.307 -1.1983  0.2069  0.5655
11856SOL     OW38199   0.112   9.491   9.594  0.6225 -0.1661 -0.3328
11856SOL    HW138200   0.082   9.540   9.518 -3.3142 -0.4141  0.8521
11856SOL    HW238201   0.147   9.558   9.653 -0.2425  0.5918 -0.6658
11857SOL     OW38202  10.302   5.458   5.572  0.4902 -0.4919 -0.3401
11857SOL    HW138203  10.389   5.424   5.594  0.0052 -2.3062 -1.0991
11857SOL    HW238204  10.290   5.434   5.481 -1.1616 -1.0604  0.0011
11858SOL     OW38205   4.311   5.742   9.297  0.1761  0.3188  0.1354
11858SOL    HW138206   4.332   5.696   9.378  2.2319  2.3233  0.8858
11858SOL    HW238207   4.324   5.835   9.319 -1.7550  1.1444 -1.8168
11859SOL     OW38208   7.253   5.899   6.679 -0.4242  0.1075 -0.0636
11859SOL    HW138209   7.220   5.927   6.594  2.1297 -1.5534 -1.7842
11859SOL    HW238210   7.177   5.864   6.725 -1.5749 -1.0518 -2.6443
11860SOL     OW38211   4.789   0.506   4.931 -0.4205  0.4630  0.1229
11860SOL    HW138212   4.802   0.435   4.867  0.0766  0.4834  0.1979
11860SOL    HW238213   4.727   0.470   4.994  1.6465 -0.8276  1.5333
11861SOL     OW38214   8.361   6.471   8.284  0.3683 -0.1167  0.7779
11861SOL    HW138215   8.377   6.419   8.206  0.5928 -0.4301  1.0343
11861SOL    HW238216   8.309   6.414   8.341  0.2069  0.1102  0.8633
11862SOL     OW38217   3.981   3.466   4.289  0.0415 -0.0040 -0.4755
11862SOL    HW138218   3.945   3.520   4.359 -1.2224 -0.4200 -0.7627
11862SOL    HW238219   3.958   3.512   4.208  2.4104  1.0199 -0.6373
11863SOL     OW38220   8.316   4.973   8.980  0.1582 -0.1019 -0.5048
11863SOL    HW138221   8.247   4.992   9.043  2.1912 -2.3526  2.6861
11863SOL    HW238222   8.360   5.057   8.966 -0.6182  0.5328  0.7321
11864SOL     OW38223   3.278   9.203   7.042 -0.5558 -0.3848  0.1278
11864SOL    HW138224   3.213   9.254   7.090 -1.2053 -0.9769 -0.1036
11864SOL    HW238225   3.356   9.204   7.097 -0.7833  0.2797  0.4396
11865SOL     OW38226   5.931   2.155   4.626  0.2334  0.1984 -0.6304
11865SOL    HW138227   5.934   2.098   4.549 -0.3826 -0.4719 -0.1626
11865SOL    HW238228   6.003   2.125   4.681 -0.4626 -0.5562 -0.1025
11866SOL     OW38229   7.930   5.745   0.342  0.2698 -0.1719  0.4022
11866SOL    HW138230   7.993   5.692   0.391  0.1089  0.1212  0.9385
11866SOL    HW238231   7.940   5.717   0.251 -0.5740 -1.8673  0.8122
11867SOL     OW38232   9.250   9.904   5.027 -0.0917 -0.3336  0.4948
11867SOL    HW138233   9.304   9.955   4.966  0.1098  0.8152  1.5720
11867SOL    HW238234   9.207   9.838   4.973 -1.0108  1.5004 -1.1539
11868SOL     OW38235   4.908   3.052   5.933 -0.0639 -0.4261  0.4378
11868SOL    HW138236   5.003   3.058   5.921  0.1860 -0.9513  1.9115
11868SOL    HW238237   4.882   3.139   5.965  0.0523 -0.5360  0.8302
11869SOL     OW38238   5.321   2.364   2.941 -0.5631 -0.3138 -0.1093
11869SOL    HW138239   5.303   2.422   2.867  1.2611 -2.1686 -2.1821
11869SOL    HW238240   5.278   2.282   2.917  1.3804 -1.4429  0.0318
11870SOL     OW38241   6.422   1.233   9.795  0.8292 -0.1237 -0.4028
11870SOL    HW138242   6.444   1.325   9.801 -0.2918  0.1746 -0.6012
11870SOL    HW238243   6.349   1.230   9.733  0.1272 -1.0068  0.4273
11871SOL     OW38244   5.946   0.114   7.292 -0.1504 -0.1382  0.1332
11871SOL    HW138245   6.001   0.145   7.364 -0.5102 -0.4319  0.5408
11871SOL    HW238246   5.860   0.100   7.331 -0.3874 -0.1734 -0.3842
11872SOL     OW38247   4.484   1.225   4.869  0.2257  0.3883 -0.0599
11872SOL    HW138248   4.459   1.281   4.943  1.3095 -0.3318  0.8871
11872SOL    HW238249   4.564   1.266   4.834 -0.9173  1.4003 -1.6361
11873SOL     OW38250   6.988   4.123   1.734  0.0150 -0.2296 -0.5324
11873SOL    HW138251   6.914   4.183   1.741  0.8595  0.9136 -1.0995
11873SOL    HW238252   6.952   4.038   1.761 -1.3743  0.3792 -0.3553
11874SOL     OW38253   6.314   5.550   8.976  0.0098 -0.2059 -0.2191
11874SOL    HW138254   6.324   5.474   9.034  2.3901  0.8167  0.8178
11874SOL    HW238255   6.270   5.616   9.030  1.2298  0.3629  0.1174
11875SOL     OW38256   5.220   5.504   4.543 -0.3327 -0.1450 -0.1158
11875SOL    HW138257   5.292   5.553   4.581 -0.2911 -0.1353 -0.2074
11875SOL    HW238258   5.223   5.419   4.587  0.0013 -0.2971 -0.4299
11876SOL     OW38259   0.314   8.726   1.924 -0.0052 -0.3409  0.1733
11876SOL    HW138260   0.408   8.739   1.908 -0.3129  0.1161 -1.5263
11876SOL    HW238261   0.292   8.647   1.874 -0.3624 -1.0300  1.3677
11877SOL     OW38262   5.433   9.834   3.976  0.0031 -0.6164 -0.4360
11877SOL    HW138263   5.473   9.749   3.956 -0.0036 -0.8304  0.4202
11877SOL    HW238264   5.368   9.847   3.907  0.1097 -1.2373 -0.6591
11878SOL     OW38265   2.549   6.975   9.332 -0.0129  0.0769  0.2154
11878SOL    HW138266   2.481   6.914   9.359 -0.8483  0.7791 -0.2322
11878SOL    HW238267   2.585   6.937   9.252 -0.9296  0.4399 -0.3850
11879SOL     OW38268   1.945   9.765   9.076  0.2207  0.3345  0.1133
11879SOL    HW138269   2.036   9.736   9.083 -0.3211 -1.5415 -0.0366
11879SOL    HW238270   1.940   9.808   8.991  0.8422 -0.0478 -0.1240
11880SOL     OW38271   2.519   2.893   4.463  0.1109 -0.2337  0.7211
11880SOL    HW138272   2.564   2.890   4.379  0.9397 -1.2352  1.1740
11880SOL    HW238273   2.427   2.906   4.440  0.4836  0.8396 -0.2684
11881SOL     OW38274   1.023   7.557   7.314  0.2998 -0.1597  0.3674
11881SOL    HW138275   1.062   7.603   7.388 -0.2186  0.8832  0.0187
11881SOL    HW238276   0.960   7.497   7.353 -0.4933  0.8989  0.7429
11882SOL     OW38277   7.883   7.586   0.466  0.3862  0.1544  0.0959
11882SOL    HW138278   7.830   7.542   0.400  0.7317 -1.2887  0.7446
11882SOL    HW238279   7.821   7.609   0.535  0.0753  1.4082 -0.5690
11883SOL     OW38280  10.174   0.510   3.329 -0.0579  0.4968 -0.3982
11883SOL    HW138281  10.245   0.447   3.335 -1.6729 -1.3986 -0.1122
11883SOL    HW238282  10.113   0.484   3.398  0.3891  4.0417  1.5629
11884SOL     OW38283   7.825   5.774   5.566  0.4694 -0.1703  0.0455
11884SOL    HW138284   7.846   5.755   5.475 -1.0030  0.7581 -0.5324
11884SOL    HW238285   7.837   5.869   5.574 -0.1218 -0.1373  0.6022
11885SOL     OW38286   1.823   3.397   9.317  0.7645  0.2208  0.4178
11885SOL    HW138287   1.899   3.377   9.373  0.7512 -0.6436  0.1521
11885SOL    HW238288   1.748   3.365   9.368  0.3173  2.9195  1.6013
11886SOL     OW38289   6.399   7.695   5.847  0.1508  0.6933  0.3879
11886SOL    HW138290   6.413   7.639   5.923 -0.3180 -0.3766 -0.3059
11886SOL    HW238291   6.310   7.676   5.819  1.0552 -0.5998 -1.7862
11887SOL     OW38292   3.925   9.244   9.486  0.0445  0.6443 -0.0339
11887SOL    HW138293   4.012   9.258   9.448  0.4391 -0.0791  0.5589
11887SOL    HW238294   3.902   9.329   9.523  0.0062  1.1351 -1.1629
11888SOL     OW38295   8.416   8.506   3.709  0.4471  0.0276  0.1751
11888SOL    HW138296   8.418   8.414   3.685  0.5291 -0.0927  0.6444
11888SOL    HW238297   8.353   8.511   3.781  0.2823  0.3739  0.0141
11889SOL     OW38298   3.479   0.851   4.034 -0.3442 -0.4266  0.4785
11889SOL    HW138299   3.496   0.883   3.945 -0.5430 -1.1123  0.1912
11889SOL    HW238300   3.391   0.882   4.054  0.0135  0.4441  0.7671
11890SOL     OW38301   2.750   5.318   3.700 -0.2815  0.4084  0.1325
11890SOL    HW138302   2.658   5.293   3.686 -0.8226  1.4645  1.6060
11890SOL    HW238303   2.773   5.276   3.783 -0.0591  1.7356  0.7635
11891SOL     OW38304   3.150   3.002   5.330 -0.2115 -0.5494  0.2120
11891SOL    HW138305   3.183   3.069   5.391  2.7992 -1.5951 -0.1445
11891SOL    HW238306   3.159   2.920   5.377 -1.3228 -1.0286 -0.3637
11892SOL     OW38307   3.211   7.235   3.958  0.2037 -0.0072 -0.2932
11892SOL    HW138308   3.190   7.197   3.873 -1.0261 -2.0023  0.8135
11892SOL    HW238309   3.139   7.295   3.977 -0.1482 -0.4697 -0.1544
11893SOL     OW38310   7.665   4.620   9.609  0.0681 -0.5001 -0.0831
11893SOL    HW138311   7.674   4.534   9.567 -1.2609 -1.4080  1.3869
11893SOL    HW238312   7.584   4.614   9.659  0.0880  1.5393  0.2887
11894SOL     OW38313   7.423   1.122   5.357 -0.4174  0.0325 -0.2766
11894SOL    HW138314   7.358   1.186   5.387  0.2931  1.1747 -1.0984
11894SOL    HW238315   7.449   1.153   5.270  0.5430 -0.9293 -0.3542
11895SOL     OW38316   4.155   5.756   8.958 -0.5623  0.1276  0.1325
11895SOL    HW138317   4.239   5.722   8.989 -0.8660 -0.0119  0.8218
11895SOL    HW238318   4.145   5.840   9.003  0.2473  1.2378 -1.6611
11896SOL     OW38319   6.790   7.112   0.648 -0.4416 -0.3219  0.2004
11896SOL    HW138320   6.743   7.191   0.676  0.7900  0.1954  0.9062
11896SOL    HW238321   6.851   7.095   0.719  0.1916 -1.1711 -0.5288
11897SOL     OW38322   4.250   6.626   6.567  0.3848  0.3167  0.2449
11897SOL    HW138323   4.205   6.613   6.484 -0.0262  0.9158  0.3645
11897SOL    HW238324   4.190   6.679   6.619  1.5177  1.7885  0.1279
11898SOL     OW38325   3.662   5.940   0.754 -0.3627 -0.3024  0.7672
11898SOL    HW138326   3.730   5.943   0.686 -0.3429 -1.1203  0.7434
11898SOL    HW238327   3.663   6.028   0.792 -3.3211  1.7734 -3.1770
11899SOL     OW38328   8.314   2.175   6.387  0.5373 -0.2367 -0.8870
11899SOL    HW138329   8.218   2.176   6.384  0.5469  0.8147 -1.2171
11899SOL    HW238330   8.335   2.140   6.473 -0.1419 -0.6456 -0.8816
11900SOL     OW38331   6.016   2.610   1.072  0.0876 -0.1921 -0.3566
11900SOL    HW138332   5.985   2.606   1.162  0.4686 -0.2961 -0.2293
11900SOL    HW238333   6.017   2.519   1.042  0.3868 -0.2016 -0.3195
11901SOL     OW38334   8.463   5.210   3.704  0.2019 -0.6557 -0.1368
11901SOL    HW138335   8.457   5.210   3.800 -1.2902 -1.2054 -0.2112
11901SOL    HW238336   8.537   5.152   3.685 -0.8012 -2.2361  0.6330
11902SOL     OW38337   6.573   5.708   9.825  0.1060 -0.1232  0.7450
11902SOL    HW138338   6.546   5.763   9.898 -1.6182 -1.6350  1.3131
11902SOL    HW238339   6.666   5.726   9.814  0.0163  1.4078  2.1704
11903SOL     OW38340   7.831   8.604   8.715 -0.0758  0.8858  0.0259
11903SOL    HW138341   7.875   8.596   8.631 -0.3125  0.1984 -0.0412
11903SOL    HW238342   7.748   8.558   8.703  0.9248 -1.4583  1.3701
11904SOL     OW38343   2.017   0.029   5.483  0.9795  0.1883 -0.0483
11904SOL    HW138344   2.017  -0.026   5.405 -0.1099  2.3638 -1.6734
11904SOL    HW238345   1.926   0.031   5.512  1.3327 -0.3956  1.1589
11905SOL     OW38346   3.463   4.296   1.681 -0.3438 -0.4070  0.5394
11905SOL    HW138347   3.401   4.233   1.644 -0.7199 -0.8722  1.8879
11905SOL    HW238348   3.415   4.337   1.752  0.8493 -0.7139  1.5632
11906SOL     OW38349   1.130   0.050   5.858  0.3176  0.2406  1.1866
11906SOL    HW138350   1.066   0.035   5.789  0.6735  1.7635  0.4772
11906SOL    HW238351   1.080   0.047   5.939 -0.7900  1.8976  0.6173
11907SOL     OW38352   2.622   6.207   6.730 -0.0600  0.2380  0.4807
11907SOL    HW138353   2.530   6.232   6.719  0.0091  0.0685 -0.5613
11907SOL    HW238354   2.655   6.268   6.797 -1.1390 -0.2715  1.5065
11908SOL     OW38355   7.878   2.050   7.668  0.0937 -0.0784  0.2363
11908SOL    HW138356   7.874   2.014   7.580  2.1817  3.3454 -1.4606
11908SOL    HW238357   7.958   2.013   7.706  0.2102 -0.1251 -0.0511
11909SOL     OW38358   7.005   8.243   0.915 -0.2827 -0.5436 -0.1968
11909SOL    HW138359   7.070   8.301   0.874 -0.9873 -0.9178 -1.9464
11909SOL    HW238360   7.014   8.259   1.009  0.1278  1.7995 -0.5603
11910SOL     OW38361   8.343   3.913   1.865 -0.0647 -0.1526  0.3713
11910SOL    HW138362   8.401   3.930   1.939  0.5277  1.6917 -0.4421
11910SOL    HW238363   8.325   3.819   1.869  1.8921 -0.5370  1.4489
11911SOL     OW38364   7.125   8.900   1.789 -0.4349 -0.2790  0.1831
11911SOL    HW138365   7.135   8.886   1.694  0.0375  1.3295 -0.0316
11911SOL    HW238366   7.195   8.960   1.812 -0.1162 -1.1789  1.7209
11912SOL     OW38367   1.466   9.648   3.277 -0.0039 -0.5582  0.1199
11912SOL    HW138368   1.474   9.743   3.267  1.7502 -0.8410 -1.8214
11912SOL    HW238369   1.372   9.632   3.278 -0.3314  1.1564 -0.0824
11913SOL     OW38370   9.597   5.845   0.071  0.7315 -0.5697  0.4171
11913SOL    HW138371   9.588   5.750   0.071 -0.6674 -0.5019 -1.4250
11913SOL    HW238372   9.658   5.863  -0.002 -0.6766 -0.0042 -0.6759
11914SOL     OW38373   1.724   2.655   4.197  0.7858 -0.3283 -0.8014
11914SOL    HW138374   1.730   2.602   4.118  1.6463 -2.9942  0.8905
11914SOL    HW238375   1.652   2.615   4.247  1.4872  0.0377  0.5617
11915SOL     OW38376   8.913   6.145   3.517 -0.3120 -0.0337  0.5874
11915SOL    HW138377   8.832   6.094   3.516 -1.9752  2.3745 -1.7929
11915SOL    HW238378   8.898   6.213   3.582  0.6997 -0.7906  1.6452
11916SOL     OW38379   1.462   6.515   3.373 -0.2415  0.3813 -0.3752
11916SOL    HW138380   1.474   6.452   3.302  0.7328  1.4226 -1.1733
11916SOL    HW238381   1.544   6.510   3.423 -0.2589  0.8281 -0.2969
11917SOL     OW38382   6.336   8.101   7.069  0.8234 -0.3854 -0.1990
11917SOL    HW138383   6.383   8.166   7.121  1.3871 -0.6233 -0.3972
11917SOL    HW238384   6.247   8.102   7.103  0.6050  1.1052 -0.7821
11918SOL     OW38385   6.380   0.337   3.593 -0.0104 -0.4761  0.3176
11918SOL    HW138386   6.317   0.362   3.661 -1.1347 -0.7902 -0.5710
11918SOL    HW238387   6.384   0.413   3.534 -1.7657 -1.4541 -1.1780
11919SOL     OW38388   9.095   3.299   7.534 -0.6551 -0.2377  0.2813
11919SOL    HW138389   9.181   3.258   7.527 -0.5372 -0.4452  2.2968
11919SOL    HW238390   9.048   3.270   7.456  1.4941  0.9584 -1.5876
11920SOL     OW38391   3.937   2.278   7.427 -0.0253  0.3215 -0.4719
11920SOL    HW138392   3.957   2.250   7.338  0.0121 -0.7014 -0.1640
11920SOL    HW238393   4.017   2.260   7.477 -0.2393  0.3181 -0.1202
11921SOL     OW38394   1.851   8.050   3.437 -0.5988 -0.5170  0.1116
11921SOL    HW138395   1.856   7.995   3.358  1.1206 -2.5738  1.5438
11921SOL    HW238396   1.757   8.057   3.455 -0.9494 -1.4860 -1.1221
11922SOL     OW38397   7.654   6.417   6.277 -0.3089  0.1433  0.5178
11922SOL    HW138398   7.714   6.473   6.327 -2.0962  2.4256  0.2981
11922SOL    HW238399   7.567   6.450   6.299 -1.3580 -1.3571 -1.1329
11923SOL     OW38400   2.219   3.651   9.388 -0.0561  0.1214 -0.1180
11923SOL    HW138401   2.314   3.664   9.391 -0.1671  0.8472  0.7148
11923SOL    HW238402   2.202   3.618   9.300  0.9281  0.3379 -0.4022
11924SOL     OW38403  10.200   9.849  10.347 -0.6208  0.1867  0.3132
11924SOL    HW138404  10.283   9.890  10.371 -0.7408  0.9829 -0.5957
11924SOL    HW238405  10.134   9.899  10.396 -0.8448  1.6678 -1.4138
11925SOL     OW38406   2.248   2.674   4.458 -0.5998  0.0069  0.2444
11925SOL    HW138407   2.325   2.655   4.513 -0.3722 -0.5242 -0.2473
11925SOL    HW238408   2.240   2.769   4.461  1.5257  0.3476 -1.5620
11926SOL     OW38409   6.820   3.448   5.749  0.1048 -0.6028  0.1748
11926SOL    HW138410   6.904   3.405   5.769  0.2214 -0.8895 -0.8989
11926SOL    HW238411   6.780   3.462   5.835  2.3424  1.8354  0.9409
11927SOL     OW38412   1.741   3.676  10.300  0.5911 -0.0860  0.6217
11927SOL    HW138413   1.699   3.751  10.259  1.5858  0.2834  0.2490
11927SOL    HW238414   1.824   3.710  10.334  0.7874 -0.8871  0.9695
11928SOL     OW38415   7.587   7.055   1.773 -0.0663  0.0713 -0.4213
11928SOL    HW138416   7.654   7.093   1.716  1.9414 -1.4043  0.8282
11928SOL    HW238417   7.586   6.962   1.751  0.1195 -0.3761  1.2938
11929SOL     OW38418   5.608   9.816   9.769  0.0139  0.2190 -0.1039
11929SOL    HW138419   5.660   9.896   9.761  0.1669  0.4991  2.5938
11929SOL    HW238420   5.627   9.766   9.690  3.0423  1.1156 -0.0601
11930SOL     OW38421   8.626   1.536   8.182  0.1142  0.2483 -0.0890
11930SOL    HW138422   8.646   1.442   8.188 -0.0637  0.1259 -1.1341
11930SOL    HW238423   8.695   1.571   8.126 -0.1542  0.6255 -0.1824
11931SOL     OW38424   2.247   5.890   6.575  0.1201  0.0706 -0.3444
11931SOL    HW138425   2.160   5.860   6.549 -0.5581  2.1693 -0.6281
11931SOL    HW238426   2.298   5.809   6.584 -1.1515 -1.0648 -2.6034
11932SOL     OW38427   3.248   5.514   2.124 -0.3988  0.1500  0.3467
11932SOL    HW138428   3.334   5.499   2.087 -0.5622  1.5823 -0.6921
11932SOL    HW238429   3.265   5.560   2.207 -0.1165 -1.4247  1.2060
11933SOL     OW38430   7.364   7.810   0.114  0.2814  0.3092 -0.4388
11933SOL    HW138431   7.445   7.840   0.156  0.5819 -2.4374  1.1822
11933SOL    HW238432   7.295   7.840   0.173  0.4207 -0.2294  0.0160
11934SOL     OW38433   1.002   4.149   6.875 -0.0410  0.2636 -0.1864
11934SOL    HW138434   0.962   4.066   6.903  0.8720 -0.4039 -0.8012
11934SOL    HW238435   0.935   4.190   6.820 -0.8986  0.4354  0.9513
11935SOL     OW38436   1.665   5.715   1.197  0.5560 -0.1530  0.3562
11935SOL    HW138437   1.676   5.758   1.283  1.3144  0.9757 -0.2789
11935SOL    HW238438   1.584   5.665   1.206 -0.3190  1.3248  1.2080
11936SOL     OW38439   4.724   5.632   3.292  0.2598 -0.3769 -0.0883
11936SOL    HW138440   4.790   5.672   3.348  0.6055 -0.8822 -0.1282
11936SOL    HW238441   4.668   5.705   3.265  1.1775  0.1671 -0.5706
11937SOL     OW38442   9.207   1.728   1.898  0.4216  0.8029  0.1869
11937SOL    HW138443   9.189   1.652   1.953 -0.1118  1.5410  1.0615
11937SOL    HW238444   9.133   1.732   1.837  1.6892 -0.8273 -1.5746
11938SOL     OW38445   3.573   3.576   9.207  0.5980 -0.0427 -0.2532
11938SOL    HW138446   3.597   3.492   9.168  0.6947  0.2909 -0.9246
11938SOL    HW238447   3.652   3.629   9.202  0.9271 -0.3306  1.3746
11939SOL     OW38448   5.759   1.354  10.182  0.0226  0.1136 -0.7468
11939SOL    HW138449   5.790   1.433  10.138 -1.6931 -0.6058 -3.4902
11939SOL    HW238450   5.694   1.386  10.246  2.4393  1.1677  1.3404
11940SOL     OW38451   8.120   9.798   1.195  0.0044 -0.2126 -0.7020
11940SOL    HW138452   8.176   9.851   1.250 -1.2823 -0.6840  1.1473
11940SOL    HW238453   8.057   9.860   1.158  0.9201  0.1174 -1.7638
11941SOL     OW38454   1.923   0.165   5.814 -0.1479 -0.6397 -0.2907
11941SOL    HW138455   1.946   0.107   5.887  0.3107  0.4649  0.4630
11941SOL    HW238456   1.999   0.163   5.757  0.4400  0.2805  0.4358
11942SOL     OW38457   6.886   4.365   9.939  0.3760  0.2476  0.0917
11942SOL    HW138458   6.830   4.329  10.008 -2.8075  2.5231 -1.0138
11942SOL    HW238459   6.964   4.396   9.984 -0.1982 -1.1398  2.1456
11943SOL     OW38460   7.597   6.274   1.485 -0.4383 -0.2179  0.2952
11943SOL    HW138461   7.624   6.200   1.431  0.9203 -1.6916  2.8080
11943SOL    HW238462   7.503   6.284   1.467 -0.0085 -0.4684 -2.4136
11944SOL     OW38463   5.881   5.390   7.745 -0.0465  0.1170 -0.1363
11944SOL    HW138464   5.842   5.470   7.712  1.0995  0.6922 -0.1424
11944SOL    HW238465   5.858   5.323   7.680 -1.3654  0.3290  0.0920
11945SOL     OW38466   2.475   2.745   2.515 -0.0191  0.7175 -0.2198
11945SOL    HW138467   2.395   2.796   2.524 -0.5391  0.1486 -1.4301
11945SOL    HW238468   2.446   2.659   2.483  1.0961  0.6109 -0.9883
11946SOL     OW38469   9.405   4.172   7.393 -1.4266 -0.3266  0.4576
11946SOL    HW138470   9.390   4.099   7.453 -0.8177 -0.3537  0.5873
11946SOL    HW238471   9.349   4.242   7.427  1.1119  0.7005  2.9734
11947SOL     OW38472   1.142   7.576   2.395  0.5506 -0.2217  0.0607
11947SOL    HW138473   1.086   7.641   2.352  1.0666  2.0779  2.5559
11947SOL    HW238474   1.097   7.556   2.477  1.1939 -1.8538  0.0520
11948SOL     OW38475   2.546  10.058  10.264 -0.2865 -0.4364  0.3451
11948SOL    HW138476   2.628  10.093  10.299 -0.9806  2.0332 -0.2795
11948SOL    HW238477   2.573   9.992  10.201  1.3059  0.9769 -0.5499
11949SOL     OW38478   9.853   0.576   5.927 -0.0993  0.2658  0.6867
11949SOL    HW138479   9.887   0.647   5.981  0.2188 -0.7367  1.8302
11949SOL    HW238480   9.869   0.496   5.977 -0.9518 -0.5821 -0.3176
11950SOL     OW38481   8.813   6.316   9.397  0.6766 -0.6476 -0.5032
11950SOL    HW138482   8.774   6.229   9.408  1.7663 -1.1736 -0.6964
11950SOL    HW238483   8.863   6.309   9.316 -1.1551  0.9098 -1.8681
11951SOL     OW38484   6.541   2.489   8.856  0.0176 -0.1768  0.4715
11951SOL    HW138485   6.605   2.483   8.785 -1.8165 -1.7131 -1.1640
11951SOL    HW238486   6.592   2.518   8.932  2.0993  1.3151 -1.3777
11952SOL     OW38487   2.397   8.216   3.817  0.2481 -0.3180 -0.1962
11952SOL    HW138488   2.432   8.191   3.903  1.8607  0.7957 -0.4770
11952SOL    HW238489   2.412   8.139   3.763 -1.4211 -1.2903  0.6525
11953SOL     OW38490   8.155   0.657   2.833 -0.0483 -0.8855  0.3480
11953SOL    HW138491   8.157   0.648   2.928  0.6869  2.5011  0.7804
11953SOL    HW238492   8.246   0.675   2.809 -0.6024  0.9323 -0.5787
11954SOL     OW38493   5.382   8.586   5.321 -0.1077 -0.3958  0.2584
11954SOL    HW138494   5.467   8.624   5.300  0.1846 -1.0604  0.2013
11954SOL    HW238495   5.376   8.509   5.265 -0.6939 -0.4223  0.3537
11955SOL     OW38496   2.672   1.595   7.959  0.2993  0.7612  0.5716
11955SOL    HW138497   2.746   1.534   7.963 -0.1224  0.2468  0.6773
11955SOL    HW238498   2.630   1.576   7.875 -1.2258 -0.7639  1.6117
11956SOL     OW38499   4.517   3.792   0.155 -0.4522 -0.4019  0.4191
11956SOL    HW138500   4.448   3.745   0.108  0.9154 -2.0007 -0.0815
11956SOL    HW238501   4.477   3.877   0.177 -1.4353  0.1361 -2.8952
11957SOL     OW38502   5.504   4.460   0.892 -0.5626  0.2111 -0.0916
11957SOL    HW138503   5.469   4.450   0.804 -1.4980  0.7498  0.2062
11957SOL    HW238504   5.456   4.534   0.929 -1.3420 -0.9823  1.4291
11958SOL     OW38505   2.258   0.567   8.799  0.4505 -0.4874 -0.1549
11958SOL    HW138506   2.259   0.600   8.889  1.3413  0.5716 -0.5253
11958SOL    HW238507   2.166   0.571   8.774  0.1696 -0.9435  0.7552
11959SOL     OW38508   3.144   8.873   0.234  0.0619  0.5452  0.3643
11959SOL    HW138509   3.203   8.943   0.259 -1.3745  2.1329 -0.4547
11959SOL    HW238510   3.105   8.843   0.317  1.1617  0.2380  0.7832
11960SOL     OW38511   6.576   0.657   5.665 -0.3615 -0.2399 -0.9538
11960SOL    HW138512   6.513   0.681   5.733  1.5914  0.5151  0.6546
11960SOL    HW238513   6.616   0.740   5.639  1.8738 -0.9566  0.0123
11961SOL     OW38514   3.053  10.238   7.275  0.1366  0.3803  0.3715
11961SOL    HW138515   3.121  10.172   7.262 -2.2983 -2.3309  0.4557
11961SOL    HW238516   3.027  10.264   7.187 -0.1995 -0.2345  0.2857
11962SOL     OW38517   0.619   2.798   8.066  0.2982  0.1364  0.2005
11962SOL    HW138518   0.629   2.850   7.987  0.8148 -0.9259 -0.4632
11962SOL    HW238519   0.688   2.732   8.061  0.2121 -0.0858  1.4358
11963SOL     OW38520   1.500   1.479   2.104  0.4457 -0.1642 -0.1851
11963SOL    HW138521   1.497   1.534   2.182 -3.1834 -0.4608  0.0401
11963SOL    HW238522   1.516   1.391   2.137  0.7327 -0.0418  0.0096
11964SOL     OW38523   5.008   4.316   4.940 -0.0823  0.0352  0.1423
11964SOL    HW138524   5.036   4.407   4.948 -0.2186  0.0336  0.6526
11964SOL    HW238525   5.011   4.298   4.846  0.0150  0.5437  0.0480
11965SOL     OW38526   4.693   0.309   9.648  0.3303 -0.1252  0.4945
11965SOL    HW138527   4.679   0.391   9.695 -0.6354 -0.1642  0.3010
11965SOL    HW238528   4.620   0.253   9.674 -0.0292 -0.2751 -0.7580
11966SOL     OW38529   8.478   5.426   0.649 -0.2437 -0.0314 -0.0796
11966SOL    HW138530   8.564   5.432   0.691 -0.2704  0.8791 -0.1409
11966SOL    HW238531   8.418   5.408   0.720 -0.2883  1.5046  0.3039
11967SOL     OW38532   0.913   5.723   9.630  0.0821  0.1191  0.0136
11967SOL    HW138533   0.972   5.773   9.573 -0.4117 -1.0133 -1.5616
11967SOL    HW238534   0.838   5.702   9.574 -0.6696 -0.5970  1.2521
11968SOL     OW38535   2.226   4.019   3.392 -0.6359  0.4003 -0.3776
11968SOL    HW138536   2.271   4.058   3.468 -0.2548  0.4602 -0.6300
11968SOL    HW238537   2.158   4.082   3.370 -0.3477  0.6872 -0.4651
11969SOL     OW38538   0.185   8.707   6.680 -0.1100  0.7700 -0.6746
11969SOL    HW138539   0.091   8.728   6.681 -0.0030  1.3580 -1.8655
11969SOL    HW238540   0.192   8.631   6.622 -0.1100 -0.8123  1.2690
11970SOL     OW38541   4.605   2.474  10.096 -0.5022 -1.1074 -0.1078
11970SOL    HW138542   4.606   2.490  10.191  1.3619  0.0360 -0.2648
11970SOL    HW238543   4.688   2.430  10.079 -0.6122 -0.8893 -1.2718
11971SOL     OW38544   0.123   6.729   7.287  0.4652 -0.1258  0.2581
11971SOL    HW138545   0.156   6.756   7.202 -0.9859 -0.3343 -0.4023
11971SOL    HW238546   0.073   6.805   7.318  1.7708  0.3239  1.4038
11972SOL     OW38547   8.859   8.209  10.292 -0.1050  0.1363  0.1893
11972SOL    HW138548   8.801   8.210  10.215  0.3015  0.7730 -0.1251
11972SOL    HW238549   8.880   8.117  10.305 -0.5237 -0.0204 -0.2059
11973SOL     OW38550   2.018   5.301   3.496  0.2188  1.0585 -0.3767
11973SOL    HW138551   2.070   5.333   3.569  1.6657  0.5719 -1.1580
11973SOL    HW238552   2.082   5.261   3.437 -1.3422 -2.8451  0.2891
11974SOL     OW38553   6.892   5.390   5.761 -0.6998  0.2035 -0.0734
11974SOL    HW138554   6.851   5.383   5.847  0.2267 -0.5058  0.3202
11974SOL    HW238555   6.931   5.304   5.746  0.0280  0.6398 -0.7527
11975SOL     OW38556   5.226   2.431   1.535 -0.4471 -0.4511  0.1363
11975SOL    HW138557   5.198   2.403   1.622 -1.5828  0.3379  0.0525
11975SOL    HW238558   5.208   2.355   1.479 -1.8293 -0.2146  0.2188
11976SOL     OW38559   4.289   7.273   4.344  0.0620  0.1945  0.8472
11976SOL    HW138560   4.372   7.261   4.298 -1.4497  0.3756 -2.2328
11976SOL    HW238561   4.269   7.187   4.381  0.1074 -0.7942 -1.2655
11977SOL     OW38562   9.276   0.478   1.994 -0.0818 -0.1329 -0.4917
11977SOL    HW138563   9.353   0.524   2.027 -1.3313  0.4007  1.8910
11977SOL    HW238564   9.283   0.390   2.031 -1.1463  0.2645  0.7418
11978SOL     OW38565   6.241   1.547   3.375 -0.8318  0.1318 -0.7863
11978SOL    HW138566   6.251   1.453   3.385 -1.4185  0.1103 -0.3433
11978SOL    HW238567   6.183   1.573   3.446 -0.0743  0.9463 -0.4521
11979SOL     OW38568   1.838   7.532   7.055  0.0350  1.2175  0.0656
11979SOL    HW138569   1.820   7.441   7.080 -0.4471  1.5025  0.8033
11979SOL    HW238570   1.861   7.574   7.138  0.4081  1.7358 -0.2996
11980SOL     OW38571   4.420   6.119   2.523  0.3452  0.0246 -0.0153
11980SOL    HW138572   4.445   6.209   2.541 -1.3999  0.2469  1.6434
11980SOL    HW238573   4.501   6.077   2.494  1.1159  2.1830 -1.2003
11981SOL     OW38574   2.970   7.795   4.540 -0.1498 -0.8111  0.5230
11981SOL    HW138575   2.989   7.888   4.534 -1.4563 -0.4934  1.0536
11981SOL    HW238576   2.911   7.786   4.614 -0.0527 -2.0684  0.4816
11982SOL     OW38577   8.273   7.611   8.753  0.2848  0.4087 -0.5075
11982SOL    HW138578   8.222   7.691   8.766 -1.0906 -0.3669 -0.9883
11982SOL    HW238579   8.345   7.618   8.817 -0.7115  1.2910  0.5555
11983SOL     OW38580   5.176   9.665   2.719  0.5236  0.4732  0.2501
11983SOL    HW138581   5.262   9.696   2.747  0.6279 -0.3517  0.9031
11983SOL    HW238582   5.167   9.580   2.761 -1.1673  1.1153  1.2945
11984SOL     OW38583   0.009   1.606   1.128  0.8728  0.0483  0.0110
11984SOL    HW138584  -0.076   1.639   1.158  0.4494 -0.0440 -1.0257
11984SOL    HW238585   0.068   1.681   1.134  1.2932 -0.4002  2.7527
11985SOL     OW38586   4.619  10.156   8.303  0.1621 -0.3314  1.0543
11985SOL    HW138587   4.623  10.229   8.241  0.5264 -2.3621 -1.4727
11985SOL    HW238588   4.542  10.175   8.357 -1.9181  0.2322 -1.8829
11986SOL     OW38589   0.748   3.138   6.140  0.1158  0.7151 -0.4784
11986SOL    HW138590   0.762   3.228   6.171  1.3263  1.2015 -2.2952
11986SOL    HW238591   0.814   3.125   6.073  0.1532 -1.6701 -0.0665
11987SOL     OW38592   3.983   2.718   5.676  0.3525 -0.0026 -0.1358
11987SOL    HW138593   3.913   2.762   5.724  0.4116  0.5908 -0.5862
11987SOL    HW238594   4.055   2.782   5.675  2.0051 -1.6015  2.8058
11988SOL     OW38595   3.025   8.986  10.039 -0.3541 -0.1643 -0.2942
11988SOL    HW138596   3.118   8.986  10.018  0.2297 -0.3234  1.9894
11988SOL    HW238597   2.997   8.895  10.028  1.2135 -1.4644  4.2233
11989SOL     OW38598   0.316   3.775   0.255  0.4762 -0.9757  0.2904
11989SOL    HW138599   0.316   3.751   0.348 -0.6464  0.4230  0.7005
11989SOL    HW238600   0.300   3.870   0.256  2.3869 -0.5844 -1.2773
11990SOL     OW38601   6.366   9.219   9.454  0.1623 -0.3216 -0.4935
11990SOL    HW138602   6.341   9.127   9.451 -0.1610 -0.3732  2.0037
11990SOL    HW238603   6.454   9.219   9.491  1.0024  0.3022 -2.3676
11991SOL     OW38604   5.984   6.157   7.601  0.2553  0.2755  0.1802
11991SOL    HW138605   5.965   6.066   7.580  1.4509  0.4861 -2.2713
11991SOL    HW238606   5.926   6.179   7.673 -0.4199 -2.2648  0.4815
11992SOL     OW38607   1.636   9.058   1.536 -0.1753 -0.2218  0.2273
11992SOL    HW138608   1.701   9.124   1.513  0.0322 -0.4240  0.2348
11992SOL    HW238609   1.588   9.043   1.455 -1.3015  1.1214  0.5954
11993SOL     OW38610   0.382   8.773   2.634  0.3080 -0.1638 -0.5766
11993SOL    HW138611   0.457   8.721   2.606 -0.6130 -1.1652 -1.2479
11993SOL    HW238612   0.333   8.791   2.554 -1.3570 -1.4525  0.0846
11994SOL     OW38613   5.469   4.962   6.245 -0.2721 -0.1445  0.1179
11994SOL    HW138614   5.448   5.029   6.310  0.2227  0.0945  0.0304
11994SOL    HW238615   5.424   4.883   6.278  0.0539 -0.0539  0.8026
11995SOL     OW38616   2.373   1.237   3.996 -0.0906  0.3680  0.5399
11995SOL    HW138617   2.317   1.178   4.046 -1.2261  0.3853 -0.6561
11995SOL    HW238618   2.340   1.325   4.017  1.0518  0.5636  1.6594
11996SOL     OW38619   7.011   7.504   8.202 -0.0210 -0.7250 -0.1947
11996SOL    HW138620   7.055   7.452   8.269  1.0546  2.3643  1.7123
11996SOL    HW238621   6.928   7.531   8.243  0.5098  0.9479 -0.1492
11997SOL     OW38622   5.871   4.440   7.705  0.3964  0.2551 -0.0720
11997SOL    HW138623   5.831   4.515   7.748 -0.5182 -0.2720  0.0239
11997SOL    HW238624   5.807   4.413   7.639  1.2580  0.3129 -0.9503
11998SOL     OW38625   1.183   3.878   4.836  0.2564 -1.0284 -0.2192
11998SOL    HW138626   1.126   3.938   4.787 -0.8504 -0.7097  1.3717
11998SOL    HW238627   1.218   3.819   4.769 -2.1806 -1.4281 -1.2676
11999SOL     OW38628   6.487   5.749  10.308 -0.0261  0.0897 -0.7117
11999SOL    HW138629   6.452   5.812  10.371  1.0806  0.2252 -0.2063
11999SOL    HW238630   6.580   5.770  10.303  0.5412 -1.9828  0.0615
12000SOL     OW38631  10.276   0.611   9.206  0.1596 -0.2006 -0.3581
12000SOL    HW138632  10.248   0.536   9.153  0.1935  0.2440 -1.0068
12000SOL    HW238633  10.358   0.639   9.166  2.1875 -2.1064  2.0961
12001SOL     OW38634  10.032   4.394   8.009  0.8479  0.6318 -0.3563
12001SOL    HW138635  10.060   4.327   7.946  1.8852  1.0509 -0.3692
12001SOL    HW238636  10.101   4.394   8.076 -1.6123 -1.9112  2.5101
12002SOL     OW38637   8.346   7.507   3.313 -0.0706  0.3227  0.1921
12002SOL    HW138638   8.440   7.496   3.326 -0.0363  0.0164 -0.2681
12002SOL    HW238639   8.312   7.532   3.399  0.3593 -0.0484  0.4721
12003SOL     OW38640   5.626   1.242   9.966 -0.0596 -0.0227 -0.1289
12003SOL    HW138641   5.622   1.149   9.987  0.7851 -0.3286 -1.2456
12003SOL    HW238642   5.696   1.276  10.022 -1.4698  0.3163  1.5075
12004SOL     OW38643   9.057   1.089   9.332 -0.0087 -0.0910 -0.1462
12004SOL    HW138644   9.090   1.114   9.418 -0.4675 -1.2582  0.3958
12004SOL    HW238645   9.130   1.104   9.272  0.5412  0.0717  0.5666
12005SOL     OW38646   3.054   8.321   3.736  0.3834 -0.5490  0.5929
12005SOL    HW138647   3.078   8.252   3.798  1.1624 -1.9508 -1.1970
12005SOL    HW238648   3.131   8.377   3.730 -0.6185  1.2660  2.9004
12006SOL     OW38649   1.710   2.279   2.886  0.5585  0.5211 -0.4021
12006SOL    HW138650   1.654   2.354   2.903  0.2628  0.7436 -2.2374
12006SOL    HW238651   1.670   2.207   2.936  0.4520  1.3936  0.8004
12007SOL     OW38652   6.406   0.088   1.591  0.5144 -0.0107  0.1232
12007SOL    HW138653   6.448   0.061   1.509 -1.1464 -1.8724 -0.1963
12007SOL    HW238654   6.446   0.032   1.658 -0.9776 -1.4047 -0.0999
12008SOL     OW38655   4.050   7.364   3.992  0.0569 -0.1722  0.1765
12008SOL    HW138656   4.072   7.273   4.014 -0.7145 -0.6201 -0.7973
12008SOL    HW238657   4.059   7.367   3.896  1.7769  1.2597  0.3306
12009SOL     OW38658   9.991   1.207   7.604  0.2582 -0.2427 -0.7563
12009SOL    HW138659   9.997   1.139   7.671  0.1912 -0.2161 -0.7225
12009SOL    HW238660  10.074   1.202   7.556 -0.1375 -0.9973 -1.3841
12010SOL     OW38661   0.692   0.267   5.232  0.0531 -0.1033 -0.1338
12010SOL    HW138662   0.608   0.283   5.275  1.4640  1.4342  2.3042
12010SOL    HW238663   0.711   0.175   5.249  0.9208  0.5996  3.5191
12011SOL     OW38664   6.146   4.667   3.954  0.0616 -0.2016 -0.0210
12011SOL    HW138665   6.100   4.589   3.986 -1.0280 -0.0893 -1.2243
12011SOL    HW238666   6.146   4.727   4.028 -1.6468 -0.2725  0.0813
12012SOL     OW38667   6.181   3.249   6.731 -0.0244 -0.4327  0.3207
12012SOL    HW138668   6.231   3.330   6.727 -0.5007 -0.1668 -0.6375
12012SOL    HW238669   6.095   3.275   6.764 -0.4851 -0.3694 -0.8876
12013SOL     OW38670   6.886   2.308   8.171 -0.0550 -0.4958 -0.0567
12013SOL    HW138671   6.847   2.286   8.086  0.3093 -0.3442 -0.2707
12013SOL    HW238672   6.878   2.228   8.223  1.0168 -1.0661 -0.7338
12014SOL     OW38673   1.354   6.365   9.171  0.7454  0.2059 -0.2914
12014SOL    HW138674   1.448   6.354   9.158  0.3424 -3.1801 -1.3356
12014SOL    HW238675   1.327   6.287   9.219 -1.7834  0.0930 -1.7148
12015SOL     OW38676   0.913   7.808   5.184 -0.3588 -0.2690  0.0994
12015SOL    HW138677   0.874   7.820   5.271  0.0176  0.2169  0.2055
12015SOL    HW238678   0.983   7.745   5.198 -0.7805 -0.7671  0.0013
12016SOL     OW38679   0.216   6.103   8.789  0.2809 -0.5431  0.2004
12016SOL    HW138680   0.198   6.196   8.804 -2.7429 -0.9898 -0.1639
12016SOL    HW238681   0.259   6.074   8.869 -0.5347  0.7485  1.1418
12017SOL     OW38682   2.514   2.919   5.679  0.0490  0.1586  0.2067
12017SOL    HW138683   2.490   2.845   5.622  0.8096 -1.0488  1.4068
12017SOL    HW238684   2.602   2.898   5.710  0.9262  2.3431 -0.6138
12018SOL     OW38685  10.141   4.107   2.710 -0.3247  0.5028  0.0171
12018SOL    HW138686  10.167   4.199   2.702 -2.2547  1.0540 -0.5741
12018SOL    HW238687  10.215   4.064   2.753  0.5640  2.3518  0.4131
12019SOL     OW38688   9.016   2.263   6.303 -0.5661 -0.3676  0.2021
12019SOL    HW138689   8.955   2.196   6.274 -1.4804  0.7380 -0.5164
12019SOL    HW238690   8.979   2.345   6.271  1.0463  0.3936  0.1493
12020SOL     OW38691   7.864   0.828   9.583 -0.1335  0.3201 -0.5898
12020SOL    HW138692   7.773   0.811   9.608 -0.4968  0.1958 -1.9250
12020SOL    HW238693   7.899   0.743   9.560  0.3862  0.3466  0.0708
12021SOL     OW38694   5.258   8.403   3.083  0.2752  0.1673  0.4273
12021SOL    HW138695   5.339   8.360   3.109  0.9960  1.4539  0.4248
12021SOL    HW238696   5.244   8.376   2.992  1.2528  0.7103  0.1033
12022SOL     OW38697   3.170   0.843   3.589 -0.1155 -0.0696 -0.1474
12022SOL    HW138698   3.189   0.804   3.504 -0.0660  1.1764 -0.7377
12022SOL    HW238699   3.081   0.876   3.581  0.8441  2.6762 -0.8146
12023SOL     OW38700   7.188   6.782   1.843  0.0129  0.5897 -0.2626
12023SOL    HW138701   7.225   6.865   1.872  0.5310  0.9916 -1.9477
12023SOL    HW238702   7.112   6.768   1.899  0.4055  1.7815  0.5926
12024SOL     OW38703   4.747  10.169   9.872 -0.0135 -0.2830 -0.3633
12024SOL    HW138704   4.734  10.142   9.781 -1.3850 -0.1243 -0.2473
12024SOL    HW238705   4.709  10.097   9.923  1.1116 -0.5616  0.1071
12025SOL     OW38706   5.614   5.001   0.623 -0.0855  0.6604  0.2456
12025SOL    HW138707   5.606   4.916   0.580 -2.6327  0.2474  1.3588
12025SOL    HW238708   5.703   5.002   0.658  1.2498 -0.0086 -2.7488
12026SOL     OW38709   0.177   7.281   3.624  0.2732  0.2008 -0.0890
12026SOL    HW138710   0.092   7.239   3.610  0.0323 -0.0724  1.9469
12026SOL    HW238711   0.156   7.359   3.676  1.4161 -0.9154  2.1712
12027SOL     OW38712   9.136   1.186   4.442  0.1913 -0.3149 -0.4393
12027SOL    HW138713   9.171   1.268   4.478  1.2479 -0.5844 -0.8353
12027SOL    HW238714   9.049   1.210   4.408 -0.4009  0.1809  1.3068
12028SOL     OW38715   2.072   7.626   2.399  0.2930 -0.3441 -0.4463
12028SOL    HW138716   2.018   7.609   2.323 -0.6557  1.3109 -0.1830
12028SOL    HW238717   2.035   7.571   2.468 -0.3808 -0.0245 -0.5525
12029SOL     OW38718   2.468   7.595   2.267  0.4005 -0.2667  0.5043
12029SOL    HW138719   2.468   7.536   2.192 -2.6942  1.4955 -1.0885
12029SOL    HW238720   2.410   7.555   2.331  2.5294 -1.4462  1.8278
12030SOL     OW38721   2.779   4.360   4.170  0.5209 -0.7782  0.3154
12030SOL    HW138722   2.866   4.349   4.208 -0.8847  0.1029  4.3306
12030SOL    HW238723   2.730   4.284   4.201 -0.7491 -0.0013  0.2687
12031SOL     OW38724   1.733   5.579   1.861  0.0136  0.0598 -0.5395
12031SOL    HW138725   1.747   5.648   1.925  0.0280  0.1776 -0.6684
12031SOL    HW238726   1.788   5.506   1.891 -0.4811 -0.1213 -0.0643
12032SOL     OW38727   2.340   1.964  10.224  0.0446  0.1535 -0.4271
12032SOL    HW138728   2.309   2.035  10.167 -0.3210 -0.0286 -0.4595
12032SOL    HW238729   2.262   1.935  10.271  0.7304  1.8484  1.9216
12033SOL     OW38730   1.771   8.903  10.102  0.5407  0.5094  0.1071
12033SOL    HW138731   1.738   8.913  10.192 -0.5034  2.7474 -0.4477
12033SOL    HW238732   1.718   8.832  10.065 -0.2359  0.7389  0.7464
12034SOL     OW38733  10.265   8.896   0.934 -0.0481 -0.3061 -0.1594
12034SOL    HW138734  10.275   8.927   0.844  1.0254 -1.1351 -0.3417
12034SOL    HW238735  10.287   8.803   0.930 -0.9342 -0.5667  0.7978
12035SOL     OW38736   4.082  10.150   9.848  0.3634  0.2989 -0.2719
12035SOL    HW138737   4.006  10.153   9.790 -0.1002 -1.4480  0.1956
12035SOL    HW238738   4.153  10.187   9.795 -0.6185  1.2040 -0.9940
12036SOL     OW38739   0.648   2.127   1.108  0.5627  0.3600 -0.4140
12036SOL    HW138740   0.738   2.150   1.084  0.3039  0.8555 -0.9401
12036SOL    HW238741   0.656   2.079   1.190  1.4049 -0.5757 -1.0287
12037SOL     OW38742   5.535   1.908   2.526 -0.1083 -0.2538  0.6524
12037SOL    HW138743   5.455   1.880   2.571  0.0852 -1.0252  0.5331
12037SOL    HW238744   5.599   1.920   2.596 -0.5027  1.0534  0.8215
12038SOL     OW38745   4.512   8.503   4.830  0.0976  0.1720 -0.2574
12038SOL    HW138746   4.541   8.529   4.742 -0.5903  0.2748 -0.4607
12038SOL    HW238747   4.450   8.432   4.814 -0.0318  0.1953  0.1494
12039SOL     OW38748   9.369   2.289   7.781 -0.5641  0.1048  0.5006
12039SOL    HW138749   9.442   2.257   7.834  0.1007  2.0324  0.8203
12039SOL    HW238750   9.405   2.293   7.692 -0.0908  1.5126  0.7358
12040SOL     OW38751   4.224  10.246   3.519 -0.3245  0.8244  0.1476
12040SOL    HW138752   4.159  10.203   3.463  0.7149 -0.2401 -0.2989
12040SOL    HW238753   4.183  10.251   3.605 -0.6219 -0.8181  0.1324
12041SOL     OW38754   1.201   9.940   9.622  0.0354 -0.3175  0.6487
12041SOL    HW138755   1.124   9.996   9.612 -0.4315 -1.1759 -0.9411
12041SOL    HW238756   1.274  10.001   9.638 -0.6514  0.6431  0.1801
12042SOL     OW38757   5.172  10.129   7.955 -0.5431 -0.4756  0.0814
12042SOL    HW138758   5.117  10.170   8.021 -0.6017 -0.9147  0.3098
12042SOL    HW238759   5.260  10.133   7.991 -0.6702 -1.3759  0.5349
12043SOL     OW38760   9.744   2.301   4.801  0.1204  0.2352  0.2108
12043SOL    HW138761   9.659   2.314   4.843  0.5149 -0.4635  1.2937
12043SOL    HW238762   9.768   2.388   4.768 -0.2391  0.8231  1.4316
12044SOL     OW38763   9.581   8.217   9.152  0.0828 -0.1508  0.1240
12044SOL    HW138764   9.641   8.144   9.166 -0.2180 -0.1392  1.5538
12044SOL    HW238765   9.522   8.215   9.227 -1.8726 -0.2910 -1.3488
12045SOL     OW38766   0.218   1.927   9.575 -0.1547 -0.5835  0.4565
12045SOL    HW138767   0.169   1.846   9.592 -0.9365 -0.1860  0.1471
12045SOL    HW238768   0.177   1.992   9.632  2.5659 -1.0687  3.2470
12046SOL     OW38769   4.177   4.343   1.622  0.0605  0.1948  0.9022
12046SOL    HW138770   4.237   4.381   1.558 -0.7925 -1.5388 -1.0431
12046SOL    HW238771   4.090   4.367   1.592 -0.3602 -0.5799  1.4515
12047SOL     OW38772   5.107   1.861   6.174 -0.5353 -0.1271  0.0501
12047SOL    HW138773   5.064   1.845   6.258 -0.2199 -0.4261  0.1606
12047SOL    HW238774   5.100   1.778   6.127 -0.8549  0.0875 -0.2872
12048SOL     OW38775   2.779   0.597   8.571 -0.1886  0.3480  0.0981
12048SOL    HW138776   2.838   0.522   8.563 -0.9013 -0.2667  0.4714
12048SOL    HW238777   2.752   0.598   8.663  1.0743  2.0576  0.4934
12049SOL     OW38778   7.224   4.873   3.001 -0.1741 -0.6101 -0.7309
12049SOL    HW138779   7.216   4.943   3.066  1.0264 -0.3245 -0.8546
12049SOL    HW238780   7.289   4.813   3.038  0.1368 -0.7140 -1.4133
12050SOL     OW38781   7.756   3.865   4.553  0.6400 -0.0792 -0.2488
12050SOL    HW138782   7.762   3.810   4.631  1.9498  2.0938  1.2987
12050SOL    HW238783   7.664   3.860   4.528  0.7481 -3.0622 -0.3237
12051SOL     OW38784   0.151   8.247   8.944 -0.0238  0.0555  0.1630
12051SOL    HW138785   0.065   8.217   8.974 -0.4924 -1.2927 -2.2976
12051SOL    HW238786   0.210   8.176   8.967 -0.3231 -0.8226 -1.6236
12052SOL     OW38787   3.952   9.014   9.614  0.1821  0.1270 -0.2227
12052SOL    HW138788   3.945   9.105   9.586 -1.5443  0.9273  2.4634
12052SOL    HW238789   3.864   8.978   9.603  0.2599 -0.4751  0.9132
12053SOL     OW38790  10.171   5.311   6.043  0.2079 -0.3654 -0.6125
12053SOL    HW138791  10.261   5.324   6.073  0.3863 -0.0732 -1.2568
12053SOL    HW238792  10.180   5.269   5.957 -0.2996 -1.5158 -0.1300
12054SOL     OW38793   5.288   1.756   3.053  0.5283  0.0084 -0.0164
12054SOL    HW138794   5.358   1.811   3.087 -0.7289  0.9834  1.1161
12054SOL    HW238795   5.223   1.753   3.123  0.2369 -2.4021 -0.3045
12055SOL     OW38796   4.818   7.198   4.086  0.0190  0.5183  0.3028
12055SOL    HW138797   4.756   7.125   4.086  1.1292 -0.5225 -1.8754
12055SOL    HW238798   4.862   7.192   4.171  1.3741 -2.6091 -0.4756
12056SOL     OW38799   2.917   2.050   3.360 -0.1469  0.1076 -0.1654
12056SOL    HW138800   2.932   1.958   3.335 -0.6981 -0.3269  1.0445
12056SOL    HW238801   2.845   2.046   3.422 -0.3819  1.4112 -0.3429
12057SOL     OW38802   4.654   2.821   9.727  0.0775  0.0031 -0.5279
12057SOL    HW138803   4.637   2.736   9.768 -2.3716  0.8301  0.3173
12057SOL    HW238804   4.627   2.810   9.636  0.7329 -0.3957 -0.6798
12058SOL     OW38805   8.383   9.226   8.577  0.0046  0.4621  0.3479
12058SOL    HW138806   8.301   9.188   8.608  0.0274  0.3280  0.2465
12058SOL    HW238807   8.450   9.162   8.602 -0.0124  0.2044 -0.2416
12059SOL     OW38808   3.298   2.981   4.861 -0.6009  0.5306  0.0006
12059SOL    HW138809   3.225   3.037   4.885 -0.3701  1.2382 -0.9034
12059SOL    HW238810   3.293   2.908   4.922 -0.3655  1.9654  1.8132
12060SOL     OW38811   4.415   0.083   6.088 -0.0016  0.0329 -0.2993
12060SOL    HW138812   4.492   0.041   6.127  0.5678  1.1377 -0.2148
12060SOL    HW238813   4.444   0.171   6.065 -0.5786 -0.2611 -2.3721
12061SOL     OW38814   1.911   1.975   1.455  0.0561 -0.1733 -0.7078
12061SOL    HW138815   1.963   1.954   1.532 -2.8442 -1.0075  1.1408
12061SOL    HW238816   1.919   2.070   1.446  1.0342 -0.1638  0.1304
12062SOL     OW38817   0.151   7.706   9.346 -0.3532  0.1302  0.0672
12062SOL    HW138818   0.203   7.695   9.266  0.3615 -0.6316  0.6242
12062SOL    HW238819   0.201   7.769   9.398 -2.9008  4.1042 -1.8089
12063SOL     OW38820   2.093   1.408   0.626 -0.0641  0.4358  0.6162
12063SOL    HW138821   2.021   1.420   0.565 -0.9626 -1.7039  1.1487
12063SOL    HW238822   2.061   1.445   0.708  1.1752  3.3875 -0.0977
12064SOL     OW38823   5.877   8.018   6.127  0.0565  0.1706 -0.2639
12064SOL    HW138824   5.898   8.111   6.125  1.0418 -0.0329 -0.0587
12064SOL    HW238825   5.863   7.998   6.219 -1.1619  0.3223 -0.4100
12065SOL     OW38826   1.349   9.130   0.849 -0.4132  0.0461  0.4982
12065SOL    HW138827   1.300   9.089   0.778  2.1155 -1.5598 -0.4957
12065SOL    HW238828   1.308   9.098   0.929 -0.9639 -1.2798 -0.2841
12066SOL     OW38829   4.873   8.846  10.258 -0.3815 -0.5521  0.2002
12066SOL    HW138830   4.848   8.864  10.349 -0.6570  2.0906 -0.3289
12066SOL    HW238831   4.944   8.782  10.265 -0.2531 -0.2518  2.2765
12067SOL     OW38832   2.822   7.046   8.205 -0.5257 -0.8165  0.0611
12067SOL    HW138833   2.730   7.031   8.229 -0.7185 -0.1999 -0.2587
12067SOL    HW238834   2.851   6.962   8.170 -1.9017 -0.2710 -2.7112
12068SOL     OW38835   9.920   5.017   2.805  0.4672 -0.4989  0.1952
12068SOL    HW138836   9.972   4.976   2.736  0.7778 -0.4333  0.3880
12068SOL    HW238837   9.831   5.017   2.770  0.8852  1.2280 -1.0281
12069SOL     OW38838   7.397   5.102   5.356  0.2690  0.3168  0.0791
12069SOL    HW138839   7.374   5.037   5.423 -2.3196  1.3739  0.3414
12069SOL    HW238840   7.482   5.137   5.385 -0.0507 -0.3328  1.9768
12070SOL     OW38841   2.208   7.068   2.802 -0.0138 -0.5188 -0.2822
12070SOL    HW138842   2.272   7.104   2.741 -0.7775  0.0723 -0.7497
12070SOL    HW238843   2.196   7.137   2.867 -0.7569 -0.3111 -0.6360
12071SOL     OW38844   4.564   4.705   1.392  0.0999 -0.3615  0.6796
12071SOL    HW138845   4.523   4.742   1.313  3.4797 -0.3797 -1.2919
12071SOL    HW238846   4.521   4.620   1.404 -0.8548 -0.1311 -0.8604
12072SOL     OW38847   6.710   7.928   7.075  0.0136  0.4528 -0.1294
12072SOL    HW138848   6.630   7.968   7.109 -0.0652 -0.2331  0.5122
12072SOL    HW238849   6.766   8.002   7.052 -0.1645  0.9396  0.9474
12073SOL     OW38850   3.561   1.385   5.288 -0.3098  0.2094 -0.0711
12073SOL    HW138851   3.593   1.470   5.260 -2.3449  1.0044 -0.1392
12073SOL    HW238852   3.493   1.405   5.352  0.7705 -1.4391  1.7158
12074SOL     OW38853   2.314   8.449   0.369  0.2482  0.1721 -0.6714
12074SOL    HW138854   2.261   8.447   0.289 -1.3556  0.4287  0.3320
12074SOL    HW238855   2.360   8.533   0.365 -2.2822  1.7038  0.1256
12075SOL     OW38856   7.788   5.178   6.303  0.6864  0.0527  0.1639
12075SOL    HW138857   7.805   5.186   6.209 -0.4925 -0.4920 -0.1237
12075SOL    HW238858   7.740   5.095   6.311  0.4436  0.2789  1.1981
12076SOL     OW38859   6.552   5.942   1.359 -0.1056  0.1852 -0.0789
12076SOL    HW138860   6.551   6.007   1.290  0.5665  0.4047  0.1117
12076SOL    HW238861   6.625   5.884   1.337 -0.5627 -0.3835 -0.1330
12077SOL     OW38862   8.028   2.819   1.061  0.3964 -0.2017  0.0022
12077SOL    HW138863   8.080   2.897   1.045  0.2022 -0.5190 -2.5547
12077SOL    HW238864   8.057   2.756   0.995 -0.4619 -1.7855  1.0555
12078SOL     OW38865   7.467   3.942   3.963  0.4779  0.6390  0.1863
12078SOL    HW138866   7.525   3.959   3.889  1.0478  0.0427  0.4789
12078SOL    HW238867   7.378   3.954   3.928  0.5019 -2.9255 -1.5975
12079SOL     OW38868   5.726   7.192   5.765  0.0239 -0.8685  0.1913
12079SOL    HW138869   5.648   7.220   5.814  1.6482  1.1206  1.8651
12079SOL    HW238870   5.785   7.157   5.832  1.2056 -0.7975 -0.7766
12080SOL     OW38871   6.711   8.259  10.326  0.4105  0.1440 -0.0461
12080SOL    HW138872   6.688   8.345  10.290 -2.6605  0.0499  1.3876
12080SOL    HW238873   6.684   8.264  10.418 -0.2728 -2.4825 -0.0353
12081SOL     OW38874   1.745   7.972   8.342 -0.6967 -0.1400 -0.2763
12081SOL    HW138875   1.663   8.000   8.383 -0.1800  2.0642 -0.6368
12081SOL    HW238876   1.782   8.052   8.306  1.0948 -1.2824 -1.0856
12082SOL     OW38877   5.976   3.383   3.559  0.0197 -0.2739 -0.3692
12082SOL    HW138878   6.035   3.456   3.538  0.5225 -0.8542 -1.0120
12082SOL    HW238879   5.985   3.323   3.485 -1.1398 -0.5290 -0.3133
12083SOL     OW38880   9.193   4.017   3.440 -0.0217  0.0312  0.2401
12083SOL    HW138881   9.244   3.937   3.426 -0.1537 -0.1638  0.8635
12083SOL    HW238882   9.214   4.045   3.529 -0.7312  0.1374  0.3846
12084SOL     OW38883   3.980   3.399   8.506  0.0571  1.1311 -0.3857
12084SOL    HW138884   3.978   3.473   8.566 -1.7013  0.6469  0.2149
12084SOL    HW238885   3.895   3.356   8.517  1.6105 -2.0150  0.5728
12085SOL     OW38886   1.481   7.839   7.937 -0.4937 -0.7891 -0.3804
12085SOL    HW138887   1.565   7.868   7.974  0.5892 -2.3450 -1.4758
12085SOL    HW238888   1.447   7.916   7.891  0.8221 -0.3866 -0.7261
12086SOL     OW38889   5.425  10.281   6.361 -0.1674 -0.0978 -0.0792
12086SOL    HW138890   5.431  10.251   6.270 -0.9689 -0.0220 -0.1614
12086SOL    HW238891   5.479  10.219   6.410  0.0059 -0.3347 -0.5582
12087SOL     OW38892   1.598   3.885   1.899 -0.0605  0.2134 -0.0854
12087SOL    HW138893   1.591   3.790   1.906 -1.8662  0.1815 -1.4036
12087SOL    HW238894   1.677   3.900   1.847  0.5161 -0.5365  0.5651
12088SOL     OW38895   2.456   2.461   2.734  0.0852 -0.3736  0.1872
12088SOL    HW138896   2.436   2.380   2.781 -0.6577 -0.1206  0.3163
12088SOL    HW238897   2.470   2.434   2.644  1.0940 -0.8058  0.4602
12089SOL     OW38898   7.162   7.625   7.991  0.2395 -0.1796 -0.2924
12089SOL    HW138899   7.114   7.596   8.069  0.7317  0.7338  0.3631
12089SOL    HW238900   7.101   7.684   7.947  0.6344  0.7714  0.4004
12090SOL     OW38901   4.525   3.326   3.397  0.2640  0.0115  0.2852
12090SOL    HW138902   4.589   3.391   3.428 -0.4212  0.7190  0.2577
12090SOL    HW238903   4.552   3.244   3.438  1.1282  0.3132  0.3525
12091SOL     OW38904   0.583   2.579   2.976  0.1499 -0.2000  0.8316
12091SOL    HW138905   0.588   2.508   3.040  0.2556 -1.2196 -0.2725
12091SOL    HW238906   0.655   2.637   2.999  1.4094 -1.5645  0.4881
12092SOL     OW38907   7.334   5.808   7.050  0.4796 -0.1502  0.1107
12092SOL    HW138908   7.369   5.747   6.985  3.0667  0.2856  0.9878
12092SOL    HW238909   7.378   5.785   7.132  1.0119  2.3773  0.6421
12093SOL     OW38910   4.889   1.172   1.907 -0.4505 -0.2131  0.0081
12093SOL    HW138911   4.889   1.246   1.845 -0.2959  1.1061  1.5159
12093SOL    HW238912   4.981   1.159   1.928 -0.2602 -2.1935 -1.7152
12094SOL     OW38913   0.714   1.805   5.528  0.3151  0.3445 -0.5117
12094SOL    HW138914   0.722   1.809   5.623  2.5693 -0.8746 -0.5882
12094SOL    HW238915   0.725   1.895   5.498  0.4884  0.6041  0.3143
12095SOL     OW38916   1.961   2.512   6.366 -0.2381 -0.1241 -0.2212
12095SOL    HW138917   1.916   2.595   6.381  0.4287  0.2609 -0.3493
12095SOL    HW238918   1.940   2.489   6.276 -2.4450 -1.3455  0.5154
12096SOL     OW38919   8.926   8.377   2.244  0.1014  0.7830  0.1949
12096SOL    HW138920   8.999   8.431   2.274  0.4665  0.4974 -0.1824
12096SOL    HW238921   8.851   8.435   2.247  0.5968  1.4884 -0.7835
12097SOL     OW38922   6.605   6.926   4.389  0.3669 -0.4091 -0.6037
12097SOL    HW138923   6.680   6.879   4.425  0.5205  1.1740  1.2998
12097SOL    HW238924   6.531   6.867   4.405  0.8142 -0.8257 -0.0234
12098SOL     OW38925   5.296   7.225   8.843 -0.6422  0.2115  0.4571
12098SOL    HW138926   5.268   7.197   8.930  1.1515 -2.7537  0.2150
12098SOL    HW238927   5.214   7.242   8.796 -1.8243 -1.5251  1.7324
12099SOL     OW38928   6.421   8.164   9.618  0.1761 -0.5285 -0.1925
12099SOL    HW138929   6.509   8.171   9.655  0.2100  3.8635 -0.5698
12099SOL    HW238930   6.364   8.203   9.685 -0.8383  0.5210 -1.6048
12100SOL     OW38931   9.895   2.089   0.939  0.0921  0.2549  0.0756
12100SOL    HW138932   9.905   2.060   1.030  1.0019  1.0012  0.2305
12100SOL    HW238933   9.801   2.089   0.924 -0.0820  0.2900  1.0787
12101SOL     OW38934   8.381   8.522   1.736  0.0304  0.2229 -0.2717
12101SOL    HW138935   8.362   8.547   1.826  0.1336  0.4763 -0.3188
12101SOL    HW238936   8.319   8.452   1.717  0.1992 -0.0301  0.0905
12102SOL     OW38937   7.656   9.038   0.639 -0.1155  0.0516 -0.2923
12102SOL    HW138938   7.724   9.064   0.702 -0.5435 -1.2872  0.7670
12102SOL    HW238939   7.575   9.040   0.690 -0.2906 -2.4956 -0.3341
12103SOL     OW38940   4.230   7.200   7.858  0.2622 -0.1184  0.2290
12103SOL    HW138941   4.157   7.248   7.897  0.6116  2.1808 -1.7537
12103SOL    HW238942   4.308   7.245   7.889  0.6754 -0.2354 -0.6246
12104SOL     OW38943   9.654   5.033   6.206 -1.1497 -0.1545 -0.0364
12104SOL    HW138944   9.664   4.940   6.229  1.9830  0.0299 -0.2054
12104SOL    HW238945   9.673   5.079   6.288  0.8044  0.3392 -0.7175
12105SOL     OW38946   1.494   3.738   0.162 -0.1287 -0.1641 -0.2200
12105SOL    HW138947   1.473   3.829   0.142  2.2742  0.6929  0.7846
12105SOL    HW238948   1.462   3.726   0.251 -1.6885 -0.7760 -0.8380
12106SOL     OW38949   4.507   8.912   9.480  0.2800 -0.2796  0.0666
12106SOL    HW138950   4.509   8.831   9.530 -0.2699 -0.8231 -0.7717
12106SOL    HW238951   4.425   8.954   9.505  0.3545 -0.1898  0.1650
12107SOL     OW38952   6.999   2.075   6.937 -0.6328 -0.5839 -0.6279
12107SOL    HW138953   7.059   2.142   6.906  0.3688 -1.8103 -1.4136
12107SOL    HW238954   6.924   2.124   6.972  0.4525  0.9461 -0.3595
12108SOL     OW38955   2.311   4.087   1.482  0.2441  0.2958  0.9622
12108SOL    HW138956   2.216   4.084   1.471  0.2003  2.1407  0.4987
12108SOL    HW238957   2.323   4.127   1.568  0.5701  1.8198  0.2363
12109SOL     OW38958   1.574   6.193   8.353  0.4032 -0.0118  0.0567
12109SOL    HW138959   1.634   6.153   8.290 -0.0071  0.1576 -0.4518
12109SOL    HW238960   1.547   6.275   8.311  0.2341  0.1749  0.5210
12110SOL     OW38961   7.662   8.440   8.565  0.0703 -0.1108 -0.7326
12110SOL    HW138962   7.719   8.378   8.520  0.3294  0.3658 -1.0714
12110SOL    HW238963   7.611   8.481   8.496  1.9174  2.1294 -0.9022
12111SOL     OW38964   1.342   0.680   4.735 -0.3263 -0.5745 -0.2427
12111SOL    HW138965   1.406   0.745   4.705 -0.2133  0.1199  1.4263
12111SOL    HW238966   1.262   0.702   4.687 -0.0438  0.2300 -0.3629
12112SOL     OW38967   5.937   0.878   8.787  0.1731 -0.0227  0.0641
12112SOL    HW138968   5.885   0.958   8.792  1.4178  0.7599  1.4963
12112SOL    HW238969   6.007   0.899   8.724 -0.0082 -0.3215 -0.2427
12113SOL     OW38970   8.867   9.886   8.740 -0.8532 -1.0370  0.2620
12113SOL    HW138971   8.848   9.793   8.731 -1.5285 -1.0751  1.8208
12113SOL    HW238972   8.801   9.929   8.685 -0.2973 -1.4690 -0.7692
12114SOL     OW38973   8.485   5.297   9.090  0.7266 -0.4098 -0.2030
12114SOL    HW138974   8.561   5.239   9.087  0.4074 -0.8581  0.2070
12114SOL    HW238975   8.466   5.306   9.184  0.3826 -0.1546 -0.2957
12115SOL     OW38976   9.355   2.719   9.789 -0.1346 -0.5541  0.4908
12115SOL    HW138977   9.416   2.698   9.859  0.3064  0.4589  0.4369
12115SOL    HW238978   9.301   2.789   9.825 -1.1401 -1.2989  0.4627
12116SOL     OW38979   3.390   4.680   4.108  0.3856  0.0187 -0.3725
12116SOL    HW138980   3.300   4.712   4.099  0.7046  1.2877  0.6885
12116SOL    HW238981   3.437   4.751   4.151  1.0519 -2.0166  2.5370
12117SOL     OW38982   1.066   4.664   9.920 -0.5009  0.3467 -0.4294
12117SOL    HW138983   1.058   4.573   9.892  0.6813  0.6680 -1.9064
12117SOL    HW238984   1.013   4.669   9.999 -0.3828 -1.6873 -0.1690
12118SOL     OW38985   5.160   8.912   7.732 -0.2985  0.7397 -0.1789
12118SOL    HW138986   5.175   9.006   7.726 -1.6889  0.9084 -2.0426
12118SOL    HW238987   5.071   8.904   7.766 -1.3367  0.2568 -2.7825
12119SOL     OW38988   9.964   6.365   3.969  0.2188  0.0655 -0.0974
12119SOL    HW138989  10.014   6.336   4.046 -1.1372 -2.4439 -0.0804
12119SOL    HW238990   9.991   6.306   3.899 -0.1383  0.9775 -1.0333
12120SOL     OW38991   5.353  10.292   8.881 -0.1584 -0.0318 -0.2194
12120SOL    HW138992   5.388  10.207   8.908 -0.1006 -0.0453 -0.3351
12120SOL    HW238993   5.378  10.352   8.951 -1.2013 -0.3424  0.4366
12121SOL     OW38994   3.089   2.714   7.569 -0.3857  0.0349  0.2320
12121SOL    HW138995   3.059   2.644   7.626  0.9369 -1.1842 -0.5056
12121SOL    HW238996   3.027   2.786   7.584 -1.9234 -1.3583  0.8317
12122SOL     OW38997   0.249   2.459   4.020  0.0178  0.5540  0.0929
12122SOL    HW138998   0.314   2.433   4.085  0.8878 -0.9510 -1.3054
12122SOL    HW238999   0.288   2.534   3.975  0.6181 -0.0801 -0.4590
12123SOL     OW39000  10.345   8.502   8.810 -0.1889  0.0329  0.5614
12123SOL    HW139001  10.292   8.487   8.888  0.1744  0.7886  0.9722
12123SOL    HW239002  10.435   8.502   8.843 -0.1221  2.9156  0.6412
12124SOL     OW39003   9.124   3.681   3.564 -0.4864 -0.4182  0.6053
12124SOL    HW139004   9.173   3.675   3.482 -0.5371 -0.7678  0.5993
12124SOL    HW239005   9.160   3.757   3.609 -0.1694 -0.4768  0.4488
12125SOL     OW39006   7.887   5.007  10.110  0.0985  0.2687  0.5346
12125SOL    HW139007   7.861   4.917  10.130 -0.3429  0.6265  1.6728
12125SOL    HW239008   7.981   5.011  10.132 -0.0173  0.2330  1.0467
12126SOL     OW39009   3.130   5.393   6.362 -0.2037 -0.4142  0.6841
12126SOL    HW139010   3.132   5.319   6.301 -2.2544 -1.1636  1.4170
12126SOL    HW239011   3.218   5.398   6.398  0.1193 -2.1581  0.2144
12127SOL     OW39012   3.103   6.107   1.454 -0.5120 -0.4701 -0.1441
12127SOL    HW139013   3.116   6.186   1.403 -0.5877 -0.6616 -0.4604
12127SOL    HW239014   3.116   6.135   1.545  0.6367 -0.3291 -0.3263
12128SOL     OW39015   9.835   4.279   2.352 -0.6656  0.6326  0.2935
12128SOL    HW139016   9.750   4.279   2.309 -1.2135 -1.2038  1.2982
12128SOL    HW239017   9.885   4.211   2.306  0.4587  2.0036 -0.5956
12129SOL     OW39018   8.194   4.847   0.385  0.4316  0.0846  0.1744
12129SOL    HW139019   8.234   4.849   0.298  0.5374 -2.3859  0.1047
12129SOL    HW239020   8.114   4.898   0.376 -0.2502 -1.2255 -1.7837
12130SOL     OW39021  10.047   1.533   3.120 -0.5971 -0.5636  0.7315
12130SOL    HW139022   9.973   1.561   3.174 -1.9692 -2.9631  0.2528
12130SOL    HW239023  10.066   1.608   3.064 -1.5732  0.6705  1.9857
12131SOL     OW39024   0.217   2.708   7.384 -0.0137 -0.4517  0.0824
12131SOL    HW139025   0.183   2.619   7.378 -0.4466 -0.2421 -0.7259
12131SOL    HW239026   0.145   2.759   7.420 -0.3384 -0.1442 -0.9544
12132SOL     OW39027  10.267   0.264   1.463  0.3476 -0.0488  0.2752
12132SOL    HW139028  10.303   0.303   1.543  3.2545  0.9387 -1.3675
12132SOL    HW239029  10.338   0.210   1.429  0.2959  1.6786 -2.9954
12133SOL     OW39030   1.008  10.207   6.670 -0.0673  0.0301  1.2850
12133SOL    HW139031   0.954  10.130   6.689  0.5773 -0.6329  0.5566
12133SOL    HW239032   1.098  10.176   6.681  0.2329  0.3798 -0.0056
12134SOL     OW39033   0.151   8.269   4.261  0.2239  0.4483 -0.2834
12134SOL    HW139034   0.164   8.174   4.258  1.9392  0.6726 -2.7805
12134SOL    HW239035   0.056   8.280   4.258  0.0273 -1.1856 -1.7046
12135SOL     OW39036   5.565   3.741   7.130  0.4283 -0.3259 -0.1228
12135SOL    HW139037   5.588   3.697   7.212 -0.4394 -1.4466 -0.4699
12135SOL    HW239038   5.536   3.828   7.157 -0.2959 -0.8412  0.8095
12136SOL     OW39039   2.664   0.353   9.097  0.4784  0.6138 -0.2592
12136SOL    HW139040   2.714   0.343   9.016  1.5676  0.2528  0.4275
12136SOL    HW239041   2.602   0.424   9.079  1.0298  0.8585 -1.2526
12137SOL     OW39042   4.548   8.616   2.314 -0.2714  0.1872 -0.4991
12137SOL    HW139043   4.468   8.592   2.361  0.7176 -0.6311  0.8719
12137SOL    HW239044   4.607   8.542   2.331  0.9524  1.0284 -1.0109
12138SOL     OW39045   9.473   3.595   8.159 -0.1698  0.0609  0.1960
12138SOL    HW139046   9.406   3.531   8.184 -0.3118 -0.4131 -1.3284
12138SOL    HW239047   9.540   3.544   8.113  1.1246  0.5761  1.4186
12139SOL     OW39048   1.664   6.575   5.996  0.3984  0.1880  0.4224
12139SOL    HW139049   1.607   6.616   5.931  0.9966  0.8079  0.2772
12139SOL    HW239050   1.620   6.592   6.080  1.8065  3.3244  0.6458
12140SOL     OW39051   2.967   3.045   2.595  0.1858  0.1728  0.4254
12140SOL    HW139052   3.045   3.092   2.625  0.0992  0.3203  0.4250
12140SOL    HW239053   2.896   3.108   2.607  0.0335 -0.0393  0.6377
12141SOL     OW39054   0.651   0.468   0.576  0.2494 -0.6413 -0.4921
12141SOL    HW139055   0.699   0.525   0.636  1.4007 -0.4220 -1.5777
12141SOL    HW239056   0.719   0.425   0.525 -0.6300 -2.3094 -0.3427
12142SOL     OW39057   6.601   8.626   8.339  0.1343  0.0373  0.1170
12142SOL    HW139058   6.694   8.636   8.359  0.1658 -0.7104  0.3523
12142SOL    HW239059   6.558   8.687   8.400  0.5591  1.8005 -1.2550
12143SOL     OW39060   6.919   9.120   4.900 -0.1919  0.3532 -0.2217
12143SOL    HW139061   6.869   9.190   4.857 -0.2211  1.1806  1.1079
12143SOL    HW239062   6.947   9.063   4.828 -2.9146 -0.0783 -1.0506
12144SOL     OW39063   7.594   9.786  10.026 -0.4041 -0.2188 -0.0180
12144SOL    HW139064   7.608   9.880  10.034 -0.2230 -0.3169  0.9955
12144SOL    HW239065   7.668   9.747  10.072  1.0526 -0.9395 -2.8132
12145SOL     OW39066   4.665   0.671   0.883 -0.7386  0.0663  0.2744
12145SOL    HW139067   4.663   0.719   0.801  0.4996  0.1533  0.2820
12145SOL    HW239068   4.713   0.591   0.863  0.1241  0.3746  1.0491
12146SOL     OW39069   0.335   4.646   0.495  0.1693 -0.1255  0.2371
12146SOL    HW139070   0.243   4.649   0.519  0.0194 -1.7110 -0.0722
12146SOL    HW239071   0.374   4.582   0.555  0.6106 -1.0843 -1.0304
12147SOL     OW39072   1.412   6.453   1.926 -0.3842  0.1381 -0.3523
12147SOL    HW139073   1.343   6.434   1.863 -0.4443  0.1831 -0.3015
12147SOL    HW239074   1.470   6.515   1.881 -1.6138  1.9099  0.3809
12148SOL     OW39075   0.496   0.878   0.250 -0.4224 -0.4797  0.2016
12148SOL    HW139076   0.441   0.808   0.216 -0.6475 -0.5904  0.7665
12148SOL    HW239077   0.546   0.910   0.175 -0.9571 -0.6605 -0.2329
12149SOL     OW39078   7.865  10.284   5.272  0.0142  0.1611 -0.4327
12149SOL    HW139079   7.824  10.327   5.197  0.3433  1.9285  0.3497
12149SOL    HW239080   7.856  10.348   5.344 -0.2172 -1.4355  1.0169
12150SOL     OW39081   4.545   2.662   5.241  0.5715  0.0438 -0.1010
12150SOL    HW139082   4.526   2.731   5.305  0.9299  1.3791 -1.3820
12150SOL    HW239083   4.465   2.654   5.190 -0.5986 -2.7268  1.9276
12151SOL     OW39084   4.669   0.091   1.848  0.2639 -0.2650  0.2753
12151SOL    HW139085   4.641   0.073   1.938  0.2004 -0.2973  0.2481
12151SOL    HW239086   4.588   0.099   1.798  0.2687  0.5956  0.3829
12152SOL     OW39087   7.850   3.028   0.775 -0.3858 -0.1565  0.2858
12152SOL    HW139088   7.852   2.996   0.685  1.1664 -0.2226  0.3249
12152SOL    HW239089   7.800   2.962   0.823 -0.1150 -0.7810 -0.2796
12153SOL     OW39090   6.217   0.889   9.863  0.2087  0.2291  0.0357
12153SOL    HW139091   6.212   0.819   9.798  2.1797  0.9481 -0.9940
12153SOL    HW239092   6.145   0.948   9.841 -0.0573 -0.3137 -0.5511
12154SOL     OW39093   1.224   5.660   3.347  0.1625  0.4531  0.1850
12154SOL    HW139094   1.315   5.678   3.327  0.1775  0.6856  0.4505
12154SOL    HW239095   1.175   5.701   3.276  0.1150  2.8432  1.4814
12155SOL     OW39096   8.034   1.007   2.453 -0.3290 -0.4855  0.1470
12155SOL    HW139097   8.050   1.046   2.367 -0.1849 -3.1563 -1.1718
12155SOL    HW239098   8.098   0.936   2.460 -1.6528 -1.6396  1.5219
12156SOL     OW39099   2.507   9.412   8.308  0.4237  0.5290 -0.5025
12156SOL    HW139100   2.539   9.374   8.390 -1.8810  0.9932  0.6809
12156SOL    HW239101   2.468   9.339   8.261 -0.5449  0.7014  0.0103
12157SOL     OW39102   9.429   3.036   7.996 -0.1091  0.1433 -0.0646
12157SOL    HW139103   9.342   2.996   7.990  0.2503 -0.7132  0.2958
12157SOL    HW239104   9.446   3.043   8.090  1.6378 -2.9788  0.0011
12158SOL     OW39105   2.786   5.670   0.483  0.4067 -0.3405  0.2875
12158SOL    HW139106   2.821   5.660   0.572 -2.5848  0.7549  1.7369
12158SOL    HW239107   2.738   5.753   0.485 -1.2849 -1.1644 -1.7697
12159SOL     OW39108   0.928   5.586   7.940  0.8691  1.0731 -0.0163
12159SOL    HW139109   0.883   5.559   7.860  0.1584 -0.5646  0.8546
12159SOL    HW239110   1.017   5.607   7.913  1.4403 -1.9932 -0.9562
12160SOL     OW39111   1.004   5.374   9.377 -0.3833 -0.4138  0.1771
12160SOL    HW139112   0.921   5.327   9.363 -0.1513 -0.8472  0.2221
12160SOL    HW239113   1.020   5.365   9.471  0.0045 -0.8352  0.0743
12161SOL     OW39114   5.003   6.280   3.318 -0.1514 -0.4404 -0.4676
12161SOL    HW139115   5.045   6.289   3.232 -0.1129 -1.2507 -0.5420
12161SOL    HW239116   4.973   6.368   3.339  1.2811  0.1088 -0.5702
12162SOL     OW39117   7.473   5.250   6.904 -0.3259  0.0429  0.4909
12162SOL    HW139118   7.563   5.217   6.901  0.3813  1.9029 -0.1132
12162SOL    HW239119   7.478   5.329   6.958 -1.1917  1.2379 -1.0884
12163SOL     OW39120   4.124   0.754   3.709 -0.4185  0.5927  0.5203
12163SOL    HW139121   4.197   0.737   3.767  1.8146 -1.7958 -2.6031
12163SOL    HW239122   4.047   0.725   3.758  0.8759  1.4155  3.2318
12164SOL     OW39123   3.435   9.930  10.354  0.2249  0.5368  0.1856
12164SOL    HW139124   3.400   9.950  10.267  0.4506 -0.1920 -0.0829
12164SOL    HW239125   3.421   9.836  10.365  0.7876  0.4998  0.6654
12165SOL     OW39126   4.984  10.049   9.957  0.1206  0.9598  0.3743
12165SOL    HW139127   4.944   9.980  10.009 -0.1351  1.1351  0.4103
12165SOL    HW239128   4.912  10.085   9.905  0.8178 -1.0463 -2.1920
12166SOL     OW39129   8.485   3.917   3.957  0.2697 -0.5505  0.1280
12166SOL    HW139130   8.403   3.966   3.967  0.0505 -0.7018 -0.8224
12166SOL    HW239131   8.545   3.980   3.915 -0.0012 -1.0606 -1.0634
12167SOL     OW39132   7.487   4.743   2.226  0.3279  0.3638  0.4601
12167SOL    HW139133   7.481   4.808   2.297 -0.3127  0.1358  0.6234
12167SOL    HW239134   7.480   4.659   2.270  0.3595  0.2078  0.1690
12168SOL     OW39135   9.480  10.230   9.719 -0.3213 -0.3154  0.1142
12168SOL    HW139136   9.574  10.217   9.702  0.3852  0.7266  2.6986
12168SOL    HW239137   9.454  10.298   9.657 -0.1785 -2.5745 -2.6221
12169SOL     OW39138   1.455   9.412   1.706  0.5960 -0.4185 -0.4586
12169SOL    HW139139   1.434   9.432   1.615 -0.2528 -1.9109 -0.6201
12169SOL    HW239140   1.397   9.469   1.757 -1.5204 -2.0655 -0.8983
12170SOL     OW39141   9.159   4.000   7.288 -0.7799 -0.4611 -0.0083
12170SOL    HW139142   9.146   4.091   7.262  1.5432  0.2505  1.0210
12170SOL    HW239143   9.191   4.005   7.378 -2.9670 -2.4763  0.9769
12171SOL     OW39144   1.353   5.520   5.033  0.3935  0.2220 -0.2642
12171SOL    HW139145   1.321   5.600   5.075 -1.5603 -0.0311 -1.1654
12171SOL    HW239146   1.429   5.494   5.086  0.5317  2.1681  0.5693
12172SOL     OW39147   2.088   8.064   4.193  0.2911  0.2134 -0.0154
12172SOL    HW139148   2.022   8.103   4.137 -0.2453 -0.2035  0.3192
12172SOL    HW239149   2.086   7.971   4.170  0.6418  0.1725  0.1157
12173SOL     OW39150   9.614   7.608   6.545 -0.6486  0.6293  0.0273
12173SOL    HW139151   9.529   7.604   6.588 -0.3119  1.0525  0.7577
12173SOL    HW239152   9.677   7.615   6.617 -0.0548  1.2392 -0.5331
12174SOL     OW39153   1.177   4.299   4.621  0.1139 -0.5080  0.2201
12174SOL    HW139154   1.217   4.326   4.704  0.2650 -0.5649  0.1673
12174SOL    HW239155   1.252   4.290   4.561  0.0087 -0.5016  0.0880
12175SOL     OW39156   5.805  10.150   8.127 -0.0468  0.1442 -0.2331
12175SOL    HW139157   5.787  10.129   8.035 -3.2732  2.6339 -0.3563
12175SOL    HW239158   5.824  10.243   8.127 -1.0287  0.3991  1.6629
12176SOL     OW39159   3.068   5.528   0.183 -0.6376  0.1218  0.0239
12176SOL    HW139160   3.003   5.460   0.199 -0.5671  0.3165  1.2774
12176SOL    HW239161   3.073   5.535   0.088 -1.7743 -0.5329 -0.1025
12177SOL     OW39162   5.239   1.321   2.702  0.4979  0.2878  0.6266
12177SOL    HW139163   5.233   1.306   2.796 -0.0254  1.0594  0.7283
12177SOL    HW239164   5.156   1.365   2.679 -1.5199 -3.8060 -0.9939
12178SOL     OW39165   1.051   6.646   1.463  0.0067 -0.7380  0.4981
12178SOL    HW139166   1.121   6.672   1.404  0.4955 -0.3553  1.2233
12178SOL    HW239167   1.039   6.553   1.448  0.0605 -0.6322 -0.2538
12179SOL     OW39168   4.247   3.751   9.215 -0.2424 -0.7898 -0.2561
12179SOL    HW139169   4.253   3.707   9.130 -0.5076  1.3393 -1.4479
12179SOL    HW239170   4.280   3.840   9.198 -0.9872 -0.0872  1.6999
12180SOL     OW39171   5.292   9.279   7.012 -0.3613  0.3201 -0.2071
12180SOL    HW139172   5.321   9.303   6.924 -0.7946  0.5447 -0.2872
12180SOL    HW239173   5.235   9.350   7.040  0.5061  0.7217  0.6263
12181SOL     OW39174   6.315   1.114   8.266  0.2480  0.3187  1.0273
12181SOL    HW139175   6.380   1.184   8.257 -1.5558  1.9801  0.1734
12181SOL    HW239176   6.318   1.090   8.358  0.5277  1.9754  1.4860
12182SOL     OW39177   7.925   9.054   9.280 -0.0410 -0.3927 -0.1920
12182SOL    HW139178   7.834   9.049   9.249 -0.0269  0.2562 -0.3435
12182SOL    HW239179   7.946   9.147   9.280  1.2067 -0.6277 -1.8486
12183SOL     OW39180   9.806   3.476   1.721  0.1726  0.4361  0.0950
12183SOL    HW139181   9.752   3.493   1.798 -0.4337 -2.1876  0.3397
12183SOL    HW239182   9.743   3.464   1.650  0.7386  4.6075 -1.4157
12184SOL     OW39183   3.821  10.356   0.483 -0.3492 -0.1149 -0.0172
12184SOL    HW139184   3.792  10.295   0.551 -2.3625  0.4246 -0.3247
12184SOL    HW239185   3.776  10.327   0.404 -0.1126  0.8518 -0.5169
12185SOL     OW39186   2.308   2.446  10.130  0.2576 -0.2594  0.5800
12185SOL    HW139187   2.305   2.541  10.129  2.7735 -0.1038  0.6575
12185SOL    HW239188   2.267   2.421  10.213 -0.3444  0.7345  0.5948
12186SOL     OW39189   6.249   4.132   3.674 -0.5678  0.1447  0.3909
12186SOL    HW139190   6.300   4.059   3.709  0.4354  0.0555 -1.1688
12186SOL    HW239191   6.254   4.199   3.743  0.2650 -0.4853  0.9679
12187SOL     OW39192  10.175   4.222   8.237  0.0206  0.2982 -0.1680
12187SOL    HW139193  10.193   4.257   8.325  0.3982  0.0441 -0.1416
12187SOL    HW239194  10.080   4.209   8.235  0.1574 -1.0916  0.7439
12188SOL     OW39195   8.817   2.489   6.884  0.1800  0.2516 -0.6123
12188SOL    HW139196   8.851   2.423   6.823 -0.5514  1.4971 -2.4819
12188SOL    HW239197   8.812   2.569   6.832 -2.8003  0.8188  0.3574
12189SOL     OW39198   1.611   9.393   5.580 -0.1826  0.0872 -0.3288
12189SOL    HW139199   1.697   9.430   5.602 -0.2101 -0.1591  0.2042
12189SOL    HW239200   1.579   9.358   5.663 -0.6024 -0.2220 -0.6240
12190SOL     OW39201   1.285   0.539   1.057  0.0529  0.2936 -0.6742
12190SOL    HW139202   1.262   0.486   1.134  1.7123  0.4531 -0.0398
12190SOL    HW239203   1.253   0.627   1.079  2.1076  0.7576  0.6686
12191SOL     OW39204   5.201   6.252   4.711 -0.1519  0.4857 -0.1600
12191SOL    HW139205   5.258   6.291   4.645  0.0550 -0.6726 -0.6867
12191SOL    HW239206   5.115   6.290   4.694  0.9194  5.2248  2.9511
12192SOL     OW39207   5.399   5.538   3.344  0.1888 -0.5335  0.1667
12192SOL    HW139208   5.427   5.447   3.330 -0.2324 -0.6092 -0.2139
12192SOL    HW239209   5.305   5.537   3.323  0.2393  0.0443 -0.0907
12193SOL     OW39210   8.477   5.986   5.558 -0.2181  0.4478  0.3497
12193SOL    HW139211   8.392   6.028   5.548 -0.6436  0.3244  2.6842
12193SOL    HW239212   8.481   5.964   5.652  1.5015 -1.4321 -0.0995
12194SOL     OW39213   0.289   8.518   4.290 -0.2539 -0.0516  0.1138
12194SOL    HW139214   0.331   8.516   4.204  0.1578  2.2755  0.1800
12194SOL    HW239215   0.243   8.435   4.296  0.3774 -0.6279 -2.0143
12195SOL     OW39216   5.571   3.227   0.570 -0.1414 -0.2643 -0.4705
12195SOL    HW139217   5.558   3.139   0.605  1.1588  0.4939  2.1266
12195SOL    HW239218   5.483   3.258   0.549 -0.8300 -1.3415  0.7422
12196SOL     OW39219   0.449   4.306   7.474 -0.4829  0.2132  0.6209
12196SOL    HW139220   0.396   4.285   7.551 -1.1176  0.1391  0.1732
12196SOL    HW239221   0.414   4.249   7.405 -1.4817  1.9158 -0.3392
12197SOL     OW39222  10.233   8.419   1.544  0.0943  0.0699 -0.4363
12197SOL    HW139223  10.323   8.396   1.521 -0.0007 -1.6777  0.7526
12197SOL    HW239224  10.200   8.468   1.468  1.6344 -0.3646 -1.4168
12198SOL     OW39225   5.978   1.526   7.444  0.2588 -0.0019 -0.1261
12198SOL    HW139226   6.002   1.550   7.533 -2.2555 -2.0323  1.2477
12198SOL    HW239227   5.889   1.560   7.433  0.4356  0.0074 -1.7914
12199SOL     OW39228   3.608   1.826   8.696 -0.1859 -0.9978 -0.1397
12199SOL    HW139229   3.566   1.852   8.614  0.2499  3.4055  0.7552
12199SOL    HW239230   3.693   1.872   8.695 -0.0126 -1.0872  2.5606
12200SOL     OW39231   6.769   1.309   2.163 -0.0802 -0.1539  0.2047
12200SOL    HW139232   6.728   1.377   2.109  0.1881 -0.4417 -0.3630
12200SOL    HW239233   6.705   1.292   2.232 -0.7446 -0.2975 -0.4331
12201SOL     OW39234   5.868   0.584   7.842  0.0194 -0.1266 -0.5123
12201SOL    HW139235   5.785   0.613   7.880 -0.4546 -1.2217 -0.6722
12201SOL    HW239236   5.850   0.495   7.810  1.7923 -1.1870  1.2485
12202SOL     OW39237   9.940   2.813   7.112  0.2125  0.3755  0.2355
12202SOL    HW139238   9.974   2.893   7.152 -0.4170  0.9966 -0.4497
12202SOL    HW239239  10.000   2.744   7.142  1.7146  1.3335 -0.4497
12203SOL     OW39240   5.981   9.643   1.250  0.0240  0.0025  0.1988
12203SOL    HW139241   5.948   9.683   1.169 -1.4094 -1.5563 -0.0309
12203SOL    HW239242   6.072   9.619   1.230  0.4283  1.6892 -0.1499
12204SOL     OW39243   1.900   1.118   3.853  0.4722 -0.0733 -0.4473
12204SOL    HW139244   1.807   1.102   3.837  0.5356 -0.6717 -0.2749
12204SOL    HW239245   1.904   1.143   3.946  0.5837 -1.1117 -0.1499
12205SOL     OW39246   9.179   9.197   7.076  0.0525  0.0560 -0.6713
12205SOL    HW139247   9.100   9.143   7.070 -0.2221  0.1338  1.4289
12205SOL    HW239248   9.165   9.252   7.153  2.8334 -1.1679  0.8876
12206SOL     OW39249   7.801   7.595   8.590 -0.5554  0.2067 -0.1711
12206SOL    HW139250   7.728   7.657   8.592 -1.5110 -0.8704  1.7336
12206SOL    HW239251   7.759   7.509   8.586  0.6107 -0.4184  0.4558
12207SOL     OW39252   6.777   5.450   9.743  0.4221 -0.2481  0.1623
12207SOL    HW139253   6.828   5.370   9.728  0.9843  0.2712 -0.8130
12207SOL    HW239254   6.723   5.430   9.819  0.4592 -1.6077 -0.1351
12208SOL     OW39255   8.763   6.685   1.774  0.0386  1.0198 -0.0732
12208SOL    HW139256   8.805   6.641   1.848 -1.8461 -0.4167  0.1943
12208SOL    HW239257   8.752   6.616   1.709  1.1975  2.1586 -1.5374
12209SOL     OW39258   5.529   7.582   0.286  0.6587 -0.2882  0.0324
12209SOL    HW139259   5.467   7.608   0.354 -0.3148 -0.0111 -0.9457
12209SOL    HW239260   5.529   7.487   0.288  0.0595 -0.2942 -0.0841
12210SOL     OW39261   8.717   9.459   5.031  0.5182 -0.2006  0.0771
12210SOL    HW139262   8.720   9.368   5.061 -1.2353 -0.1896  0.3951
12210SOL    HW239263   8.789   9.502   5.077 -0.2072 -0.8779  1.9346
12211SOL     OW39264   4.838   9.450   2.591  0.9022 -0.7751  0.2699
12211SOL    HW139265   4.771   9.382   2.585 -1.0257  1.0840 -0.2700
12211SOL    HW239266   4.832   9.483   2.680  0.0369  0.3602 -0.1761
12212SOL     OW39267   3.557   5.401   3.632 -0.3316 -0.0006  0.3202
12212SOL    HW139268   3.584   5.375   3.720 -0.6326 -0.5986  0.2393
12212SOL    HW239269   3.533   5.319   3.589  0.1935  0.2422 -0.4557
12213SOL     OW39270   8.965   9.819   5.226  0.0085 -0.0555  0.4588
12213SOL    HW139271   8.933   9.885   5.165 -1.2656 -0.5116  0.6044
12213SOL    HW239272   8.947   9.855   5.313 -2.1001 -1.1774  0.5584
12214SOL     OW39273   1.978   2.881   8.389 -0.3820 -0.2857  0.2295
12214SOL    HW139274   2.004   2.960   8.436 -0.8995 -0.7827  1.3897
12214SOL    HW239275   1.898   2.906   8.343 -0.2045  0.0375  0.0936
12215SOL     OW39276   3.675   7.336   5.201  0.0768 -0.3176 -0.6064
12215SOL    HW139277   3.654   7.267   5.137 -0.4204  0.4633 -1.3018
12215SOL    HW239278   3.633   7.414   5.166  2.5423  0.9039 -1.0771
12216SOL     OW39279   0.736   5.680   8.948  0.2814 -0.5527  0.5218
12216SOL    HW139280   0.788   5.750   8.910 -1.7285  0.1697 -1.0139
12216SOL    HW239281   0.705   5.715   9.032  0.4848 -0.1646  0.4345
12217SOL     OW39282   6.532  10.341   5.805 -0.3588 -0.0852  0.0384
12217SOL    HW139283   6.530  10.411   5.871 -1.9652  1.4469 -1.5335
12217SOL    HW239284   6.444  10.303   5.809 -0.7395  0.5532 -1.7221
12218SOL     OW39285   5.213   7.900  10.311  0.3498 -0.6627 -0.3146
12218SOL    HW139286   5.130   7.948  10.310  0.8079  0.1429 -0.1200
12218SOL    HW239287   5.208   7.843  10.234 -0.5328 -0.8931 -0.1014
12219SOL     OW39288   3.629   5.186   5.580  0.1372 -0.3389 -0.1120
12219SOL    HW139289   3.554   5.184   5.520  0.2387 -0.9439 -0.2302
12219SOL    HW239290   3.594   5.159   5.664  0.2592 -0.8333 -0.2160
12220SOL     OW39291  10.023  10.072  10.133 -0.4367  0.7087 -0.0690
12220SOL    HW139292   9.989   9.993  10.176  1.2208 -0.2421 -0.3988
12220SOL    HW239293  10.018  10.051  10.039  2.1842 -0.0445 -0.1204
12221SOL     OW39294   0.536   5.169   5.803 -0.0167 -0.1179 -0.1714
12221SOL    HW139295   0.511   5.091   5.753 -1.9102 -0.5138  1.2735
12221SOL    HW239296   0.592   5.136   5.873  0.1756 -0.0066 -0.2732
12222SOL     OW39297   6.366   2.339   0.266 -0.0196 -0.3705 -0.4090
12222SOL    HW139298   6.441   2.306   0.217  0.0951 -0.1407 -0.3929
12222SOL    HW239299   6.340   2.418   0.219  1.5553  1.2157  1.1811
12223SOL     OW39300   3.207  10.287   1.372  0.0544 -0.1489 -0.2402
12223SOL    HW139301   3.217  10.364   1.316  0.0332 -0.1439 -0.2371
12223SOL    HW239302   3.292  10.276   1.414 -0.0949  0.1742  0.1491
12224SOL     OW39303   3.413   5.892   9.945 -0.2440 -0.1855 -0.1840
12224SOL    HW139304   3.341   5.888   9.882  0.4095 -0.9520 -0.9053
12224SOL    HW239305   3.378   5.849  10.024 -0.1426 -1.8774 -1.0042
12225SOL     OW39306   5.797  10.078   4.702 -0.1909  0.0882  0.6491
12225SOL    HW139307   5.885  10.113   4.684 -0.3980  0.3400  0.1107
12225SOL    HW239308   5.780  10.018   4.629 -0.4327 -0.0259  0.7977
12226SOL     OW39309   0.500   6.928   4.114  0.0493  0.4390  0.0377
12226SOL    HW139310   0.494   6.899   4.205  1.5978 -0.8953 -0.2349
12226SOL    HW239311   0.476   7.020   4.116 -0.9312  0.1812  1.6273
12227SOL     OW39312   8.630   2.189   9.025 -0.7147 -0.0386  0.1401
12227SOL    HW139313   8.659   2.273   8.990  1.5524 -0.1607  1.5426
12227SOL    HW239314   8.652   2.126   8.956 -0.7638  0.2995 -0.1883
12228SOL     OW39315   0.340   9.192   6.902  0.5634  0.5531  0.0557
12228SOL    HW139316   0.253   9.170   6.868  1.2008 -0.4574 -0.9652
12228SOL    HW239317   0.337   9.287   6.915 -0.4902  0.6168 -0.5589
12229SOL     OW39318   5.954   9.210   8.015 -0.6888 -0.3648 -0.3007
12229SOL    HW139319   6.049   9.198   8.022 -0.5982  0.0612 -0.7175
12229SOL    HW239320   5.917   9.140   8.068 -0.1253  0.0646  0.7021
12230SOL     OW39321   2.687   2.685   7.859 -0.2527 -0.3198  0.0006
12230SOL    HW139322   2.778   2.679   7.888 -0.8924 -0.6752  2.1216
12230SOL    HW239323   2.675   2.777   7.837  0.3259 -0.0383  0.8045
12231SOL     OW39324   4.772   5.387   0.246 -0.1285  0.0748  0.1014
12231SOL    HW139325   4.784   5.455   0.312 -0.4003  0.3042 -0.0835
12231SOL    HW239326   4.691   5.411   0.202  0.6107  0.5295 -1.0495
12232SOL     OW39327   4.567   0.806   6.368  0.5371  0.4665  0.5791
12232SOL    HW139328   4.521   0.722   6.374  0.0269  0.7968  1.4545
12232SOL    HW239329   4.576   0.821   6.274  1.4790 -1.0084  0.3847
12233SOL     OW39330   1.184  10.308   1.071  0.2231 -0.3662 -0.2979
12233SOL    HW139331   1.274  10.323   1.042  0.9866 -3.7890 -0.2324
12233SOL    HW239332   1.155  10.233   1.019 -1.5746 -1.0771  1.5879
12234SOL     OW39333   4.412   6.603   9.765  0.0483  0.0994  0.1723
12234SOL    HW139334   4.368   6.686   9.786  1.2519  1.0454 -0.8354
12234SOL    HW239335   4.415   6.556   9.848 -3.0897 -0.1708  0.2313
12235SOL     OW39336   9.669   6.735   8.784 -0.1765  0.7456 -0.2437
12235SOL    HW139337   9.616   6.802   8.741  0.6559  0.8469 -1.1585
12235SOL    HW239338   9.730   6.706   8.716  0.1104 -0.2498  0.4237
12236SOL     OW39339   7.761   1.910   7.059 -0.0559  0.0099 -0.0613
12236SOL    HW139340   7.850   1.932   7.086  0.2915 -0.8121 -0.5199
12236SOL    HW239341   7.746   1.822   7.092 -0.1696 -0.4222 -1.2094
12237SOL     OW39342   0.880   7.936   6.970 -0.0793 -0.1948 -0.7489
12237SOL    HW139343   0.810   7.975   7.022 -0.3906  0.1489 -1.4053
12237SOL    HW239344   0.928   7.881   7.031 -0.9696 -0.4973 -0.3014
12238SOL     OW39345   2.482   7.758   4.830 -0.0082  0.1508  0.3350
12238SOL    HW139346   2.530   7.675   4.828 -0.0691  0.1023  0.7128
12238SOL    HW239347   2.457   7.774   4.740 -0.4854 -0.5260  0.3460
12239SOL     OW39348   8.530   5.073  10.239  0.4740  0.2079 -0.4508
12239SOL    HW139349   8.505   4.983  10.218 -1.1452  0.2106  1.1578
12239SOL    HW239350   8.448   5.123  10.231  0.7034  0.9652  1.4352
12240SOL     OW39351   2.292   4.176   1.739 -0.0306 -0.2288  0.2553
12240SOL    HW139352   2.378   4.202   1.771  0.6186 -2.2031  0.2594
12240SOL    HW239353   2.240   4.163   1.818 -0.3454  0.9738  0.2526
12241SOL     OW39354   2.210   3.038   2.333  0.1690 -0.3647 -0.1845
12241SOL    HW139355   2.275   2.997   2.277  0.1188  0.7494 -1.0893
12241SOL    HW239356   2.205   2.981   2.410  1.0065 -1.3442 -0.8329
12242SOL     OW39357   6.594   5.079   3.923 -0.1744  0.3232  0.6756
12242SOL    HW139358   6.652   5.109   3.853 -1.1130  2.2661  0.6534
12242SOL    HW239359   6.605   5.145   3.992 -2.6430  1.0293  0.4849
12243SOL     OW39360   0.976   5.283   5.336 -0.6595  0.0550  0.3544
12243SOL    HW139361   0.918   5.275   5.260 -1.7661 -1.1673  1.2808
12243SOL    HW239362   0.966   5.374   5.364 -0.7816  0.3281 -0.5345
12244SOL     OW39363   0.091   2.643   9.673 -0.1280 -0.0548  0.1673
12244SOL    HW139364   0.056   2.633   9.584 -0.4102  0.0375  0.2660
12244SOL    HW239365   0.153   2.571   9.683 -2.3159 -1.9503  0.9726
12245SOL     OW39366   4.882   1.704   7.661 -0.2100 -0.2604  0.4109
12245SOL    HW139367   4.847   1.751   7.586  2.3508  0.9616 -0.1459
12245SOL    HW239368   4.912   1.772   7.721  2.0877 -1.1197  0.3394
12246SOL     OW39369   5.547   0.972   5.727  0.3363  0.2233  0.2102
12246SOL    HW139370   5.479   0.978   5.794  0.8201  0.2846  0.7020
12246SOL    HW239371   5.597   1.053   5.736 -1.1137  1.4521 -1.9118
12247SOL     OW39372   6.823   5.038   0.394 -0.5933 -0.4113 -0.2249
12247SOL    HW139373   6.818   5.036   0.298 -1.5216 -0.4171 -0.1911
12247SOL    HW239374   6.829   5.131   0.415  0.6197 -0.4622 -0.3200
12248SOL     OW39375  10.245   7.088   4.601 -0.0209 -0.4435  0.1046
12248SOL    HW139376  10.157   7.100   4.637 -0.5048 -0.5182 -1.0328
12248SOL    HW239377  10.282   7.176   4.597 -1.3576  0.1053 -2.6416
12249SOL     OW39378   0.562   1.431   9.523 -0.3002 -0.1939 -0.1702
12249SOL    HW139379   0.582   1.348   9.479 -2.0323 -1.4505  1.2626
12249SOL    HW239380   0.522   1.485   9.455 -1.1838 -1.3950 -0.6442
12250SOL     OW39381   7.764   8.272   0.611  0.1067  0.5799 -0.2816
12250SOL    HW139382   7.771   8.240   0.521 -0.1002  0.0453 -0.1124
12250SOL    HW239383   7.842   8.237   0.655 -0.2219  0.1242 -0.0467
12251SOL     OW39384   7.417   5.758   2.566  0.3949 -0.3880  0.5026
12251SOL    HW139385   7.504   5.741   2.530 -0.1127  0.2224 -1.1500
12251SOL    HW239386   7.360   5.693   2.524 -0.4136  1.0657 -0.7872
12252SOL     OW39387   0.356   9.474   8.316  0.2899 -0.2002 -0.1515
12252SOL    HW139388   0.431   9.432   8.358  0.6962  0.2285 -0.4286
12252SOL    HW239389   0.280   9.444   8.366  0.7750  0.5000  1.0460
12253SOL     OW39390   9.488   9.566   7.057 -0.1836 -0.2149  0.6382
12253SOL    HW139391   9.465   9.502   6.989  3.8078 -1.3207  0.0687
12253SOL    HW239392   9.471   9.651   7.016  1.3234 -0.8738 -1.5201
12254SOL     OW39393   1.513   9.359   2.676 -0.0356 -0.3437 -0.3499
12254SOL    HW139394   1.562   9.437   2.701 -0.6033  0.0023 -0.3026
12254SOL    HW239395   1.581   9.294   2.653  0.4332  0.1750 -0.4498
12255SOL     OW39396   5.599   4.340   2.380 -0.3977 -0.1159  0.2294
12255SOL    HW139397   5.516   4.313   2.342 -2.1271  0.7339  3.1363
12255SOL    HW239398   5.582   4.426   2.418  1.8993  0.1989  0.7002
12256SOL     OW39399   3.349   2.877   4.612  0.4802  0.6221  0.1126
12256SOL    HW139400   3.445   2.880   4.618  0.5653 -1.1551  0.4343
12256SOL    HW239401   3.319   2.922   4.691  1.1574 -1.1506  1.4699
12257SOL     OW39402   7.497   5.370   8.793 -0.4127 -0.0519  0.3762
12257SOL    HW139403   7.426   5.323   8.837  0.3812 -1.3257  0.3671
12257SOL    HW239404   7.576   5.344   8.842  0.3264 -0.4587 -0.9679
12258SOL     OW39405   4.347   8.320   5.659  0.0726  0.6065 -0.1012
12258SOL    HW139406   4.386   8.274   5.733  0.9978  1.7616  0.1757
12258SOL    HW239407   4.364   8.413   5.677 -0.6367  0.9792 -1.2289
12259SOL     OW39408   4.241   2.606   5.496  0.2665  0.2541  0.2623
12259SOL    HW139409   4.272   2.539   5.557  0.3821  1.0497  1.1033
12259SOL    HW239410   4.312   2.670   5.493  0.1336  0.3752 -0.4878
12260SOL     OW39411   6.181  10.010   6.017  0.0267 -0.9140 -0.0909
12260SOL    HW139412   6.179   9.950   5.943  3.0240  0.4457 -1.4731
12260SOL    HW239413   6.183  10.097   5.977  2.1165 -0.1374  1.5285
12261SOL     OW39414   7.711   1.459   8.174 -0.2856  0.0654  0.8021
12261SOL    HW139415   7.747   1.370   8.169  0.9391  0.5439  0.9369
12261SOL    HW239416   7.691   1.481   8.083  0.6615  0.1526  0.6100
12262SOL     OW39417   8.333   1.231   8.268 -0.1740 -0.0388  0.0415
12262SOL    HW139418   8.271   1.276   8.209  0.5963  1.7546  0.5510
12262SOL    HW239419   8.397   1.191   8.209  0.4035  1.4577 -0.3637
12263SOL     OW39420   0.544   1.280   8.298  0.0623 -0.0905 -0.1611
12263SOL    HW139421   0.570   1.372   8.288  0.4958 -0.0637  1.0669
12263SOL    HW239422   0.488   1.263   8.222  0.3907  1.0339 -0.6860
12264SOL     OW39423   8.947   7.674   9.913  0.3708  0.4530 -0.8215
12264SOL    HW139424   8.926   7.750   9.859  0.4688  1.0817  0.0031
12264SOL    HW239425   8.892   7.683   9.990 -0.7184 -1.1281 -1.3714
12265SOL     OW39426  10.078   0.396   5.723  0.1705 -0.4421 -0.0167
12265SOL    HW139427  10.111   0.369   5.809 -0.1226 -0.2415  0.1615
12265SOL    HW239428  10.057   0.489   5.734  3.1325  0.4980 -1.1840
12266SOL     OW39429   1.700   9.958   6.132 -0.0174  0.1754 -0.6082
12266SOL    HW139430   1.619   9.948   6.182  0.5208  0.2592  0.3246
12266SOL    HW239431   1.673   9.954   6.041 -0.8121 -1.8899 -0.3360
12267SOL     OW39432   4.690   0.316   0.502  0.2750  0.2409  0.2440
12267SOL    HW139433   4.638   0.271   0.568 -0.1895  0.6347  0.1459
12267SOL    HW239434   4.634   0.320   0.425 -0.5508  2.8837  0.8838
12268SOL     OW39435   9.093   7.211   7.176 -0.2492 -0.2782  0.1799
12268SOL    HW139436   9.077   7.178   7.265  0.8920  0.0945  0.5409
12268SOL    HW239437   9.006   7.229   7.141 -0.6808  1.0425  1.7939
12269SOL     OW39438   9.602   9.394   0.977  0.0495  0.2463  0.5206
12269SOL    HW139439   9.669   9.369   1.041  2.0464  1.7782 -0.8409
12269SOL    HW239440   9.532   9.329   0.989  3.3034 -3.8863 -0.4314
12270SOL     OW39441   0.562   7.089   8.697 -0.2696  0.8829  0.3460
12270SOL    HW139442   0.626   7.064   8.631  0.0615 -1.0581  1.3514
12270SOL    HW239443   0.613   7.130   8.767 -0.3770  1.0797  0.3123
12271SOL     OW39444   4.831   4.608   9.528 -0.5814 -0.3916 -0.3825
12271SOL    HW139445   4.766   4.617   9.598 -1.2175 -0.3536 -0.9704
12271SOL    HW239446   4.880   4.690   9.529 -2.7177  1.0009 -2.0833
12272SOL     OW39447  10.073   8.547   6.044 -0.0767 -0.5202 -0.0674
12272SOL    HW139448  10.055   8.640   6.058 -1.5922 -0.6965 -0.7044
12272SOL    HW239449   9.991   8.511   6.011  0.3013 -2.2268  0.7508
12273SOL     OW39450   1.414   4.176   5.463 -0.0942  0.2352  0.1528
12273SOL    HW139451   1.351   4.104   5.461 -0.7434  0.8006 -0.2423
12273SOL    HW239452   1.431   4.195   5.371  1.0011 -0.2029  0.2575
12274SOL     OW39453   6.657   1.307   8.466 -0.6204  0.5016  0.2735
12274SOL    HW139454   6.690   1.221   8.492 -0.4978  0.4237 -0.1266
12274SOL    HW239455   6.656   1.358   8.546  1.7611  0.9349  0.0888
12275SOL     OW39456   2.256   8.039   1.528  0.0455  0.5812 -0.2654
12275SOL    HW139457   2.309   8.061   1.451  0.8532 -0.7979 -0.1317
12275SOL    HW239458   2.170   8.076   1.509  0.3258  0.5615 -1.6930
12276SOL     OW39459   0.546  10.062   2.493  0.1993  0.4975  0.1509
12276SOL    HW139460   0.468  10.082   2.441  0.0678 -1.5860 -0.5461
12276SOL    HW239461   0.610  10.030   2.429  0.9617  0.4024  0.9412
12277SOL     OW39462   3.488   4.814   1.756 -0.1626 -0.8635  0.9361
12277SOL    HW139463   3.485   4.745   1.690  1.4404 -0.8869  0.8521
12277SOL    HW239464   3.479   4.896   1.706 -0.7868 -0.9508  0.8992
12278SOL     OW39465   9.103   2.742   2.371 -0.4692  0.3657 -0.4925
12278SOL    HW139466   9.194   2.714   2.381 -1.1085 -2.2308 -1.1116
12278SOL    HW239467   9.096   2.768   2.279 -0.4452  0.1473 -0.5571
12279SOL     OW39468   6.851   2.288   6.570  0.1269 -0.4308 -0.8546
12279SOL    HW139469   6.811   2.255   6.490  1.4593 -0.2066 -1.6310
12279SOL    HW239470   6.942   2.260   6.566  0.2045 -0.5070  0.6469
12280SOL     OW39471   2.787   5.743   8.143  0.1022 -0.7510 -0.3261
12280SOL    HW139472   2.859   5.694   8.183  0.7371 -0.8019 -1.5032
12280SOL    HW239473   2.765   5.809   8.208 -0.0512 -1.9068  0.8447
12281SOL     OW39474   6.249   3.398   7.177  0.0464 -0.1172  0.8476
12281SOL    HW139475   6.320   3.411   7.115  1.1217  0.4713  2.1333
12281SOL    HW239476   6.293   3.380   7.260 -1.1873  2.9675  2.3269
12282SOL     OW39477   4.923   0.451   0.430  0.2322 -0.4591  0.1755
12282SOL    HW139478   4.993   0.401   0.473  0.9146  0.1209 -0.2377
12282SOL    HW239479   4.845   0.396   0.440 -0.1039  0.3839  3.7681
12283SOL     OW39480   2.304   1.520   9.875  0.1797  0.0315 -0.0936
12283SOL    HW139481   2.249   1.447   9.903  0.7296 -0.3753 -0.0521
12283SOL    HW239482   2.244   1.593   9.864 -0.3448 -0.3689  0.0912
12284SOL     OW39483   1.143   0.038   4.298  0.3498 -0.2703  0.7004
12284SOL    HW139484   1.113  -0.052   4.286  0.9046 -0.6660  2.0828
12284SOL    HW239485   1.100   0.067   4.379 -0.6179  1.0724 -0.2548
12285SOL     OW39486   2.354   2.643   3.081 -0.1436 -0.1815  0.4738
12285SOL    HW139487   2.424   2.578   3.084  0.6591  0.5834 -0.7607
12285SOL    HW239488   2.280   2.601   3.124  0.4721 -1.7546  0.0550
12286SOL     OW39489   6.304   7.079   5.212 -0.3817  0.6171  0.4638
12286SOL    HW139490   6.373   7.026   5.252 -0.8311 -0.8963 -0.6677
12286SOL    HW239491   6.290   7.151   5.273  0.4160 -0.4525  1.9665
12287SOL     OW39492   3.008   4.590   3.054 -0.2331  0.5039  0.2286
12287SOL    HW139493   3.081   4.595   2.994  0.4593 -1.8381  0.7927
12287SOL    HW239494   3.026   4.658   3.120  0.2182  1.4625 -0.8583
12288SOL     OW39495   6.693   1.751   0.680 -0.4180 -0.1837 -0.0523
12288SOL    HW139496   6.628   1.791   0.738 -1.2307 -2.0726  0.4341
12288SOL    HW239497   6.771   1.741   0.735 -0.7936 -0.8540  0.3825
12289SOL     OW39498   1.753   5.694   0.196  0.6477 -0.2710  0.2550
12289SOL    HW139499   1.764   5.711   0.289 -0.3620  1.3577  0.1100
12289SOL    HW239500   1.708   5.609   0.192 -1.1275  0.5570  1.3655
12290SOL     OW39501   1.486   3.381   0.344 -0.0397 -0.0060  0.1599
12290SOL    HW139502   1.557   3.413   0.289 -1.2097 -0.1077 -1.4767
12290SOL    HW239503   1.434   3.325   0.286 -0.2468 -1.7153  1.8961
12291SOL     OW39504   6.153   1.408   1.144 -0.3443 -0.1984 -0.1602
12291SOL    HW139505   6.205   1.487   1.156 -0.3808 -0.0293 -1.0688
12291SOL    HW239506   6.158   1.390   1.050  0.2548 -1.6814  0.1318
12292SOL     OW39507   6.094   0.064   3.457 -0.4477  0.0787  0.3265
12292SOL    HW139508   6.019   0.050   3.400 -0.3488  3.7293 -0.9790
12292SOL    HW239509   6.160   0.107   3.401  0.4563  1.9300  2.6238
12293SOL     OW39510   5.577   0.312   7.822  0.2062 -0.1157 -0.3162
12293SOL    HW139511   5.521   0.379   7.863 -0.0642 -0.5392  0.0169
12293SOL    HW239512   5.515   0.251   7.781  0.3924 -0.8970  0.5319
12294SOL     OW39513   5.031   6.590   2.234  0.1765 -0.0799 -0.1853
12294SOL    HW139514   4.968   6.596   2.162 -0.2617 -1.7825  0.0190
12294SOL    HW239515   5.041   6.496   2.250  1.2408  0.2247  1.1340
12295SOL     OW39516   8.117   5.053   9.176  0.0169  0.4599 -0.1210
12295SOL    HW139517   8.113   4.986   9.244 -2.1253  0.3515 -0.2889
12295SOL    HW239518   8.109   5.136   9.224 -0.8401  0.4134 -0.1717
12296SOL     OW39519   0.600   8.081   0.888 -0.3704 -0.1946 -0.1609
12296SOL    HW139520   0.505   8.084   0.879 -0.2175  0.4263 -2.1511
12296SOL    HW239521   0.624   8.168   0.922 -0.6235 -1.1072  2.6092
12297SOL     OW39522   2.879   0.858   8.076  0.0934  0.7025  0.1378
12297SOL    HW139523   2.828   0.839   7.997 -0.2407  0.1145  0.4916
12297SOL    HW239524   2.921   0.775   8.098  0.1177  0.8425  0.6294
12298SOL     OW39525   5.231   2.390   5.669  0.0886  0.4587 -0.5858
12298SOL    HW139526   5.234   2.315   5.729  0.0019  1.1669  0.3216
12298SOL    HW239527   5.167   2.449   5.707  3.6349  3.3405  1.5749
12299SOL     OW39528   5.709   4.058   8.876  0.2785  0.3117  0.4179
12299SOL    HW139529   5.741   3.969   8.860 -1.4448 -0.2053 -0.3723
12299SOL    HW239530   5.742   4.109   8.802  1.1890  0.3404  0.8227
12300SOL     OW39531   2.957   2.283   3.209  0.3705 -0.0259 -0.5599
12300SOL    HW139532   2.919   2.221   3.271 -0.2753  0.7572 -0.1577
12300SOL    HW239533   2.883   2.317   3.160  0.7356  0.3124 -0.8870
12301SOL     OW39534   6.855   8.103   9.656  0.1202  0.4571  0.0256
12301SOL    HW139535   6.782   8.113   9.717 -0.7267 -0.6210 -0.7648
12301SOL    HW239536   6.902   8.025   9.686 -1.0153 -0.8135 -1.3436
12302SOL     OW39537   8.468   1.358   8.554  0.1770  0.3869  0.2448
12302SOL    HW139538   8.458   1.340   8.461  0.0400  1.3768  0.0569
12302SOL    HW239539   8.398   1.307   8.596  1.3958 -1.5693  0.0246
12303SOL     OW39540   3.686   1.081  10.338 -0.1133 -0.2680  0.0441
12303SOL    HW139541   3.648   1.089  10.251 -2.1808 -0.3475  0.8692
12303SOL    HW239542   3.777   1.110  10.328 -0.3304 -0.1784 -2.0881
12304SOL     OW39543   1.530   0.769   9.927  0.0221 -0.9897 -0.7134
12304SOL    HW139544   1.472   0.830   9.973  0.1571 -0.9617 -0.5828
12304SOL    HW239545   1.572   0.823   9.860 -0.2101 -1.0408 -0.9026
12305SOL     OW39546   3.173   6.178   7.649  0.0575  0.0906 -0.3724
12305SOL    HW139547   3.112   6.114   7.612 -1.0877  1.2078 -0.4569
12305SOL    HW239548   3.122   6.224   7.716  0.1834  2.3713 -1.7576
12306SOL     OW39549   9.420   1.244   1.352 -0.3240 -0.2965  0.3741
12306SOL    HW139550   9.405   1.331   1.389 -0.4123 -0.3700  0.5140
12306SOL    HW239551   9.408   1.255   1.258  0.6275  0.0533  0.2809
12307SOL     OW39552   1.057   6.791   2.561  0.1681 -0.7828  0.0272
12307SOL    HW139553   0.980   6.800   2.617 -0.0368 -0.5123 -0.2898
12307SOL    HW239554   1.131   6.785   2.621  0.4127  3.2194  0.4158
12308SOL     OW39555   0.781   7.135   5.559  0.2219  0.0278  0.0299
12308SOL    HW139556   0.788   7.130   5.464 -0.9482 -0.7556 -0.0297
12308SOL    HW239557   0.689   7.154   5.576  0.4123  0.1262  1.0089
12309SOL     OW39558   4.101   3.662   1.680 -0.6084 -0.2507 -0.2441
12309SOL    HW139559   4.155   3.734   1.648 -1.4668  0.7821  0.5536
12309SOL    HW239560   4.040   3.645   1.609 -0.4488 -0.1349 -0.4105
12310SOL     OW39561   3.942   1.904  10.242 -0.2858 -0.3365 -0.3717
12310SOL    HW139562   3.927   1.998  10.248  1.1180 -0.1197  0.3153
12310SOL    HW239563   4.026   1.897  10.196 -0.6240 -1.2723 -0.8573
12311SOL     OW39564   4.982   5.774   7.083 -0.5760  0.1672  0.1972
12311SOL    HW139565   5.060   5.744   7.129 -1.8268 -1.7412  1.2075
12311SOL    HW239566   5.015   5.834   7.016  1.7532 -0.7492  0.4389
12312SOL     OW39567   7.800   4.186   7.686 -0.2954  0.2920 -0.7149
12312SOL    HW139568   7.716   4.146   7.665 -1.1215  1.7584 -0.3635
12312SOL    HW239569   7.784   4.280   7.680  0.2648  0.7831  3.0219
12313SOL     OW39570  10.060   2.917   4.285 -0.3846 -0.2116  0.1724
12313SOL    HW139571  10.134   2.884   4.335 -0.6432 -2.7839 -0.9852
12313SOL    HW239572   9.983   2.896   4.338 -0.3829  2.6458  1.4753
12314SOL     OW39573   6.998   5.052   2.294 -0.1362  0.4713 -0.0955
12314SOL    HW139574   6.975   5.100   2.373 -1.6318 -0.5366  0.1178
12314SOL    HW239575   6.973   4.962   2.312  1.8472 -0.2760 -0.7989
12315SOL     OW39576   5.769   1.631   7.797  0.0553  0.1551 -1.0617
12315SOL    HW139577   5.807   1.661   7.879 -1.4379 -0.0303 -0.2802
12315SOL    HW239578   5.694   1.577   7.823 -0.4266  0.0712 -2.5416
12316SOL     OW39579   1.049   7.870   2.057  0.0637  0.3453 -1.2242
12316SOL    HW139580   1.008   7.869   1.970 -1.2923  0.3968 -0.6182
12316SOL    HW239581   0.988   7.820   2.112  0.7107  0.6318 -0.2230
12317SOL     OW39582   2.595   4.111   6.670  0.1081 -0.2799 -0.3648
12317SOL    HW139583   2.541   4.152   6.603  0.0728 -1.0803 -0.8355
12317SOL    HW239584   2.684   4.144   6.652  0.3745 -1.6543 -1.7783
12318SOL     OW39585   2.929   9.897   5.391  0.1114  0.2468 -0.0768
12318SOL    HW139586   2.873   9.933   5.322  0.9596  0.5838 -0.5904
12318SOL    HW239587   3.011   9.875   5.348 -0.4764 -2.7094  0.1267
12319SOL     OW39588   3.551   6.493  10.228 -0.2033 -1.0823 -0.0097
12319SOL    HW139589   3.524   6.498  10.137  0.5316 -2.2157 -0.3138
12319SOL    HW239590   3.488   6.548  10.275 -0.0541  0.2355 -1.2973
12320SOL     OW39591   3.409   4.066   2.492  0.0121 -0.4462  0.5813
12320SOL    HW139592   3.322   4.027   2.488 -0.7465  0.8717  2.5386
12320SOL    HW239593   3.412   4.127   2.418 -0.3367 -1.2064 -0.0661
12321SOL     OW39594   9.702   5.916   3.548 -0.0292  0.1210 -0.5023
12321SOL    HW139595   9.714   5.995   3.601 -0.1543  0.5725 -1.1452
12321SOL    HW239596   9.631   5.869   3.592  1.7793 -0.9966  1.4578
12322SOL     OW39597   4.275   1.196   4.243 -0.1851  0.6606 -0.2292
12322SOL    HW139598   4.368   1.182   4.226  0.2132  0.3763  1.9280
12322SOL    HW239599   4.248   1.119   4.293 -1.4898  0.9199 -0.5057
12323SOL     OW39600   1.850  10.310   2.614 -0.2526 -0.3591  0.3436
12323SOL    HW139601   1.911  10.244   2.580 -0.5720  0.4152 -1.8886
12323SOL    HW239602   1.831  10.281   2.703  0.4460 -2.6976 -0.1982
12324SOL     OW39603   8.941   2.394   0.660 -0.1162 -0.2277 -0.4880
12324SOL    HW139604   8.865   2.447   0.635  0.4695  1.1696  0.4986
12324SOL    HW239605   8.998   2.455   0.708  0.7571 -1.6914  0.4388
12325SOL     OW39606   6.287   7.965   2.996  0.3862  0.5591 -0.8047
12325SOL    HW139607   6.258   7.933   3.082  0.6143  0.7100 -0.6697
12325SOL    HW239608   6.363   8.019   3.016  0.5502  0.4469 -1.1225
12326SOL     OW39609   7.049   3.186   9.422 -0.2812  0.6663  0.7725
12326SOL    HW139610   7.024   3.234   9.343  1.2726  1.4814  0.7337
12326SOL    HW239611   7.036   3.094   9.400  0.4030  0.8670 -0.5465
12327SOL     OW39612   3.461   5.924   9.489 -0.2018  0.5359  0.1742
12327SOL    HW139613   3.398   5.930   9.561 -1.5672 -1.2260 -0.8265
12327SOL    HW239614   3.439   5.996   9.431 -0.6456  0.5204  0.3229
12328SOL     OW39615   2.934   3.979   4.307 -0.4956 -0.3023 -0.5742
12328SOL    HW139616   2.916   3.936   4.391 -2.2096  1.5589  0.1114
12328SOL    HW239617   3.021   4.018   4.319 -2.0077  2.8847  1.8482
12329SOL     OW39618  10.087   6.001   2.147 -0.2467 -0.1719  0.1650
12329SOL    HW139619  10.010   5.982   2.200 -1.0983  0.1188 -0.9349
12329SOL    HW239620  10.078   5.945   2.070 -0.5363  1.4119 -1.0207
12330SOL     OW39621   2.898   1.702   1.270 -0.1903 -0.2574 -0.1186
12330SOL    HW139622   2.983   1.744   1.255 -0.1235 -0.3108  0.0929
12330SOL    HW239623   2.911   1.612   1.243  0.5765 -0.9147  2.1523
12331SOL     OW39624   6.836   2.103   1.871 -0.2761  0.7517 -0.3287
12331SOL    HW139625   6.817   2.196   1.881 -0.2018  0.6746  0.6128
12331SOL    HW239626   6.922   2.099   1.831  0.9109  1.1156  2.0229
12332SOL     OW39627   1.382   6.634   3.152  0.1152 -0.1514 -0.4401
12332SOL    HW139628   1.287   6.635   3.150  0.0906  0.8376  0.1155
12332SOL    HW239629   1.404   6.603   3.240  0.2214  2.1204  0.4205
12333SOL     OW39630   6.370   6.576   3.518  0.2703 -0.0380 -0.0544
12333SOL    HW139631   6.453   6.558   3.474 -0.0290  0.7221 -0.9832
12333SOL    HW239632   6.303   6.551   3.454 -0.2118 -0.2655  0.5295
12334SOL     OW39633   5.310   2.842   7.946 -0.5271 -0.9187  0.6367
12334SOL    HW139634   5.257   2.873   7.873  0.9671 -1.4414 -0.7208
12334SOL    HW239635   5.295   2.907   8.015  0.8780  1.7466 -1.3800
12335SOL     OW39636   8.625   8.664   5.617  0.1503 -0.4765 -0.5557
12335SOL    HW139637   8.693   8.667   5.550  0.8345 -2.1855  0.0019
12335SOL    HW239638   8.547   8.634   5.571  0.2741 -0.3858 -0.8256
12336SOL     OW39639   0.685   5.739   9.437  0.3945  0.5388 -0.9751
12336SOL    HW139640   0.603   5.701   9.407  0.0920 -0.2194  0.6795
12336SOL    HW239641   0.741   5.741   9.360 -0.8445  0.1398 -1.9043
12337SOL     OW39642   5.906   5.538   6.307 -0.5508 -0.1352  0.3164
12337SOL    HW139643   5.916   5.631   6.328  3.1004 -0.0293 -1.0950
12337SOL    HW239644   5.881   5.497   6.390 -1.0960  1.9577  1.2412
12338SOL     OW39645   1.104   0.504  10.353 -0.3558  0.2593  0.1755
12338SOL    HW139646   1.157   0.463  10.284 -2.2657 -0.7186 -0.7782
12338SOL    HW239647   1.100   0.439  10.423 -0.9808 -0.0322 -0.1205
12339SOL     OW39648   9.147   1.028  10.332 -0.1320  0.3209 -0.0179
12339SOL    HW139649   9.097   0.951  10.360  0.6703 -0.7498 -1.3922
12339SOL    HW239650   9.184   1.064  10.412  0.2563 -1.3088  0.5651
12340SOL     OW39651   3.877   7.580   6.944  0.1120  0.3279  0.3196
12340SOL    HW139652   3.896   7.488   6.923  1.3602  0.1898  1.8695
12340SOL    HW239653   3.922   7.630   6.875 -1.4440 -0.2042 -1.1422
12341SOL     OW39654   2.041   1.040   5.484 -0.2459  0.1859  0.1041
12341SOL    HW139655   2.054   1.041   5.389 -1.3830 -1.9094 -0.1370
12341SOL    HW239656   2.092   0.964   5.514  1.1093  1.5371  1.3745
12342SOL     OW39657   1.237   3.389   8.701 -0.3894 -0.2001 -0.8611
12342SOL    HW139658   1.198   3.353   8.621  1.5823  0.5889 -2.2580
12342SOL    HW239659   1.288   3.316   8.737 -1.6532 -0.6964 -0.0275
12343SOL     OW39660   7.868   2.354   5.778 -0.1278  0.0225 -0.0134
12343SOL    HW139661   7.818   2.337   5.698  0.4411  0.2023 -0.4049
12343SOL    HW239662   7.817   2.422   5.823 -1.3517 -1.2526  0.6048
12344SOL     OW39663   3.445   3.630   5.441  0.0617  0.0416  0.1456
12344SOL    HW139664   3.510   3.698   5.429  0.4022 -0.1421  0.8623
12344SOL    HW239665   3.392   3.660   5.515  0.0777 -0.3604  0.3248
12345SOL     OW39666   0.277   3.675   6.410 -0.3987 -0.3727  0.7638
12345SOL    HW139667   0.333   3.598   6.420 -1.9413 -1.2820  3.4024
12345SOL    HW239668   0.287   3.700   6.318  1.9685 -2.2625  0.4021
12346SOL     OW39669   7.657  10.073   1.706 -0.3220 -0.3791  0.0046
12346SOL    HW139670   7.674  10.141   1.640  0.7677  1.8685  2.4109
12346SOL    HW239671   7.736  10.071   1.759 -0.9174 -2.5606  0.9064
12347SOL     OW39672   3.863   1.758   8.246  0.8466 -0.1190 -0.4107
12347SOL    HW139673   3.827   1.669   8.242 -0.1931  0.3367 -1.8363
12347SOL    HW239674   3.866   1.787   8.155 -2.8447  2.8383  0.1501
12348SOL     OW39675   8.396   1.254   5.791  0.4104 -0.8571 -0.0799
12348SOL    HW139676   8.453   1.224   5.862 -1.5480 -1.3907  1.3354
12348SOL    HW239677   8.311   1.214   5.809 -0.6595  0.5670 -1.6431
12349SOL     OW39678   1.656   1.217   5.883  0.3373 -0.3923  0.0532
12349SOL    HW139679   1.678   1.187   5.795  1.5150 -0.7405  0.4415
12349SOL    HW239680   1.582   1.276   5.871 -0.3044 -1.3768 -1.0237
12350SOL     OW39681   8.949   7.172   9.775  0.2410  0.3025  0.8497
12350SOL    HW139682   8.937   7.267   9.774  1.2516  0.4422 -0.3910
12350SOL    HW239683   8.956   7.149   9.868  4.6103  2.0698  1.1610
12351SOL     OW39684   1.016   9.539   5.363  0.3330 -0.1957  0.3972
12351SOL    HW139685   0.994   9.497   5.279 -0.4356  0.0868  0.4492
12351SOL    HW239686   1.035   9.465   5.421  0.6941 -0.4027  0.0283
12352SOL     OW39687   6.829   5.917   8.085  0.1312  0.1467  0.5886
12352SOL    HW139688   6.809   5.996   8.136 -0.2119  0.2024  0.3709
12352SOL    HW239689   6.769   5.851   8.120 -0.4992  0.3346 -0.1216
12353SOL     OW39690   7.382   6.036   4.211 -0.0155  0.2036  0.5909
12353SOL    HW139691   7.472   6.023   4.240  0.6858 -0.1233 -1.5089
12353SOL    HW239692   7.335   5.960   4.246  1.0702 -0.8738 -0.1658
12354SOL     OW39693   3.912   3.501   1.194  0.2997 -0.7266  0.3888
12354SOL    HW139694   3.969   3.571   1.162 -0.7182  0.5216  1.2129
12354SOL    HW239695   3.971   3.437   1.233  1.2095 -0.0704  0.1158
12355SOL     OW39696   8.865   4.591   9.905 -0.1199  0.2187 -0.3469
12355SOL    HW139697   8.850   4.562   9.815  0.9091  0.4723 -0.6091
12355SOL    HW239698   8.878   4.686   9.897 -0.3166  0.2826  0.1072
12356SOL     OW39699   5.018   5.286   5.570  0.6800  0.2329  0.0158
12356SOL    HW139700   5.073   5.214   5.538  0.8519  0.5379 -0.3844
12356SOL    HW239701   4.960   5.306   5.497 -1.4549 -1.4799  1.1026
12357SOL     OW39702   4.573   5.125   3.417  0.0650 -0.3528  0.1373
12357SOL    HW139703   4.488   5.163   3.398 -0.1620 -0.9929 -0.1745
12357SOL    HW239704   4.636   5.193   3.393 -0.3580  0.1375  0.4042
12358SOL     OW39705   2.490  10.323   9.254  0.0967 -0.2311  0.6700
12358SOL    HW139706   2.415  10.264   9.246 -1.5356  1.8329 -0.3107
12358SOL    HW239707   2.517  10.339   9.163 -1.5529  2.8846  0.5962
12359SOL     OW39708   5.571   8.439   6.422 -0.2805  0.0495  0.2849
12359SOL    HW139709   5.600   8.372   6.484  0.1887 -0.2250 -0.2235
12359SOL    HW239710   5.483   8.463   6.452  0.1258  0.2716  1.3381
12360SOL     OW39711   7.129  10.097   0.336 -0.0915  0.1313 -0.4251
12360SOL    HW139712   7.054  10.146   0.369  0.0101 -0.0322  0.0498
12360SOL    HW239713   7.185  10.082   0.412 -0.4912 -1.4094 -0.3908
12361SOL     OW39714   6.818  10.135   1.661  0.4875  0.5662  0.4746
12361SOL    HW139715   6.732  10.126   1.702  0.6199  0.8678  0.8185
12361SOL    HW239716   6.872  10.180   1.726  0.9582  0.2144  0.3312
12362SOL     OW39717   1.219   2.979   1.725 -0.0590 -0.3045 -0.0086
12362SOL    HW139718   1.185   2.956   1.638 -0.7083 -1.3214  0.4896
12362SOL    HW239719   1.186   2.910   1.782  1.0025 -0.0695  0.9183
12363SOL     OW39720   3.140   0.988  10.344  0.0535  0.2033  0.0172
12363SOL    HW139721   3.144   0.907  10.394  0.5229  0.2293  0.0211
12363SOL    HW239722   3.132   1.057  10.410  1.3792  0.2946  0.0970
12364SOL     OW39723   1.304   9.041   4.407  0.2518 -0.5543  0.4610
12364SOL    HW139724   1.315   8.948   4.423 -0.2248 -0.3306  2.3674
12364SOL    HW239725   1.221   9.063   4.449  1.4639  1.1601  2.1185
12365SOL     OW39726   7.704   9.788   4.614 -0.1167  0.1082  0.1178
12365SOL    HW139727   7.693   9.823   4.526  0.8570  0.5381  0.1549
12365SOL    HW239728   7.659   9.850   4.671  2.4947  2.0382  0.3070
12366SOL     OW39729   8.101  10.173   9.885  0.0205 -0.0457 -0.0939
12366SOL    HW139730   8.118  10.266   9.868 -0.2097 -0.0290 -0.2378
12366SOL    HW239731   8.139  10.127   9.811 -0.4129 -0.0204 -0.3356
12367SOL     OW39732   1.789   7.599   5.534  0.3440  0.5330  0.5226
12367SOL    HW139733   1.876   7.564   5.553 -0.2044  0.3363  3.0200
12367SOL    HW239734   1.730   7.526   5.551 -0.3618  0.7457 -0.8828
12368SOL     OW39735   0.319   6.651   2.418 -0.2056  0.0551 -0.0005
12368SOL    HW139736   0.385   6.623   2.354  2.1334  2.4327  1.1409
12368SOL    HW239737   0.245   6.679   2.365  1.3455  1.1906 -1.7067
12369SOL     OW39738   4.179   8.706   2.029  0.3483  0.0861  0.0328
12369SOL    HW139739   4.210   8.654   2.104  0.0655 -0.3319 -0.1402
12369SOL    HW239740   4.104   8.658   1.996  0.3180  0.4077 -0.3671
12370SOL     OW39741   2.338   3.360   7.101 -0.0608  0.2190 -0.1723
12370SOL    HW139742   2.288   3.280   7.091  1.7828 -1.2415  1.4379
12370SOL    HW239743   2.412   3.350   7.040  1.4738 -0.5098  1.6816
12371SOL     OW39744   9.428   3.602   3.640  0.5845  0.5063 -0.6415
12371SOL    HW139745   9.356   3.587   3.700  0.1902  1.8670 -0.7407
12371SOL    HW239746   9.404   3.682   3.593  3.3210  2.6279  1.2166
12372SOL     OW39747   6.864   9.017   5.432  0.5033 -0.2443  0.1619
12372SOL    HW139748   6.955   9.042   5.443  1.1942 -1.9236 -1.3306
12372SOL    HW239749   6.840   9.049   5.345 -0.9341  1.7137  1.1809
12373SOL     OW39750   4.465   3.195   6.990 -0.6952 -0.4451 -0.2789
12373SOL    HW139751   4.455   3.276   6.940 -0.5927 -0.0177  0.3856
12373SOL    HW239752   4.426   3.214   7.075  0.4994 -0.6608  0.3376
12374SOL     OW39753   3.591   6.446   4.850 -0.1357 -0.1831  0.0291
12374SOL    HW139754   3.654   6.458   4.779 -0.0433  0.1723  0.1719
12374SOL    HW239755   3.512   6.491   4.819  0.3021  1.0676  0.6876
12375SOL     OW39756  10.021   1.530   9.688  0.1521 -0.0461  0.2931
12375SOL    HW139757   9.994   1.509   9.777  3.0628  1.9105  1.8247
12375SOL    HW239758  10.114   1.509   9.686 -0.2765 -2.4346 -3.2140
12376SOL     OW39759   7.548   9.973   0.371  0.6174  0.2347  0.2352
12376SOL    HW139760   7.631   9.926   0.370  1.1869  1.2150  0.7097
12376SOL    HW239761   7.554  10.035   0.298 -0.5122 -1.0265 -0.9971
12377SOL     OW39762  10.084   9.010   5.221 -0.0889  0.2543  0.0174
12377SOL    HW139763  10.035   8.929   5.209 -2.6595  1.6507  0.3880
12377SOL    HW239764  10.066   9.035   5.312  1.1754  0.9733  0.0968
12378SOL     OW39765   0.209   4.049   0.447  0.1645  0.0948  0.0487
12378SOL    HW139766   0.224   4.113   0.517  0.6702  0.7416 -0.6375
12378SOL    HW239767   0.169   3.974   0.492  1.5899  0.0019  1.2455
12379SOL     OW39768   9.688   0.148   5.575 -0.0923  0.3546 -0.2436
12379SOL    HW139769   9.713   0.072   5.627 -1.6594 -0.2406 -0.3073
12379SOL    HW239770   9.597   0.133   5.552  0.1324  1.2775 -1.9880
12380SOL     OW39771   9.355   9.972   9.094 -0.3498 -0.2434 -0.2212
12380SOL    HW139772   9.383   9.917   9.168 -0.5583 -1.0834 -0.7551
12380SOL    HW239773   9.325  10.053   9.135 -0.2726 -0.6203  0.6049
12381SOL     OW39774   8.301   3.971   5.225 -0.1588 -0.2228  0.0149
12381SOL    HW139775   8.234   4.032   5.194 -0.4377 -0.9536 -0.8724
12381SOL    HW239776   8.357   3.957   5.148 -0.4992 -1.5970 -0.0019
12382SOL     OW39777   3.672   8.336   0.556  0.2689  0.2725 -0.1005
12382SOL    HW139778   3.718   8.393   0.619  0.1666 -0.2018  0.4148
12382SOL    HW239779   3.579   8.346   0.579  0.0776  1.3741 -1.2604
12383SOL     OW39780   8.008   2.775   5.975 -0.3370  0.5856 -0.4373
12383SOL    HW139781   7.983   2.848   5.917  0.3178 -0.5529 -2.2341
12383SOL    HW239782   8.090   2.742   5.938  0.4122  0.1503  1.5103
12384SOL     OW39783   5.160   7.090   3.779 -0.4919 -0.0940  0.1287
12384SOL    HW139784   5.242   7.136   3.795 -1.4160  1.8470 -0.3594
12384SOL    HW239785   5.165   7.062   3.687 -0.0144 -0.8069  0.3660
12385SOL     OW39786   8.505   0.385   7.659 -0.7509  0.2345  1.0479
12385SOL    HW139787   8.516   0.442   7.583 -0.0091 -1.5374 -0.2314
12385SOL    HW239788   8.448   0.315   7.629  0.1630 -0.9106  1.8796
12386SOL     OW39789   3.769   9.252   6.752  0.0280  0.4561  0.0868
12386SOL    HW139790   3.779   9.267   6.846  1.7089 -0.5680  0.1138
12386SOL    HW239791   3.735   9.162   6.746  2.4501 -0.5135 -0.2773
12387SOL     OW39792   0.214   2.403   0.703 -0.2335  0.1420 -0.1857
12387SOL    HW139793   0.162   2.360   0.636 -0.9876  1.1044 -0.2360
12387SOL    HW239794   0.154   2.416   0.776  0.1512  0.5254  0.0706
12388SOL     OW39795  10.233   6.878   3.428  0.1427 -0.3219  0.0412
12388SOL    HW139796  10.140   6.857   3.419  0.2561 -0.3263 -1.3074
12388SOL    HW239797  10.278   6.797   3.404  0.5134 -0.3446  0.7621
12389SOL     OW39798   8.139   6.355   4.676 -0.4965 -0.5934 -0.4670
12389SOL    HW139799   8.146   6.448   4.696 -0.5742 -0.7767  0.4423
12389SOL    HW239800   8.047   6.341   4.655 -0.6913 -0.6546  0.4047
12390SOL     OW39801   2.389   7.378   2.634  0.7000  0.5114  0.7068
12390SOL    HW139802   2.355   7.399   2.547 -0.2771 -1.1897  0.6304
12390SOL    HW239803   2.465   7.323   2.618  0.3405 -0.0557  0.9159
12391SOL     OW39804   9.650   9.071   4.309 -0.0791  0.1856  0.0464
12391SOL    HW139805   9.586   9.142   4.303 -1.7213 -1.2961 -1.0287
12391SOL    HW239806   9.611   9.009   4.370  0.2280 -0.8341 -0.7651
12392SOL     OW39807   2.172   9.000  10.044 -0.6803 -0.2392  0.2797
12392SOL    HW139808   2.152   9.079   9.994 -3.5635 -0.9351  0.1423
12392SOL    HW239809   2.192   9.031  10.132 -0.5498  0.6906 -0.0664
12393SOL     OW39810   9.178   3.693   4.555 -0.2183 -0.0574 -0.0364
12393SOL    HW139811   9.102   3.707   4.498  0.4014  1.3657 -0.5686
12393SOL    HW239812   9.158   3.742   4.635 -0.4978 -0.9387  0.4504
12394SOL     OW39813   6.957   9.676   0.641  0.0944  0.2522  0.1065
12394SOL    HW139814   7.009   9.708   0.714  0.1325 -1.1377  0.7105
12394SOL    HW239815   6.893   9.746   0.625 -1.0565 -0.1338  2.6161
12395SOL     OW39816   3.605   2.574   8.541  0.0781  0.2520  0.6434
12395SOL    HW139817   3.515   2.542   8.530 -0.0331  0.2677  1.4699
12395SOL    HW239818   3.614   2.642   8.474 -1.1462  1.5268  1.6896
12396SOL     OW39819   5.971   1.989   5.053 -0.2874 -0.5689  0.0105
12396SOL    HW139820   6.038   2.056   5.065 -0.0177 -0.4045 -2.1148
12396SOL    HW239821   5.889   2.038   5.043 -0.3688 -0.6598  0.2124
12397SOL     OW39822   9.999   6.714   9.862 -0.8023 -0.0353 -0.3503
12397SOL    HW139823   9.962   6.772   9.928 -1.5511 -1.8704  0.9007
12397SOL    HW239824   9.967   6.627   9.884  3.0743 -1.6027 -0.0212
12398SOL     OW39825   2.747   8.366   8.001 -0.3387 -0.3046  0.4946
12398SOL    HW139826   2.678   8.432   8.008 -0.2931 -0.2622  0.5437
12398SOL    HW239827   2.774   8.350   8.091 -1.6264 -1.7422  0.6683
12399SOL     OW39828   8.771   2.627  10.326 -0.4211 -1.0310  0.1874
12399SOL    HW139829   8.790   2.627  10.420  0.1210 -0.0321  0.0874
12399SOL    HW239830   8.836   2.567  10.289  0.6064  0.0106  0.2350
12400SOL     OW39831   5.074   6.399  10.136  0.1463  0.1520  0.2561
12400SOL    HW139832   5.064   6.338  10.063  1.6939 -0.5400  0.5838
12400SOL    HW239833   5.079   6.344  10.214  1.9503  0.6332  0.5270
12401SOL     OW39834   8.450   4.713   3.178 -0.1908  0.3282 -0.1223
12401SOL    HW139835   8.442   4.657   3.101  1.8378 -2.2884  1.4002
12401SOL    HW239836   8.413   4.661   3.249  0.3152  1.5962  1.1196
12402SOL     OW39837   4.881   6.413   4.347  0.0118  0.0357  0.1721
12402SOL    HW139838   4.794   6.411   4.307  0.3090 -1.0489 -0.4587
12402SOL    HW239839   4.937   6.452   4.280  0.1064  0.2507  0.3772
12403SOL     OW39840   6.940   7.049   3.300  0.3545 -0.0197  0.2302
12403SOL    HW139841   6.862   7.012   3.340  0.9775  2.2399  3.9904
12403SOL    HW239842   6.913   7.136   3.271  0.9564 -0.1176 -0.6915
12404SOL     OW39843   7.882   9.167   3.759  0.2704  0.1607  0.2797
12404SOL    HW139844   7.956   9.113   3.733  1.4419  1.0531  1.6343
12404SOL    HW239845   7.882   9.240   3.696  0.7419  0.3294  0.4776
12405SOL     OW39846   5.270   7.308   1.271 -0.5375  0.1903  0.2542
12405SOL    HW139847   5.348   7.342   1.228  0.5110 -0.6781  1.3884
12405SOL    HW239848   5.219   7.386   1.294  0.0588  0.7724 -0.3871
12406SOL     OW39849   5.039   2.170   1.240 -0.2706  0.4288  0.3723
12406SOL    HW139850   5.093   2.168   1.161 -1.4160  1.9784 -0.4863
12406SOL    HW239851   5.024   2.263   1.257  1.0104  0.2264  3.2002
12407SOL     OW39852   2.048   3.804   5.785  0.6028  0.2606  0.2706
12407SOL    HW139853   1.991   3.880   5.803  0.4958  0.1237  0.5187
12407SOL    HW239854   1.994   3.745   5.732  1.3345  1.2314 -1.6678
12408SOL     OW39855   8.475   3.427   8.301  0.2072 -0.1340  0.1131
12408SOL    HW139856   8.428   3.420   8.383  0.1783  1.0283  0.2074
12408SOL    HW239857   8.489   3.521   8.288  0.0212 -0.2674 -1.3090
12409SOL     OW39858   6.686   9.218   0.679 -0.0017  0.1541  0.4710
12409SOL    HW139859   6.721   9.291   0.628  0.8429 -0.9208 -0.5531
12409SOL    HW239860   6.651   9.158   0.613 -1.5271  0.0378  1.3445
12410SOL     OW39861   3.855   8.159   4.132 -0.1081  0.0934  0.3082
12410SOL    HW139862   3.812   8.153   4.217  1.0863 -2.3468  0.8224
12410SOL    HW239863   3.835   8.076   4.088  1.0761  0.4001 -0.8932
12411SOL     OW39864   8.201   3.041   6.558 -0.1648 -0.0354  0.4613
12411SOL    HW139865   8.135   2.987   6.601 -1.2640 -0.4937 -1.7061
12411SOL    HW239866   8.152   3.098   6.499  1.3429 -0.4474 -1.2719
12412SOL     OW39867   9.824   7.827   3.118 -0.1669 -0.1826 -0.5529
12412SOL    HW139868   9.919   7.833   3.126 -0.3160  0.3196  1.1977
12412SOL    HW239869   9.797   7.912   3.085 -0.1961  0.5213  1.2276
12413SOL     OW39870   3.931   4.685   6.453  0.0399 -0.0714  0.0972
12413SOL    HW139871   3.861   4.748   6.469  1.7904  1.5194  2.0885
12413SOL    HW239872   3.923   4.622   6.526 -1.6146 -2.2291 -1.7955
12414SOL     OW39873   0.488   7.749   4.005 -0.0081 -0.0637  0.1403
12414SOL    HW139874   0.491   7.758   3.909 -0.9543  0.0778  0.1127
12414SOL    HW239875   0.426   7.816   4.033 -1.2968 -1.4113  0.6512
12415SOL     OW39876   9.502   6.408   4.122 -0.2002 -0.2506 -0.1710
12415SOL    HW139877   9.578   6.391   4.178 -0.4762 -3.5246 -0.5642
12415SOL    HW239878   9.429   6.417   4.182  0.1241  0.4396  0.1252
12416SOL     OW39879   1.643   2.414   7.465 -0.1536 -0.0433 -0.5036
12416SOL    HW139880   1.728   2.381   7.494  0.0259 -0.8425 -1.8492
12416SOL    HW239881   1.646   2.508   7.484  0.7336 -0.1853  0.1195
12417SOL     OW39882   0.426   4.158   7.245  0.6627 -0.0576  0.6865
12417SOL    HW139883   0.520   4.153   7.225  0.1253 -0.0235 -2.2342
12417SOL    HW239884   0.398   4.067   7.250  0.6792 -0.0620  0.7017
12418SOL     OW39885   2.480   0.835   2.088  0.0469  0.0721 -0.3352
12418SOL    HW139886   2.556   0.816   2.143 -0.1736  0.6026  0.1616
12418SOL    HW239887   2.416   0.769   2.113  0.7269 -1.1126 -1.5792
12419SOL     OW39888   7.994   9.268   2.622  0.4172  0.3145 -0.2089
12419SOL    HW139889   7.977   9.216   2.544 -1.5540 -0.1893  0.5112
12419SOL    HW239890   8.090   9.271   2.628  0.6083 -2.0797 -1.0219
12420SOL     OW39891   0.320   7.412   4.537 -0.1335 -0.3221 -0.1898
12420SOL    HW139892   0.228   7.433   4.554  0.0787  0.3670  0.1447
12420SOL    HW239893   0.317   7.334   4.482 -0.9205 -0.2502 -0.2604
12421SOL     OW39894   1.474   1.827   3.711 -0.1894  0.1637  0.1191
12421SOL    HW139895   1.397   1.789   3.669 -0.3805 -2.2269  2.4395
12421SOL    HW239896   1.446   1.847   3.800  2.1945 -2.3598  1.5860
12422SOL     OW39897   9.744   6.274   1.300  0.3773 -0.2691  0.2478
12422SOL    HW139898   9.763   6.344   1.363 -1.2621  0.1641  0.3023
12422SOL    HW239899   9.809   6.285   1.231 -1.2503  2.8557 -0.9574
12423SOL     OW39900   0.232   0.388   1.325  0.0699 -0.2477  0.1007
12423SOL    HW139901   0.222   0.462   1.266  0.5996 -1.4636 -1.6043
12423SOL    HW239902   0.211   0.423   1.411 -0.5689  1.6491 -0.7634
12424SOL     OW39903   0.931   3.547   4.123  1.0290 -0.7911 -0.3447
12424SOL    HW139904   0.971   3.617   4.175 -1.0822  0.2879 -0.0694
12424SOL    HW239905   0.860   3.590   4.076  0.9141 -2.3934 -1.7195
12425SOL     OW39906   5.230   8.456   4.968 -0.4369  0.5712  0.4547
12425SOL    HW139907   5.160   8.438   5.030 -0.0507 -0.9372  0.5042
12425SOL    HW239908   5.244   8.372   4.923  0.0103  1.3570 -0.9254
12426SOL     OW39909   4.166   8.354   6.014 -0.1118  0.5055 -0.1599
12426SOL    HW139910   4.190   8.446   6.026  0.5284  0.4029 -0.5868
12426SOL    HW239911   4.071   8.354   6.014 -0.1377  1.3676 -1.5039
12427SOL     OW39912   3.978   0.904   5.431 -0.0894  0.0657  0.0492
12427SOL    HW139913   4.005   0.931   5.343 -0.0856 -1.4247 -0.4405
12427SOL    HW239914   3.939   0.982   5.469 -0.3058  0.6780 -1.3618
12428SOL     OW39915   8.293   1.900   2.353 -0.0340 -0.1781 -0.0369
12428SOL    HW139916   8.320   1.832   2.291  1.1763 -1.2228  1.5367
12428SOL    HW239917   8.197   1.897   2.352 -0.0097 -1.6060 -0.3625
12429SOL     OW39918   9.430   3.497   2.956  0.2664  0.3209 -0.3585
12429SOL    HW139919   9.421   3.441   3.033 -1.4670  1.0872  0.0499
12429SOL    HW239920   9.499   3.456   2.904 -0.8389 -2.1204 -0.0368
12430SOL     OW39921   4.841   3.094   4.487 -0.1736 -0.1235 -0.1922
12430SOL    HW139922   4.808   3.181   4.468 -0.0600  0.0744  0.4975
12430SOL    HW239923   4.764   3.037   4.482 -0.4979  0.2325  0.7434
12431SOL     OW39924   3.240   1.983   1.225 -0.2917 -0.3109  0.1465
12431SOL    HW139925   3.335   1.991   1.216 -0.3487  0.3887  0.1439
12431SOL    HW239926   3.223   2.011   1.315 -0.4748 -0.6105  0.2045
12432SOL     OW39927   9.846   5.779  10.251  0.4762 -0.1041  0.5181
12432SOL    HW139928   9.788   5.853  10.233 -0.3302 -1.0072 -0.8081
12432SOL    HW239929   9.906   5.811  10.318  0.3711  1.8634 -0.2573
12433SOL     OW39930   8.415   8.574   9.178  0.3931  0.0099 -0.3251
12433SOL    HW139931   8.495   8.553   9.227 -0.9789 -2.0203  1.2076
12433SOL    HW239932   8.389   8.660   9.210  0.5558 -0.4760  1.1844
12434SOL     OW39933   1.610   1.696   2.249  0.1088 -0.9953  0.4748
12434SOL    HW139934   1.620   1.784   2.285  0.8942 -0.9331  0.1304
12434SOL    HW239935   1.690   1.650   2.274  0.4613 -1.0964 -0.7385
12435SOL     OW39936   1.328   4.226   7.399 -0.7633  0.6130  0.2008
12435SOL    HW139937   1.318   4.174   7.319 -0.3868  0.1482  0.4531
12435SOL    HW239938   1.261   4.295   7.391 -0.8248  0.4857 -0.4424
12436SOL     OW39939   2.773   0.167   4.290 -0.5414  0.4406  0.1657
12436SOL    HW139940   2.814   0.249   4.320 -0.3268  0.4313 -0.1048
12436SOL    HW239941   2.798   0.103   4.356 -0.7577  0.6050  0.4102
12437SOL     OW39942   6.374   4.262   1.806  0.6497  0.5684 -0.4610
12437SOL    HW139943   6.434   4.254   1.732  0.6862 -0.6844 -0.3283
12437SOL    HW239944   6.362   4.172   1.837 -1.2401  0.7862 -0.4390
12438SOL     OW39945   9.572   7.681   0.753  0.0236  0.4575 -0.2744
12438SOL    HW139946   9.524   7.731   0.688 -1.6245 -0.2296  0.3486
12438SOL    HW239947   9.625   7.619   0.702 -0.8567  0.2661 -0.9781
12439SOL     OW39948  10.148   1.932   6.904  0.1216  0.2352  0.6056
12439SOL    HW139949  10.241   1.918   6.923  0.0877 -1.9634 -0.4899
12439SOL    HW239950  10.135   1.894   6.818 -1.7641  0.7396  0.6130
12440SOL     OW39951   7.656   3.662   7.085  0.0705 -0.4390 -0.1950
12440SOL    HW139952   7.563   3.685   7.081  0.3245  0.4832 -2.6965
12440SOL    HW239953   7.660   3.591   7.148 -2.0680  0.6165  1.2770
12441SOL     OW39954   6.107   7.059   3.501 -1.0241 -0.6777 -0.0887
12441SOL    HW139955   6.138   6.970   3.521 -0.4689 -0.6158 -0.6413
12441SOL    HW239956   6.035   7.073   3.563 -0.4656 -1.1297  0.6922
12442SOL     OW39957   1.626  10.000   8.734  0.5179 -0.1933 -0.0043
12442SOL    HW139958   1.611  10.030   8.824  0.6397  0.8236 -0.3167
12442SOL    HW239959   1.712   9.957   8.737 -0.8248 -3.0765  1.0507
12443SOL     OW39960   4.623   5.114   8.722  0.0818 -0.3779 -0.3762
12443SOL    HW139961   4.589   5.033   8.760 -0.8299  0.2385  0.1522
12443SOL    HW239962   4.716   5.095   8.705 -0.0080 -1.3747  0.1585
12444SOL     OW39963   9.966   6.461   6.077 -0.2385 -1.0906 -0.0822
12444SOL    HW139964   9.909   6.491   6.006  1.0491 -0.3971 -0.8753
12444SOL    HW239965  10.055   6.470   6.042  0.3565 -2.9230  0.8042
12445SOL     OW39966   6.362   6.325   4.413  0.3328  0.3634  0.2536
12445SOL    HW139967   6.380   6.383   4.488  0.0561  0.4377  0.2620
12445SOL    HW239968   6.327   6.245   4.452  1.4926 -0.1379  0.3044
12446SOL     OW39969   3.706   8.422   5.824  0.1331  0.2911  0.0752
12446SOL    HW139970   3.772   8.475   5.869  0.7283 -0.2613 -0.1361
12446SOL    HW239971   3.660   8.376   5.894 -0.4327  1.1155  0.2677
12447SOL     OW39972   2.298   9.080   8.943  0.3421 -0.1431  0.0003
12447SOL    HW139973   2.210   9.044   8.955 -0.6393  2.0406 -0.1083
12447SOL    HW239974   2.305   9.148   9.010  2.3785 -0.9700  0.6896
12448SOL     OW39975   0.368   0.875   9.092 -0.2180 -0.1439  0.4684
12448SOL    HW139976   0.409   0.882   9.006 -0.0409 -2.8196  0.2407
12448SOL    HW239977   0.440   0.853   9.151 -0.6905 -0.8457  0.7993
12449SOL     OW39978   7.020   4.270   8.177 -0.0415 -0.1830 -0.6735
12449SOL    HW139979   7.010   4.180   8.207 -0.2308 -0.5090 -1.6563
12449SOL    HW239980   7.072   4.263   8.097  1.8174  0.8064  0.3996
12450SOL     OW39981   2.216   7.585   1.834  0.7983  0.4004  0.2858
12450SOL    HW139982   2.121   7.591   1.842  1.0104  0.5482  4.6744
12450SOL    HW239983   2.244   7.673   1.809 -0.1444  0.3355 -1.1171
12451SOL     OW39984   9.235   3.721  10.121 -0.5066  0.2559  0.6947
12451SOL    HW139985   9.326   3.750  10.116 -0.7387  1.5732  2.8521
12451SOL    HW239986   9.234   3.638  10.075  1.5450  0.7439 -0.3447
12452SOL     OW39987   2.299   8.175   4.638 -0.4500 -0.5825  0.0468
12452SOL    HW139988   2.321   8.144   4.550  1.0225  1.2921 -0.3130
12452SOL    HW239989   2.378   8.157   4.690 -1.1055 -1.1707  0.8577
12453SOL     OW39990   7.099   6.921   8.166  0.0036  0.1833 -0.0903
12453SOL    HW139991   7.188   6.886   8.162  0.5255  1.5320 -1.3145
12453SOL    HW239992   7.108   7.006   8.209 -1.2767 -1.1270  3.0756
12454SOL     OW39993   9.435   7.643   0.116  0.8320  0.0144  0.6057
12454SOL    HW139994   9.377   7.567   0.106 -2.1415  1.9407  1.9571
12454SOL    HW239995   9.419   7.696   0.039  2.1863 -0.2276  0.1352
12455SOL     OW39996   0.871   4.876   6.492 -0.0420  0.2127 -0.4660
12455SOL    HW139997   0.936   4.870   6.422 -0.9413 -0.2593 -1.2668
12455SOL    HW239998   0.924   4.880   6.572  1.0045  0.9381 -1.1581
12456SOL     OW39999   1.972   7.612   4.853  0.3653  0.2447  0.3458
12456SOL    HW140000   1.996   7.521   4.837 -0.9880  0.1462 -1.4227
12456SOL    HW240001   2.055   7.657   4.865  1.1391 -0.9601 -0.2947
12457SOL     OW40002   0.447   2.235   9.776  0.4569  0.2907  0.2524
12457SOL    HW140003   0.450   2.190   9.860  0.6727  1.9549  1.1736
12457SOL    HW240004   0.394   2.178   9.720  1.5565 -1.5835  1.0348
12458SOL     OW40005   4.104   7.780   5.340  0.5037  0.7470 -0.0623
12458SOL    HW140006   4.013   7.790   5.370  0.9747  0.2741  1.6561
12458SOL    HW240007   4.096   7.762   5.246 -1.1549  1.0353 -0.0178
12459SOL     OW40008   6.158   9.242   9.272  0.6123 -0.1055 -0.5892
12459SOL    HW140009   6.120   9.158   9.294  0.2161 -0.3333 -2.0416
12459SOL    HW240010   6.250   9.234   9.296  0.4027 -0.6375  0.0678
12460SOL     OW40011   4.064   3.849   6.136  0.0260  0.3094  0.3080
12460SOL    HW140012   3.980   3.895   6.134 -0.5775 -0.7368  0.6518
12460SOL    HW240013   4.066   3.801   6.054  0.9302  1.3805 -0.3300
12461SOL     OW40014   5.070   3.674   5.197  0.0805  0.5689 -0.1072
12461SOL    HW140015   5.000   3.737   5.180  0.7785  0.8123 -2.3798
12461SOL    HW240016   5.030   3.588   5.183 -0.0495  0.6587 -0.2814
12462SOL     OW40017  10.014   7.633   8.053 -0.1793  0.0074 -0.1470
12462SOL    HW140018  10.093   7.687   8.053  0.1190 -0.4247  0.0546
12462SOL    HW240019  10.043   7.548   8.020 -0.4765 -0.2629  0.2776
12463SOL     OW40020   6.910   2.013  10.230 -0.0129  0.0023 -0.1507
12463SOL    HW140021   6.870   2.070  10.296 -0.1660 -0.5123  0.2147
12463SOL    HW240022   6.995   1.989  10.268 -0.1259 -0.3420 -0.1043
12464SOL     OW40023   8.791   6.515   5.597 -0.5798  0.1568 -0.1627
12464SOL    HW140024   8.803   6.595   5.648 -0.1058 -0.0771  0.0997
12464SOL    HW240025   8.831   6.446   5.650  1.0518  0.0993 -1.3963
12465SOL     OW40026   9.937   1.249   9.242  0.2492  0.4666 -0.2655
12465SOL    HW140027  10.015   1.268   9.191  1.4392 -0.2073  1.2242
12465SOL    HW240028   9.928   1.323   9.302 -0.6984  0.8857 -0.8943
12466SOL     OW40029   7.947   8.630   3.044  0.3224 -0.0925 -0.3411
12466SOL    HW140030   7.869   8.650   3.095 -1.0395 -0.6639 -2.1258
12466SOL    HW240031   7.966   8.711   2.997  0.9656  0.1141  0.2498
12467SOL     OW40032   5.741   7.679   5.455  0.0196 -0.1714 -0.0505
12467SOL    HW140033   5.829   7.716   5.446 -0.1952  0.1922 -0.6585
12467SOL    HW240034   5.684   7.754   5.472  0.0536 -0.5664  2.1821
12468SOL     OW40035   1.130   0.850   0.626  0.2753  0.0971  0.0222
12468SOL    HW140036   1.056   0.820   0.573 -0.7284  0.8895  0.9186
12468SOL    HW240037   1.145   0.940   0.596  0.3090  0.2262  0.4220
12469SOL     OW40038   2.946   2.206   3.856  0.0911  0.3759  0.5437
12469SOL    HW140039   2.922   2.122   3.817 -2.3518  0.7318  1.1317
12469SOL    HW240040   3.016   2.240   3.800 -0.4104 -1.0319 -0.9992
12470SOL     OW40041   9.962   6.990   5.913  0.0340  0.7542  0.1205
12470SOL    HW140042   9.885   6.998   5.969  0.1637 -0.0950  0.4530
12470SOL    HW240043   9.936   7.026   5.829 -0.9346 -0.0888  0.0451
12471SOL     OW40044   1.594   7.260   8.819  0.3096 -0.0677  0.1918
12471SOL    HW140045   1.595   7.186   8.880 -1.0180 -0.0975  0.2069
12471SOL    HW240046   1.651   7.325   8.860  1.3849 -1.0205  0.2427
12472SOL     OW40047   4.951   1.072   6.202  0.0782  0.4956  0.1333
12472SOL    HW140048   5.037   1.092   6.238  0.9325 -2.2334 -0.2212
12472SOL    HW240049   4.893   1.069   6.279  0.3753  1.7183  0.4351
12473SOL     OW40050   5.162   5.196   4.363  0.0410 -0.0431  0.3262
12473SOL    HW140051   5.086   5.137   4.357 -0.0130 -0.0446  1.0269
12473SOL    HW240052   5.192   5.188   4.453  0.8590 -0.0115  0.0626
12474SOL     OW40053   4.384   1.015   1.830 -0.0555  0.5462 -0.3460
12474SOL    HW140054   4.407   0.975   1.915  1.5800 -1.6631 -1.7120
12474SOL    HW240055   4.353   0.942   1.777  0.4999  1.5840 -2.1704
12475SOL     OW40056   8.483   7.496   9.873  0.2292  0.2921 -0.2101
12475SOL    HW140057   8.503   7.451   9.791 -2.1139 -2.5620  0.5743
12475SOL    HW240058   8.402   7.544   9.854 -0.0452  0.0234  0.2420
12476SOL     OW40059   3.837   9.785   9.344  0.2672 -0.2074  0.4549
12476SOL    HW140060   3.821   9.697   9.379  0.7982 -0.1686  0.8042
12476SOL    HW240061   3.925   9.781   9.307  0.4613  0.2888  0.8437
12477SOL     OW40062   4.802  10.121   4.778  0.8146  0.0363 -0.2940
12477SOL    HW140063   4.848  10.176   4.714  0.3580  0.5360 -0.2007
12477SOL    HW240064   4.742  10.181   4.822  0.1981 -0.5697 -0.2910
12478SOL     OW40065   9.645   7.160   9.308 -0.1524 -0.0759 -0.1671
12478SOL    HW140066   9.738   7.143   9.292  0.1807  1.6801 -0.3769
12478SOL    HW240067   9.616   7.087   9.362  1.0802 -1.2094 -0.9559
12479SOL     OW40068   1.216   6.835   7.194 -0.2045 -0.2606 -0.1407
12479SOL    HW140069   1.237   6.900   7.128 -1.6420  0.2316 -0.1309
12479SOL    HW240070   1.130   6.859   7.227 -1.0097 -2.4299 -0.4748
12480SOL     OW40071   5.847   5.305   6.733 -0.3210  0.2572 -0.0786
12480SOL    HW140072   5.843   5.328   6.641  0.2827 -0.0719 -0.1952
12480SOL    HW240073   5.855   5.209   6.734  0.7690  0.3316  0.2595
12481SOL     OW40074   6.821   3.823   0.220  0.1626  0.2315  0.4105
12481SOL    HW140075   6.810   3.861   0.307 -0.5294  1.0689 -0.0310
12481SOL    HW240076   6.813   3.728   0.234 -3.0439  0.4403  0.8860
12482SOL     OW40077   4.541   5.126   2.408  0.0124 -0.3467  0.1715
12482SOL    HW140078   4.475   5.067   2.373 -0.9362  0.3720  0.7135
12482SOL    HW240079   4.536   5.204   2.353  0.1391 -0.1405  0.4476
12483SOL     OW40080   1.421   5.540   7.364 -0.7958 -0.6524  0.0501
12483SOL    HW140081   1.366   5.541   7.286  1.5496  0.6434 -1.7255
12483SOL    HW240082   1.401   5.622   7.410 -0.7296 -0.4494 -0.2859
12484SOL     OW40083   6.832   8.094   7.325 -0.0742 -0.4855 -0.8372
12484SOL    HW140084   6.840   8.172   7.271 -0.9007 -0.1054 -0.4195
12484SOL    HW240085   6.882   8.114   7.405 -0.2994 -0.3743 -0.7233
12485SOL     OW40086   4.178   3.357   5.748  0.2882  0.0856 -0.4542
12485SOL    HW140087   4.124   3.435   5.736  0.4012  0.2945  0.3388
12485SOL    HW240088   4.236   3.355   5.672  0.2727  0.7669 -0.4850
12486SOL     OW40089  10.044   4.606   8.939 -0.0930 -0.0133 -0.6814
12486SOL    HW140090  10.090   4.534   8.982  0.2720  0.1846 -0.7345
12486SOL    HW240091  10.038   4.580   8.847  0.1919  0.1004 -0.7324
12487SOL     OW40092  10.011   1.777   0.113  0.2981  0.1381 -0.0571
12487SOL    HW140093   9.986   1.866   0.090  0.5133  0.1276 -0.3407
12487SOL    HW240094  10.106   1.780   0.122  0.1078  0.4829  2.3726
12488SOL     OW40095   4.203   5.192   0.889  0.2430  0.1498 -0.2928
12488SOL    HW140096   4.222   5.164   0.799 -0.7878  0.0842 -0.5059
12488SOL    HW240097   4.184   5.285   0.881 -1.3134 -0.1483 -0.4014
12489SOL     OW40098   3.293   3.166   6.746  0.1616 -0.3136 -0.2100
12489SOL    HW140099   3.317   3.258   6.734 -2.5852  0.8100  1.7910
12489SOL    HW240100   3.250   3.141   6.665  2.7546 -0.6271 -1.6083
12490SOL     OW40101   3.372   5.466   5.333  0.0239  0.0688 -0.1240
12490SOL    HW140102   3.385   5.423   5.418  0.0637 -0.3046 -0.3136
12490SOL    HW240103   3.458   5.503   5.312 -0.0718  0.4492  0.1531
12491SOL     OW40104   6.895   8.552   6.923  0.8677 -0.2386  0.1395
12491SOL    HW140105   6.958   8.561   6.995  0.6142 -1.7931  0.5874
12491SOL    HW240106   6.913   8.466   6.885 -1.3657 -1.0140  0.6839
12492SOL     OW40107   6.916   9.568   7.548 -0.0978 -0.4512  0.0136
12492SOL    HW140108   6.990   9.611   7.591  1.5324 -3.3902  0.4245
12492SOL    HW240109   6.847   9.566   7.615  0.5239 -0.2902  0.6703
12493SOL     OW40110   5.306   1.843   7.781 -0.4466  0.4471  0.0250
12493SOL    HW140111   5.313   1.748   7.787 -2.7017  0.3043  1.6890
12493SOL    HW240112   5.307   1.862   7.688 -2.1414 -1.4553 -0.4525
12494SOL     OW40113   4.084   3.394   8.249  0.2204 -0.1194 -0.6093
12494SOL    HW140114   4.042   3.393   8.335  2.5666 -0.1566  0.6114
12494SOL    HW240115   4.051   3.316   8.205 -1.5163  0.2496 -0.0322
12495SOL     OW40116   6.117   7.894   1.119 -0.3132 -0.6619  0.1882
12495SOL    HW140117   6.076   7.861   1.199 -0.8332 -1.0168 -0.2109
12495SOL    HW240118   6.209   7.869   1.126 -0.5297 -1.4385  0.2859
12496SOL     OW40119   1.156   6.807   0.461  0.2566  0.4503  0.9696
12496SOL    HW140120   1.226   6.747   0.487  1.3267  2.0363  1.9471
12496SOL    HW240121   1.085   6.788   0.523 -0.1702 -1.0742  0.0585
12497SOL     OW40122   1.824   3.672   2.186  0.4344  0.3922 -0.7558
12497SOL    HW140123   1.835   3.681   2.281 -2.1849  0.8955 -0.4183
12497SOL    HW240124   1.880   3.598   2.162 -0.6880 -1.3745  1.6221
12498SOL     OW40125   1.803   7.746   1.116  0.2845  0.4426 -0.5033
12498SOL    HW140126   1.850   7.662   1.118  0.1616  0.3812  0.5463
12498SOL    HW240127   1.813   7.777   1.026  1.4792 -0.0538 -0.5703
12499SOL     OW40128   9.391   5.895   5.809 -0.3415  0.5353  0.8940
12499SOL    HW140129   9.475   5.850   5.815 -0.2237  0.6906  0.4395
12499SOL    HW240130   9.342   5.864   5.885  0.1343  0.4611  1.1769
12500SOL     OW40131   6.613   9.282   2.360  0.0017  0.4079  0.1991
12500SOL    HW140132   6.695   9.245   2.393  0.6153  0.6458 -1.0142
12500SOL    HW240133   6.639   9.333   2.284 -1.2513  0.6965 -0.0481
12501SOL     OW40134   0.629   6.836   4.875 -0.4290  0.4602  0.3262
12501SOL    HW140135   0.676   6.905   4.920  1.5016 -0.8836  0.4718
12501SOL    HW240136   0.625   6.865   4.783 -0.8716  1.3588  0.6176
12502SOL     OW40137   8.941   0.151   0.729  0.0116  0.1942 -0.1598
12502SOL    HW140138   8.942   0.122   0.638 -0.5583 -0.7729  0.1249
12502SOL    HW240139   8.852   0.183   0.743 -0.3762 -1.0759  0.4583
12503SOL     OW40140   5.443   9.503   0.102 -0.0063 -0.0301  0.1250
12503SOL    HW140141   5.412   9.588   0.069 -1.2754 -0.5963 -0.1880
12503SOL    HW240142   5.428   9.442   0.030  1.4752 -0.4323  0.1214
12504SOL     OW40143   8.866   4.189   5.568  0.4219  0.2618  0.1788
12504SOL    HW140144   8.848   4.250   5.497  0.9318  0.7447  0.4578
12504SOL    HW240145   8.850   4.103   5.529 -1.0395  0.5832  0.0013
12505SOL     OW40146   2.696   2.488   1.974  0.1217 -0.0406 -0.4033
12505SOL    HW140147   2.676   2.582   1.973  0.0106 -0.0536 -1.6177
12505SOL    HW240148   2.788   2.484   1.948 -0.3068 -0.3290 -1.9730
12506SOL     OW40149   1.540   3.715   0.832 -0.1409  0.4130  0.3742
12506SOL    HW140150   1.466   3.662   0.802  0.1586 -0.0206  0.3864
12506SOL    HW240151   1.575   3.666   0.907 -1.4443  1.9468  2.0767
12507SOL     OW40152   1.361   5.038   3.369 -0.2001  0.0930 -0.0972
12507SOL    HW140153   1.400   5.003   3.449  2.3417  0.2663 -1.1596
12507SOL    HW240154   1.384   4.975   3.301  1.9203  2.1976 -1.5154
12508SOL     OW40155   7.660   8.513   5.409 -0.1204  0.0139 -0.1686
12508SOL    HW140156   7.711   8.536   5.486  1.8507  1.3755 -1.7515
12508SOL    HW240157   7.588   8.460   5.442  0.7004  0.4483  2.5535
12509SOL     OW40158   0.889   3.805   6.073 -0.0579 -0.2935  0.6528
12509SOL    HW140159   0.879   3.875   6.009  1.3264  0.8960  1.6711
12509SOL    HW240160   0.945   3.740   6.029 -1.1419 -0.6769 -0.2030
12510SOL     OW40161   6.829   5.946   0.206  0.4346  0.0474 -0.2215
12510SOL    HW140162   6.733   5.942   0.204  0.4132 -1.1228  1.2615
12510SOL    HW240163   6.850   6.029   0.162 -1.2864  0.7304  0.1369
12511SOL     OW40164   5.370   4.950   1.131 -0.0193  0.7580 -0.4161
12511SOL    HW140165   5.358   5.044   1.147 -1.0245  0.4653  0.7207
12511SOL    HW240166   5.282   4.913   1.140  0.8028 -0.8193  3.0139
12512SOL     OW40167   5.053   0.140   7.669 -0.8146  0.2125  0.1342
12512SOL    HW140168   4.977   0.162   7.615 -0.1770  1.5717 -0.2588
12512SOL    HW240169   5.112   0.215   7.659  0.2891 -0.5117  0.9617
12513SOL     OW40170   9.504   4.725   6.719 -0.3406  0.3044 -0.1577
12513SOL    HW140171   9.553   4.668   6.778  0.5810  0.4836 -0.7413
12513SOL    HW240172   9.412   4.710   6.742 -0.1357 -1.5901 -0.4479
12514SOL     OW40173   5.204   4.767   2.033  0.1815  0.0558  0.4008
12514SOL    HW140174   5.120   4.776   2.079 -0.0369 -1.0462  0.2507
12514SOL    HW240175   5.242   4.686   2.068 -0.2326 -1.1021 -1.6725
12515SOL     OW40176  10.322   0.683   6.578 -0.5370 -0.6444 -0.2773
12515SOL    HW140177  10.387   0.647   6.639  0.6024  0.5329 -0.7531
12515SOL    HW240178  10.259   0.729   6.634 -0.7802 -1.4864  0.1598
12516SOL     OW40179   9.780   5.108   7.617 -0.1625 -0.1680  0.3380
12516SOL    HW140180   9.854   5.085   7.672  0.4973  0.8407 -0.1017
12516SOL    HW240181   9.739   5.024   7.596  1.7434 -0.9083 -0.6439
12517SOL     OW40182   7.043   7.590   9.545 -0.0063 -0.2357 -0.4460
12517SOL    HW140183   6.963   7.635   9.519 -1.1571 -0.3298  2.5394
12517SOL    HW240184   7.102   7.661   9.573  0.0505 -0.2913 -0.4243
12518SOL     OW40185   3.351   3.810   7.495  0.4185 -1.1750 -0.0556
12518SOL    HW140186   3.373   3.758   7.572 -0.6989 -0.3391  0.8586
12518SOL    HW240187   3.274   3.767   7.458 -0.3008 -0.3941  0.5054
12519SOL     OW40188   1.929   5.101   9.027 -0.3045  0.1483 -0.3407
12519SOL    HW140189   1.834   5.106   9.013 -0.4461 -0.5774  0.2709
12519SOL    HW240190   1.939   5.037   9.098  0.6986 -0.5030 -1.0438
12520SOL     OW40191   8.501   2.421   0.032  0.1147  0.1927 -0.1106
12520SOL    HW140192   8.435   2.406  -0.036 -0.7851 -2.6893  1.1967
12520SOL    HW240193   8.579   2.375   0.000 -0.5222 -1.7770  0.9661
12521SOL     OW40194   9.571   8.394   2.305  0.1338  0.3878  0.2567
12521SOL    HW140195   9.501   8.356   2.251  0.1365 -0.0163  0.5427
12521SOL    HW240196   9.538   8.389   2.394 -0.2860  1.9421  0.2167
12522SOL     OW40197   5.354   3.507   4.388  0.1841  0.1978  0.3379
12522SOL    HW140198   5.274   3.524   4.438  0.1360  1.7188 -0.2117
12522SOL    HW240199   5.406   3.586   4.399  0.8435 -0.0700 -0.7510
12523SOL     OW40200   4.768   6.149  10.343  0.2110  0.2131  0.2905
12523SOL    HW140201   4.704   6.118  10.279 -0.7884  1.2599  0.7306
12523SOL    HW240202   4.808   6.070  10.378  0.0918 -0.4122 -0.9284
12524SOL     OW40203   1.910   6.855   6.989 -0.1033  0.0885 -0.2820
12524SOL    HW140204   1.905   6.770   7.033 -1.0446  0.4430  0.3088
12524SOL    HW240205   1.885   6.919   7.056  0.1118  0.7936 -0.8578
12525SOL     OW40206   5.431   6.907   6.666  0.5978  0.2231  0.2850
12525SOL    HW140207   5.476   6.971   6.721  1.3300 -0.4891  0.5367
12525SOL    HW240208   5.356   6.879   6.717  0.7485  0.2619  0.5272
12526SOL     OW40209  10.074   9.331   4.424 -0.4393  0.6576  0.3388
12526SOL    HW140210  10.162   9.295   4.430  0.2400  2.1858  0.1349
12526SOL    HW240211  10.019   9.258   4.397  1.0597  0.0613 -1.2589
12527SOL     OW40212   0.544   5.662   1.683 -0.5809 -0.2151 -0.0182
12527SOL    HW140213   0.572   5.571   1.673 -1.3490 -0.4508 -0.0958
12527SOL    HW240214   0.565   5.703   1.600 -0.7850 -0.4782 -0.2030
12528SOL     OW40215   1.902   1.942   3.531  0.6010  0.3033  0.0397
12528SOL    HW140216   1.945   1.913   3.611 -0.8983  0.7763  1.0690
12528SOL    HW240217   1.903   2.037   3.537  1.1529  0.3660 -0.8980
12529SOL     OW40218   0.593   1.476   9.807  0.0144  0.1593 -0.8512
12529SOL    HW140219   0.588   1.463   9.712 -1.9973  0.8815 -0.8837
12529SOL    HW240220   0.617   1.390   9.841 -1.3585 -0.6743 -1.8810
12530SOL     OW40221   9.282   1.010   7.113  0.1598 -0.0660  0.2715
12530SOL    HW140222   9.263   0.955   7.188 -3.5064 -0.5013 -0.8041
12530SOL    HW240223   9.340   1.079   7.148 -0.0048 -1.1998  3.0170
12531SOL     OW40224   6.085   5.853   2.907  0.2392 -0.4223 -0.2267
12531SOL    HW140225   6.128   5.936   2.888  0.3440 -0.2459  0.7304
12531SOL    HW240226   6.114   5.794   2.837  2.1376 -0.3396  0.4244
12532SOL     OW40227   8.153   8.083   7.910  0.1257 -0.3364  0.3579
12532SOL    HW140228   8.245   8.102   7.924  0.1543 -0.9345  1.0169
12532SOL    HW240229   8.127   8.142   7.839  0.3240  1.8077  1.9627
12533SOL     OW40230   6.756   5.576   0.864 -0.3545 -0.1742  0.6069
12533SOL    HW140231   6.743   5.521   0.941  0.7199 -2.8490 -1.0018
12533SOL    HW240232   6.667   5.604   0.840 -0.9420 -1.1459  1.5523
12534SOL     OW40233   0.470   2.959   9.593 -0.4490 -0.4932  0.1139
12534SOL    HW140234   0.565   2.951   9.599 -0.2491  0.5559 -1.2024
12534SOL    HW240235   0.445   2.902   9.520 -0.4769  1.2210 -1.2731
12535SOL     OW40236   7.454   7.311   9.617 -0.4890  0.2484  0.3591
12535SOL    HW140237   7.432   7.401   9.641 -1.1617  0.4494 -0.9420
12535SOL    HW240238   7.384   7.284   9.557  0.2223 -0.8098 -0.0338
12536SOL     OW40239   2.710   0.213   8.618  0.2213 -0.0309  0.4527
12536SOL    HW140240   2.715   0.125   8.656 -2.2006 -0.3646  0.1410
12536SOL    HW240241   2.672   0.199   8.531 -1.1343  1.4116  0.7921
12537SOL     OW40242   8.686   3.333   2.203  0.7262  0.1383 -0.2005
12537SOL    HW140243   8.607   3.291   2.237  1.7395 -3.2572 -1.6498
12537SOL    HW240244   8.747   3.330   2.276  0.6663 -0.6346 -0.1709
12538SOL     OW40245   7.179   6.372   0.989 -0.5593  0.2929 -0.0233
12538SOL    HW140246   7.188   6.467   0.996 -0.4766  0.1955  1.9210
12538SOL    HW240247   7.266   6.338   1.011 -0.8039 -0.2344  0.1662
12539SOL     OW40248   1.877   5.648   9.067  0.3656  0.2121  0.1947
12539SOL    HW140249   1.915   5.563   9.046 -0.6900 -0.5714  1.3071
12539SOL    HW240250   1.882   5.654   9.162 -0.4780  0.9554  0.2110
12540SOL     OW40251   0.953   7.873   6.693  0.0633  0.0245 -0.2708
12540SOL    HW140252   0.929   7.781   6.682  0.3512 -0.2118  0.9340
12540SOL    HW240253   0.945   7.889   6.787  1.9305  0.6756 -0.1738
12541SOL     OW40254   5.312   4.694   0.066 -0.3667  0.0790 -0.2865
12541SOL    HW140255   5.313   4.616   0.011  0.6623 -0.1622  0.0498
12541SOL    HW240256   5.353   4.666   0.148 -0.5128  0.8211  0.0503
12542SOL     OW40257   5.868   8.386   0.914  0.1308  0.6138  0.0589
12542SOL    HW140258   5.866   8.352   0.824 -0.1202  1.8252 -0.4104
12542SOL    HW240259   5.956   8.423   0.923  0.2046  0.3691  0.3718
12543SOL     OW40260   6.666   9.109   1.976  0.1046 -0.0747 -0.2393
12543SOL    HW140261   6.723   9.042   1.939  0.0452 -1.0348  1.2971
12543SOL    HW240262   6.724   9.182   1.996  0.3414 -0.0454 -1.0220
12544SOL     OW40263   5.957   7.312   7.543 -0.1799  0.1749  0.0725
12544SOL    HW140264   5.932   7.392   7.497  1.0566  0.3083 -0.4273
12544SOL    HW240265   5.924   7.323   7.632 -0.3665  1.0595 -0.1000
12545SOL     OW40266   9.360   9.249   5.867  0.4005 -0.3653  0.4467
12545SOL    HW140267   9.308   9.173   5.895 -0.3478 -0.5730 -1.4088
12545SOL    HW240268   9.350   9.252   5.772  1.6021  1.2193  0.3295
12546SOL     OW40269   7.368   4.335   1.830 -0.1889  0.1409 -0.0293
12546SOL    HW140270   7.284   4.340   1.785 -0.4275 -0.7502  0.2954
12546SOL    HW240271   7.433   4.346   1.761 -0.5473 -1.2247 -0.6183
12547SOL     OW40272   1.517   8.269   7.317  0.2422  0.0143  0.7305
12547SOL    HW140273   1.484   8.336   7.377  2.4876  0.7831  1.2420
12547SOL    HW240274   1.599   8.240   7.357  0.6060 -1.1863 -0.7895
12548SOL     OW40275   7.455   9.061   2.146  0.2005 -0.1805 -0.3884
12548SOL    HW140276   7.497   8.980   2.175 -1.9716 -0.5398  2.1609
12548SOL    HW240277   7.524   9.128   2.151  1.7843 -1.6212 -1.6622
12549SOL     OW40278   3.230   3.746   7.139  0.4339  0.1166 -0.1248
12549SOL    HW140279   3.166   3.718   7.204  0.0010  1.9273  0.2944
12549SOL    HW240280   3.238   3.841   7.152  3.8262 -0.1159  0.3896
12550SOL     OW40281   3.452   4.303   9.803  0.4699 -0.8172 -0.5566
12550SOL    HW140282   3.384   4.258   9.753  0.4617  0.4802 -1.7711
12550SOL    HW240283   3.516   4.236   9.823 -0.4639 -1.7593 -0.6436
12551SOL     OW40284   8.122   1.731   9.439  0.2502 -0.6931  0.8244
12551SOL    HW140285   8.070   1.768   9.510 -1.2737 -0.6693 -0.2521
12551SOL    HW240286   8.062   1.670   9.395  1.9800 -2.7691  1.1704
12552SOL     OW40287   5.176   4.420   1.010  0.0724  0.5207 -0.7196
12552SOL    HW140288   5.203   4.496   0.958  0.8712  1.3714  0.8644
12552SOL    HW240289   5.136   4.361   0.947 -0.4313  2.1870 -2.0377
12553SOL     OW40290  10.105   4.475   0.762 -0.2206 -0.4003  0.7232
12553SOL    HW140291  10.043   4.496   0.831 -2.0753 -0.2561 -0.8826
12553SOL    HW240292  10.063   4.402   0.714  1.1288 -0.6945 -0.0513
12554SOL     OW40293   3.902   1.595   4.745 -0.3237 -0.3208  0.5269
12554SOL    HW140294   3.810   1.604   4.772 -0.3264  1.6421  0.0050
12554SOL    HW240295   3.941   1.539   4.811 -1.8239 -0.9178  0.9493
12555SOL     OW40296   6.913   5.500   6.028  0.3397  0.1497 -0.8173
12555SOL    HW140297   6.988   5.472   5.976 -0.8058  1.2102 -3.2217
12555SOL    HW240298   6.923   5.594   6.037  0.8021 -0.0812  1.4714
12556SOL     OW40299   3.145   8.230   8.002  0.5155  0.3259 -0.0039
12556SOL    HW140300   3.164   8.273   8.086  1.8160 -0.1138 -0.0477
12556SOL    HW240301   3.208   8.158   7.998 -1.4304 -1.4284 -0.0599
12557SOL     OW40302   8.862   8.996  10.309  0.3461 -0.1744 -0.2045
12557SOL    HW140303   8.876   8.969  10.400  0.6350  0.1643 -0.1499
12557SOL    HW240304   8.935   9.054  10.289  0.5280 -0.5951 -0.7978
12558SOL     OW40305   8.097   8.896   5.457 -0.1701  0.0117  0.1597
12558SOL    HW140306   8.118   8.915   5.549  1.3042  2.2504 -0.5530
12558SOL    HW240307   8.183   8.880   5.417 -0.7088  0.0089 -1.0156
12559SOL     OW40308   9.300   4.765   8.842 -0.1882  0.2569 -0.0551
12559SOL    HW140309   9.274   4.673   8.832 -0.4906  0.3566 -0.1826
12559SOL    HW240310   9.330   4.772   8.933  0.1343 -0.0412 -0.1343
12560SOL     OW40311   6.088   8.600   2.708 -0.0855 -0.2961  0.1562
12560SOL    HW140312   6.020   8.537   2.684  1.9495 -3.2433  1.4025
12560SOL    HW240313   6.085   8.604   2.803  1.1210 -0.1178  0.2120
12561SOL     OW40314   6.332   2.398   7.723  0.7699  0.6547 -0.0489
12561SOL    HW140315   6.340   2.391   7.628  2.7572 -0.0785  0.1361
12561SOL    HW240316   6.347   2.309   7.755 -2.0204  0.4144  0.8933
12562SOL     OW40317   5.478   4.219   4.639 -0.1570 -0.0424 -0.2138
12562SOL    HW140318   5.441   4.225   4.727 -1.5709 -0.4383 -0.7466
12562SOL    HW240319   5.504   4.309   4.618 -0.4380  0.1728  0.3405
12563SOL     OW40320   0.525   5.045  10.352 -0.2227  0.1318  0.0566
12563SOL    HW140321   0.606   5.093  10.336  0.0949 -0.7885 -1.2492
12563SOL    HW240322   0.498   5.073  10.439  0.3270  2.1135 -0.3431
12564SOL     OW40323   2.331   0.682   7.874  0.1982  0.0363 -0.1441
12564SOL    HW140324   2.352   0.734   7.796 -0.4482 -0.1845 -0.4721
12564SOL    HW240325   2.292   0.602   7.840  3.1796 -1.7072  0.2527
12565SOL     OW40326   4.821   5.104  10.341 -0.0023 -0.3327  0.3196
12565SOL    HW140327   4.800   5.159  10.418  1.1289 -2.2154  2.0673
12565SOL    HW240328   4.914   5.122  10.324  1.4714 -4.0831  3.1755
12566SOL     OW40329   1.588   5.211   5.575  0.2350  0.2246 -0.0790
12566SOL    HW140330   1.670   5.163   5.581  0.8177  1.3694  2.3538
12566SOL    HW240331   1.520   5.144   5.587  0.9712 -0.2927  1.4556
12567SOL     OW40332   1.325   7.140  10.312  0.1359 -0.5752 -0.2393
12567SOL    HW140333   1.260   7.177  10.372 -0.2571  1.2078 -1.6989
12567SOL    HW240334   1.408   7.180  10.340 -0.3054  1.6935 -1.8903
12568SOL     OW40335  10.193   6.762   5.466 -0.1042  0.1106  0.3242
12568SOL    HW140336  10.217   6.847   5.502 -0.4536  0.3568 -0.0146
12568SOL    HW240337  10.273   6.710   5.473  1.0188  1.3562 -2.1000
12569SOL     OW40338   3.661   4.387   0.552 -0.8702  0.5561 -0.2381
12569SOL    HW140339   3.626   4.451   0.490  0.6598  1.1965 -0.4943
12569SOL    HW240340   3.631   4.417   0.638  1.3958  2.8160 -0.1226
12570SOL     OW40341   1.999   5.985  10.017 -0.5453 -0.5859  0.5332
12570SOL    HW140342   1.976   6.011   9.928  0.0099 -0.0076  0.5566
12570SOL    HW240343   2.090   5.957  10.012 -0.1127  0.6235  1.1435
12571SOL     OW40344   0.880   9.938   0.513  0.0392 -0.0496 -0.0838
12571SOL    HW140345   0.929   9.867   0.471 -1.3953 -1.7264  0.9550
12571SOL    HW240346   0.799   9.945   0.463 -0.7884 -0.6835  1.0993
12572SOL     OW40347   6.775   4.300   1.846 -0.2187 -0.3508  0.1808
12572SOL    HW140348   6.752   4.338   1.930  0.0966 -2.5260  1.3265
12572SOL    HW240349   6.703   4.239   1.827  0.0195 -0.3345 -0.8103
12573SOL     OW40350   2.784   2.696   1.703  0.0162  0.0166  0.7482
12573SOL    HW140351   2.723   2.685   1.776 -1.4515  0.3575 -0.3826
12573SOL    HW240352   2.738   2.754   1.642  0.6239 -1.3031 -1.0369
12574SOL     OW40353   0.397   6.744   6.402 -0.0810 -0.2872 -0.1246
12574SOL    HW140354   0.421   6.775   6.489 -1.3566  0.9035 -0.1692
12574SOL    HW240355   0.352   6.660   6.417 -0.8721  0.2285  0.4263
12575SOL     OW40356   8.778   6.912   6.754  0.1142  0.5569  0.0193
12575SOL    HW140357   8.798   6.826   6.718 -1.6069  0.3520 -0.5407
12575SOL    HW240358   8.756   6.966   6.677 -2.0996  0.5381  0.5748
12576SOL     OW40359   5.844   7.662   6.357  0.0416 -0.1904  0.1773
12576SOL    HW140360   5.897   7.678   6.435 -0.5191  0.4155  0.4379
12576SOL    HW240361   5.904   7.676   6.284  0.7075 -1.2645  0.4978
12577SOL     OW40362   9.788   0.217   8.368  0.1391 -0.2887  0.5826
12577SOL    HW140363   9.723   0.286   8.355 -2.4206 -2.5997  0.0372
12577SOL    HW240364   9.851   0.253   8.430 -0.5401  2.7855 -0.3518
12578SOL     OW40365   7.336   6.018   9.770  0.3891 -0.1354  0.7387
12578SOL    HW140366   7.276   6.056   9.706  1.6030  1.5544  0.5276
12578SOL    HW240367   7.355   5.930   9.737  0.0009  0.2344 -0.5257
12579SOL     OW40368   1.106   8.011   5.194 -0.0293  0.6049  0.5641
12579SOL    HW140369   1.043   7.942   5.172  1.1832 -0.9497  1.7166
12579SOL    HW240370   1.095   8.023   5.288  1.1641  0.5332  0.7186
12580SOL     OW40371   7.845   3.416   7.489 -0.2065 -0.5567  0.0456
12580SOL    HW140372   7.844   3.458   7.575 -1.3487 -1.2613  0.4045
12580SOL    HW240373   7.860   3.323   7.508 -0.1999 -0.6724 -0.5293
12581SOL     OW40374   4.174   2.878   2.669 -0.3990 -0.5100 -0.1099
12581SOL    HW140375   4.250   2.836   2.628  1.5309  1.1418  1.5377
12581SOL    HW240376   4.179   2.970   2.640 -1.2234 -0.1750  0.7494
12582SOL     OW40377  10.113   2.931   7.815  0.5294 -0.2912  0.0498
12582SOL    HW140378  10.036   2.882   7.786 -0.0935  1.1448 -0.8678
12582SOL    HW240379  10.147   2.971   7.735  1.7889 -0.2790  0.5687
12583SOL     OW40380   2.589   1.161   5.093 -0.4835 -0.0100 -0.1190
12583SOL    HW140381   2.621   1.082   5.049 -1.6108  0.3856 -1.7645
12583SOL    HW240382   2.664   1.193   5.143  0.1769 -1.7601  0.0834
12584SOL     OW40383   1.296   6.274   8.064 -0.0379  0.0708 -0.0016
12584SOL    HW140384   1.231   6.240   8.002  0.6399  0.5232 -0.9928
12584SOL    HW240385   1.324   6.198   8.114  0.2063 -0.5315 -1.0176
12585SOL     OW40386   8.575   2.627   9.752  0.2892 -0.0446 -0.1900
12585SOL    HW140387   8.514   2.602   9.682  0.1625  1.0973 -0.5138
12585SOL    HW240388   8.566   2.722   9.759  0.5297 -0.1001  1.1847
12586SOL     OW40389   5.646   8.994   2.541 -0.0141  0.3304 -0.3770
12586SOL    HW140390   5.673   8.989   2.449 -0.0061  2.6597 -0.5700
12586SOL    HW240391   5.728   8.989   2.590  0.5970  3.6051 -0.7944
12587SOL     OW40392   1.942   0.853   1.934 -0.3580 -0.2605 -0.0163
12587SOL    HW140393   1.902   0.852   1.847  1.6620  1.8897 -1.0807
12587SOL    HW240394   1.890   0.918   1.982  0.4350  0.9588 -0.7263
12588SOL     OW40395   2.200   2.559   4.203  0.3014  0.0208 -0.1747
12588SOL    HW140396   2.218   2.577   4.295 -2.3055  2.6414 -0.0070
12588SOL    HW240397   2.233   2.637   4.157 -0.2481 -0.3324 -1.2020
12589SOL     OW40398   7.586   6.451   0.568 -0.2843 -0.4166  0.2244
12589SOL    HW140399   7.678   6.438   0.593 -0.3919  2.6073  2.6679
12589SOL    HW240400   7.537   6.438   0.649 -1.7493  0.5035 -0.4814
12590SOL     OW40401   6.014   2.400   5.275  0.2834 -0.1834 -0.3218
12590SOL    HW140402   5.947   2.410   5.208  0.8724  1.0918 -0.7571
12590SOL    HW240403   6.015   2.485   5.320  1.4455 -0.2464 -0.1927
12591SOL     OW40404   3.138   5.798   9.125  0.3515 -0.3829 -0.8474
12591SOL    HW140405   3.171   5.775   9.212 -0.4204 -2.5675 -1.0537
12591SOL    HW240406   3.081   5.873   9.139 -1.5159 -2.0131  0.9707
12592SOL     OW40407   7.564   1.723   0.154  0.2400 -0.3643 -0.2000
12592SOL    HW140408   7.510   1.728   0.233 -1.2098  0.3184 -1.1828
12592SOL    HW240409   7.596   1.633   0.152  0.3443 -0.3756  1.1842
12593SOL     OW40410   4.522   2.572   7.394  0.0745 -0.4481  0.2113
12593SOL    HW140411   4.516   2.503   7.328 -2.2784  0.9866 -1.2579
12593SOL    HW240412   4.444   2.560   7.448  0.7413 -0.1586  1.2676
12594SOL     OW40413   3.159  10.321   0.921  0.4979  0.4365 -0.0746
12594SOL    HW140414   3.236  10.330   0.976  0.4379 -0.5118  0.1715
12594SOL    HW240415   3.085  10.339   0.979  0.3708 -1.5362  0.4463
12595SOL     OW40416   8.526  10.182   9.935 -0.8593 -0.3497  0.0358
12595SOL    HW140417   8.577  10.243   9.882 -1.2427 -1.4347 -1.6603
12595SOL    HW240418   8.523  10.222  10.022  0.3379  1.1802 -0.5831
12596SOL     OW40419   5.658   7.988   5.335  0.1932 -0.0443 -0.2910
12596SOL    HW140420   5.700   8.074   5.328  0.3287 -0.0938 -0.0990
12596SOL    HW240421   5.598   7.997   5.408  1.5608 -0.6614  0.9521
12597SOL     OW40422   2.149   1.442   3.054 -0.1701  0.1931 -0.1931
12597SOL    HW140423   2.110   1.433   2.967  0.8787 -0.0575 -0.6597
12597SOL    HW240424   2.207   1.518   3.046  1.7007 -1.1712 -0.4426
12598SOL     OW40425   1.912   2.670  10.229 -0.0012  0.1931  0.7955
12598SOL    HW140426   1.956   2.685  10.146 -1.0800 -0.1194  0.1476
12598SOL    HW240427   1.865   2.588  10.217 -0.2219  0.1826  1.6855
12599SOL     OW40428   6.011   7.787   0.893  0.0932 -0.4547 -0.3612
12599SOL    HW140429   6.059   7.816   0.971 -0.6681  1.0436 -0.4087
12599SOL    HW240430   5.925   7.829   0.901 -0.9488 -2.4048 -0.6969
12600SOL     OW40431   4.186   1.927   8.183 -0.2863 -0.7085 -0.6487
12600SOL    HW140432   4.176   1.880   8.101  0.9036 -0.3898 -0.9978
12600SOL    HW240433   4.107   1.981   8.190 -1.1139 -1.8696 -0.8113
12601SOL     OW40434   1.531   9.548   6.565 -0.1434 -0.5235 -0.5403
12601SOL    HW140435   1.445   9.544   6.607 -0.0659 -0.3023 -0.3616
12601SOL    HW240436   1.577   9.472   6.599  0.2575  0.1740  0.5224
12602SOL     OW40437   8.344   4.796   9.235  0.2469 -0.0021  0.1278
12602SOL    HW140438   8.418   4.802   9.296  0.2777  1.4694 -0.0080
12602SOL    HW240439   8.345   4.879   9.188 -0.0575 -0.9371 -1.5861
12603SOL     OW40440   7.886  10.017   5.822  0.1014 -0.3038  0.0562
12603SOL    HW140441   7.897  10.065   5.904  1.7497 -0.3303 -0.1205
12603SOL    HW240442   7.792  10.019   5.806  0.0291  2.6224  0.2163
12604SOL     OW40443   5.137   4.488   9.097  0.2285  0.1051  0.4553
12604SOL    HW140444   5.204   4.420   9.098  0.4559  0.2781 -0.7789
12604SOL    HW240445   5.186   4.570   9.102 -0.1063  0.2162  3.2812
12605SOL     OW40446   7.169   0.336   9.098 -0.3384  0.1634 -0.1124
12605SOL    HW140447   7.088   0.387   9.098 -0.1344  0.5323 -1.7183
12605SOL    HW240448   7.160   0.276   9.024  0.0787 -1.1079  0.8311
12606SOL     OW40449   8.318   8.885   9.544 -0.1968  0.1521 -0.0492
12606SOL    HW140450   8.239   8.929   9.574  0.2518 -0.3384  2.0194
12606SOL    HW240451   8.381   8.898   9.615  0.1901 -3.1106  0.3715
12607SOL     OW40452   8.214   2.082   3.331  0.0637 -0.4483  0.2765
12607SOL    HW140453   8.125   2.047   3.316  0.1764 -1.2638  1.3984
12607SOL    HW240454   8.272   2.011   3.303  0.3457 -0.2538  0.3709
12608SOL     OW40455   8.032   8.476   4.081  0.4032  0.2838 -1.2137
12608SOL    HW140456   7.987   8.555   4.110  1.6233  1.2604 -1.8887
12608SOL    HW240457   8.085   8.504   4.006  1.2399 -1.0619 -1.1637
12609SOL     OW40458   5.858   1.949   7.390  0.0322 -0.1579  0.1390
12609SOL    HW140459   5.806   1.892   7.447  1.0967 -1.1063  0.2083
12609SOL    HW240460   5.848   1.913   7.303  1.4767 -1.0955  0.3194
12610SOL     OW40461   4.738   3.021   3.044  0.0724  0.1022  0.0868
12610SOL    HW140462   4.807   3.028   2.978  1.3532  1.1242  1.4578
12610SOL    HW240463   4.783   2.990   3.123 -1.2004 -0.0576  0.7890
12611SOL     OW40464   5.441   4.674   5.385  0.0227 -0.6067 -0.0350
12611SOL    HW140465   5.509   4.686   5.451 -1.8427 -0.1234  1.9021
12611SOL    HW240466   5.433   4.579   5.375  0.6561 -0.6717  0.0439
12612SOL     OW40467   7.761   3.857   0.233  0.1008 -0.6368  0.0757
12612SOL    HW140468   7.796   3.843   0.145 -0.7961  0.0854 -0.4156
12612SOL    HW240469   7.837   3.849   0.291  1.1326  1.0936 -0.9587
12613SOL     OW40470   9.285   5.001   2.174  0.7625 -0.3496  0.0472
12613SOL    HW140471   9.246   5.053   2.103  2.5149 -1.1160 -1.5463
12613SOL    HW240472   9.215   4.994   2.239 -0.0166  2.7641 -0.2921
12614SOL     OW40473   2.115   1.987   9.975 -0.2041  0.2055 -0.2638
12614SOL    HW140474   2.175   2.060   9.993  1.1042 -0.1301 -2.8457
12614SOL    HW240475   2.031   2.029   9.958 -0.6651  0.7299  2.6600
12615SOL     OW40476   6.203   3.273   3.982  0.2292  0.2760  0.3305
12615SOL    HW140477   6.136   3.293   4.047 -0.3089 -0.7379  0.1241
12615SOL    HW240478   6.202   3.177   3.976  0.9285  0.3084 -0.4760
12616SOL     OW40479   1.886   9.130   4.209  0.0674  0.6623  0.5076
12616SOL    HW140480   1.922   9.083   4.134 -0.3843  1.6727 -0.3525
12616SOL    HW240481   1.935   9.095   4.284  0.1426 -0.7497 -0.1735
12617SOL     OW40482   5.221   3.655   3.453 -0.7962 -0.0981 -0.1300
12617SOL    HW140483   5.225   3.560   3.461 -1.2109 -0.1756 -0.8206
12617SOL    HW240484   5.203   3.672   3.361 -1.7255  0.6168  0.1604
12618SOL     OW40485   9.549   2.138   9.303 -0.1647  0.1348  0.8101
12618SOL    HW140486   9.608   2.146   9.228 -2.4186  1.3500 -0.9630
12618SOL    HW240487   9.535   2.229   9.332 -0.9646 -0.1472  1.3535
12619SOL     OW40488   1.067   4.977   9.026  0.1615  0.1743  0.5728
12619SOL    HW140489   1.044   4.945   9.113  0.4815 -0.1720  0.5314
12619SOL    HW240490   1.081   5.071   9.038  0.0744  0.1507  0.8694
12620SOL     OW40491   2.014   0.530   8.716  0.2972  0.2367 -0.2995
12620SOL    HW140492   1.935   0.547   8.768  0.6734  1.5746 -0.1221
12620SOL    HW240493   2.039   0.440   8.739  0.3724  0.7340  1.7520
12621SOL     OW40494   6.308   2.015   3.678 -0.1891  0.0830  0.1010
12621SOL    HW140495   6.328   2.107   3.696 -1.3928  0.5102 -0.6178
12621SOL    HW240496   6.259   1.987   3.756 -0.6751  0.3451 -0.1049
12622SOL     OW40497   5.755   6.673   7.026 -0.3738  0.0503 -0.3335
12622SOL    HW140498   5.709   6.757   7.031  0.9322  0.8246 -0.7071
12622SOL    HW240499   5.811   6.672   7.104  1.6153  0.8139 -1.6434
12623SOL     OW40500   9.527   6.735   9.113  0.7587  0.3830 -0.2289
12623SOL    HW140501   9.497   6.685   9.037 -4.2288  0.8366  1.1248
12623SOL    HW240502   9.562   6.816   9.077 -1.0704  0.4042 -2.1402
12624SOL     OW40503   3.131   4.334   4.725 -0.4964  0.5584 -0.0846
12624SOL    HW140504   3.140   4.290   4.641 -1.6955 -0.4269  0.2835
12624SOL    HW240505   3.188   4.283   4.784  1.3248  1.9802 -0.5193
12625SOL     OW40506   8.866   3.973   7.788  0.0098  0.1210  0.3426
12625SOL    HW140507   8.819   4.012   7.714  0.2063 -2.7889 -1.4524
12625SOL    HW240508   8.958   3.972   7.761 -0.0009 -1.5970  0.2679
12626SOL     OW40509   9.423   5.005   7.343  0.4632 -0.0347 -0.5214
12626SOL    HW140510   9.418   4.991   7.248 -0.7335  1.3684 -0.7082
12626SOL    HW240511   9.485   5.077   7.353 -1.9732  2.2489 -0.6155
12627SOL     OW40512   5.890   3.729   2.815 -0.1789 -0.0383  0.1092
12627SOL    HW140513   5.856   3.798   2.871  0.6717 -0.4595  1.1613
12627SOL    HW240514   5.945   3.774   2.751 -2.3831  0.6274 -1.4583
12628SOL     OW40515   1.953   7.891   8.625  0.2915  0.0757  0.0983
12628SOL    HW140516   2.011   7.952   8.580 -2.5560  1.7888 -1.5463
12628SOL    HW240517   1.957   7.811   8.573  2.1899 -0.3826  0.8616
12629SOL     OW40518   0.087   1.516   4.052 -0.1676 -0.7027  0.7046
12629SOL    HW140519   0.044   1.447   4.102  0.1355 -0.8866  0.7155
12629SOL    HW240520   0.103   1.478   3.966 -0.5868 -0.4249  0.5001
12630SOL     OW40521   6.191   4.512   2.577 -0.2098 -0.2736 -0.6187
12630SOL    HW140522   6.257   4.542   2.515  0.3472 -1.5960 -0.7051
12630SOL    HW240523   6.212   4.557   2.658  0.3096 -0.0702 -0.8606
12631SOL     OW40524  10.038  10.227   7.581 -0.5020 -0.1271 -0.8671
12631SOL    HW140525   9.952  10.200   7.550 -0.9917  0.7608 -0.3281
12631SOL    HW240526  10.069  10.153   7.633 -1.6571  0.1581  0.2870
12632SOL     OW40527   9.124   0.077   0.897  0.2138 -0.0566  0.2546
12632SOL    HW140528   9.194   0.142   0.902  0.1753 -0.0401  0.6254
12632SOL    HW240529   9.073   0.103   0.821  1.7048 -1.1852 -1.1975
12633SOL     OW40530   7.766   8.069   6.325 -0.1024 -0.2123 -0.2541
12633SOL    HW140531   7.682   8.050   6.365 -0.1675 -0.9405 -0.6975
12633SOL    HW240532   7.792   8.154   6.360 -1.5690  0.5869 -0.9926
12634SOL     OW40533   1.483   6.922   8.002 -0.0429  0.0527 -0.1434
12634SOL    HW140534   1.407   6.964   8.042  0.2364  0.2080  0.2282
12634SOL    HW240535   1.556   6.983   8.019  0.9335 -1.7060  2.6863
12635SOL     OW40536   6.251   7.087   7.849 -0.3606 -0.1303 -0.3190
12635SOL    HW140537   6.165   7.123   7.868 -0.4363 -0.9110  0.8886
12635SOL    HW240538   6.234   6.998   7.818  0.0116 -0.4417  0.3388
12636SOL     OW40539   6.033   2.407   2.738  0.1699 -0.2088 -1.0553
12636SOL    HW140540   5.983   2.349   2.680 -0.3454 -0.7381 -0.1188
12636SOL    HW240541   6.086   2.348   2.791  1.0886  0.3044 -1.3951
12637SOL     OW40542   9.016   4.818   6.030 -0.6781 -0.1621  1.0721
12637SOL    HW140543   9.090   4.764   6.004  0.4095  1.7037  0.1132
12637SOL    HW240544   9.026   4.900   5.981 -3.2805  0.2464  1.0458
12638SOL     OW40545   9.530   0.666   3.002 -0.0651  0.4175  0.1293
12638SOL    HW140546   9.442   0.700   2.988 -0.7756 -0.8007  1.4137
12638SOL    HW240547   9.518   0.572   3.015  1.5051  0.1270 -0.3005
12639SOL     OW40548   8.277   6.590   2.916  0.0173 -0.4600  0.2191
12639SOL    HW140549   8.248   6.500   2.935  0.7540 -0.2750  2.5382
12639SOL    HW240550   8.197   6.642   2.921 -0.1792 -0.7825  0.5408
12640SOL     OW40551   3.736   9.481   1.369  0.1366  0.1911 -0.3046
12640SOL    HW140552   3.720   9.553   1.309 -1.4376 -0.2975 -0.5218
12640SOL    HW240553   3.662   9.484   1.430  0.4120 -0.8140  0.0986
12641SOL     OW40554   0.592   5.257   8.286  0.6238  0.4047  0.3413
12641SOL    HW140555   0.655   5.272   8.216  0.6128 -0.6875  0.0848
12641SOL    HW240556   0.644   5.221   8.358  0.4392  0.3935  0.4704
12642SOL     OW40557   1.585   0.740   8.820  0.0636 -0.5360  0.1586
12642SOL    HW140558   1.639   0.802   8.771  1.2017 -2.0224 -0.5582
12642SOL    HW240559   1.495   0.758   8.792  0.3916  0.6644 -0.1483
12643SOL     OW40560   7.332  10.089   5.536  1.0717  0.1137  0.2109
12643SOL    HW140561   7.305  10.110   5.626  1.1244 -0.7179  0.4360
12643SOL    HW240562   7.427  10.094   5.538  1.1584 -1.1283  0.5553
12644SOL     OW40563   0.293   2.373   9.486  0.0272  0.0751 -0.1744
12644SOL    HW140564   0.216   2.342   9.440  1.2383 -0.3193 -2.0394
12644SOL    HW240565   0.308   2.309   9.556  0.0129 -1.1801 -1.2860
12645SOL     OW40566   4.540   7.245   4.216 -0.6039 -0.3478  0.6596
12645SOL    HW140567   4.509   7.236   4.126 -0.2227 -1.2591  0.6055
12645SOL    HW240568   4.599   7.320   4.214 -1.2632  0.1740  0.3430
12646SOL     OW40569   3.774  10.015   7.360 -0.2128 -0.1743  0.2066
12646SOL    HW140570   3.776   9.922   7.337 -1.1666  0.1461 -1.2408
12646SOL    HW240571   3.812  10.018   7.448 -0.5216 -1.9772  0.4401
12647SOL     OW40572   2.286   7.706   0.580  0.0401  0.8628 -0.3317
12647SOL    HW140573   2.246   7.661   0.654  1.0341 -1.7190 -1.2521
12647SOL    HW240574   2.309   7.793   0.614  0.2285 -0.1412  2.3170
12648SOL     OW40575   7.330   6.755   5.127  0.3349  0.2896 -0.0831
12648SOL    HW140576   7.302   6.666   5.145 -0.1067 -0.0363 -2.1571
12648SOL    HW240577   7.398   6.773   5.193 -1.5934 -0.4512  2.2565
12649SOL     OW40578   4.677   6.381   0.119 -0.1441 -0.1673  0.7570
12649SOL    HW140579   4.593   6.351   0.153 -1.1693 -0.1110 -1.5502
12649SOL    HW240580   4.713   6.305   0.074  0.1998  0.2927  0.2414
12650SOL     OW40581   9.076   1.463   4.254 -0.1738  0.6131 -0.1423
12650SOL    HW140582   9.063   1.431   4.165 -0.6078  2.9359 -1.0013
12650SOL    HW240583   9.167   1.492   4.256 -0.3904  1.3110 -0.1055
12651SOL     OW40584   0.906   1.601   6.338 -0.7148  0.4460  1.0236
12651SOL    HW140585   0.838   1.652   6.295 -0.6651  2.3445  3.0265
12651SOL    HW240586   0.860   1.529   6.381 -0.9341 -0.5490 -0.7825
12652SOL     OW40587  10.231   6.904   6.511 -0.1536 -0.4065 -0.2342
12652SOL    HW140588  10.285   6.962   6.457 -0.4407  0.6114  0.5290
12652SOL    HW240589  10.233   6.820   6.466  0.5196  0.1190 -1.2221
12653SOL     OW40590   5.802   3.117   4.680  0.3126 -0.5031  0.5340
12653SOL    HW140591   5.733   3.156   4.734 -0.7606 -1.4554 -0.1170
12653SOL    HW240592   5.777   3.025   4.670  0.1988 -0.2694 -1.9695
12654SOL     OW40593   3.850   6.778   2.319 -0.1507 -0.0194 -0.5962
12654SOL    HW140594   3.796   6.796   2.396 -1.7123 -1.6426 -1.2498
12654SOL    HW240595   3.933   6.747   2.355 -0.6730 -0.2669  0.4393
12655SOL     OW40596   5.474   3.773   2.070  0.0480 -0.5641  0.0690
12655SOL    HW140597   5.537   3.711   2.035  0.7262  0.2229 -0.1309
12655SOL    HW240598   5.422   3.801   1.994  1.4088  1.0142 -0.3512
12656SOL     OW40599   2.541   8.145   4.806 -0.1600  0.4534  0.1114
12656SOL    HW140600   2.530   8.143   4.901  1.8096  0.8268  0.3866
12656SOL    HW240601   2.626   8.186   4.793 -0.8962  1.4639 -1.8757
12657SOL     OW40602   1.901   4.847   5.817 -0.2841 -0.2700  0.5007
12657SOL    HW140603   1.869   4.766   5.856 -0.2708  0.3749  1.9012
12657SOL    HW240604   1.826   4.882   5.769  0.1169 -1.8125 -1.3746
12658SOL     OW40605   7.230   1.069   4.925 -0.2870  0.8893  0.4487
12658SOL    HW140606   7.222   0.986   4.971  1.5254  0.2102 -0.3492
12658SOL    HW240607   7.143   1.086   4.889 -0.4309 -1.2891 -0.3851
12659SOL     OW40608   2.156   8.196   6.079  0.0043  0.2911  0.1080
12659SOL    HW140609   2.209   8.244   6.143 -0.9991  0.2828  0.9594
12659SOL    HW240610   2.218   8.175   6.008  0.5419  2.5859 -0.1700
12660SOL     OW40611   6.143   8.340   4.795 -0.4407 -0.5394 -0.2487
12660SOL    HW140612   6.201   8.312   4.867 -1.1668 -0.6272  0.3133
12660SOL    HW240613   6.115   8.428   4.821 -0.7328 -0.5873 -0.4046
12661SOL     OW40614   4.415   4.010   9.759  0.0739  0.7045 -0.2160
12661SOL    HW140615   4.362   3.939   9.722  0.7486  1.0153 -1.8612
12661SOL    HW240616   4.458   4.050   9.683  1.1035  1.7354  0.8720
12662SOL     OW40617   6.733   3.121   6.747 -0.2993 -0.1505 -0.0779
12662SOL    HW140618   6.748   3.027   6.756 -0.1401 -0.0215  1.3334
12662SOL    HW240619   6.820   3.158   6.732 -0.0303 -0.0368  1.5830
12663SOL     OW40620   5.049   0.770   2.411  0.4376  0.0500 -0.1671
12663SOL    HW140621   4.956   0.793   2.416  0.5001  0.2321  0.1976
12663SOL    HW240622   5.053   0.703   2.342  0.4046  1.8842 -2.0231
12664SOL     OW40623   4.701   3.456   7.927 -0.2370  0.5720  0.1737
12664SOL    HW140624   4.773   3.424   7.981  0.8437  1.4269 -0.6996
12664SOL    HW240625   4.705   3.403   7.848  0.0400  1.2286 -0.2627
12665SOL     OW40626   5.964   6.274   1.847  0.1014 -0.2513 -0.1238
12665SOL    HW140627   5.924   6.292   1.932 -1.3246  1.0342 -1.0121
12665SOL    HW240628   5.944   6.182   1.830  0.5390 -0.5671  0.9734
12666SOL     OW40629   2.467   3.708   8.630  0.1146 -0.5971  0.0289
12666SOL    HW140630   2.463   3.667   8.716 -1.8552  1.0373  0.7953
12666SOL    HW240631   2.559   3.734   8.620  0.3728 -0.7857  1.6458
12667SOL     OW40632   4.927   4.674   3.171  0.6981 -0.5367  0.1922
12667SOL    HW140633   4.909   4.670   3.265  1.6226 -2.8193  0.3331
12667SOL    HW240634   4.875   4.602   3.134  0.1566  0.4885 -1.0918
12668SOL     OW40635   4.337   4.577   9.785 -0.2017  0.2122  0.0349
12668SOL    HW140636   4.298   4.662   9.765  1.8343  1.3265  0.5581
12668SOL    HW240637   4.278   4.538   9.849 -0.5278  1.7999  0.7385
12669SOL     OW40638   2.536   2.838   0.970 -0.0885 -0.3633 -0.6818
12669SOL    HW140639   2.626   2.852   0.999 -0.9499 -0.7989  2.5078
12669SOL    HW240640   2.489   2.915   1.002 -1.2371 -1.1777 -0.3586
12670SOL     OW40641   8.019   4.026   7.283 -0.5465 -0.2954  0.0227
12670SOL    HW140642   8.011   4.068   7.197 -0.0699 -1.0360 -0.3910
12670SOL    HW240643   8.009   4.097   7.346  0.2281  0.4304 -0.6657
12671SOL     OW40644   5.063   9.614   9.812  0.3641  0.1019  0.4700
12671SOL    HW140645   5.112   9.675   9.756  1.2866 -0.5234  0.5754
12671SOL    HW240646   5.023   9.670   9.879 -0.4893  0.8278 -0.6057
12672SOL     OW40647   6.443   2.649   9.875  0.3015  0.1076  0.5585
12672SOL    HW140648   6.376   2.686   9.817  1.0741  1.2799  0.3866
12672SOL    HW240649   6.500   2.599   9.817  0.2521  0.0784  0.5345
12673SOL     OW40650   7.628   7.334   6.812  0.0532 -0.4742 -0.2174
12673SOL    HW140651   7.563   7.270   6.785 -0.2031 -1.0578  1.6825
12673SOL    HW240652   7.594   7.418   6.779 -1.5791 -0.7898  0.5823
12674SOL     OW40653   9.096   7.321  10.054 -0.5040 -0.2326  0.3488
12674SOL    HW140654   9.068   7.338  10.144  0.7864 -0.5339  0.8174
12674SOL    HW240655   9.086   7.226  10.043 -1.3319 -0.1128 -0.0825
12675SOL     OW40656   2.752   6.617   0.930 -0.3989 -0.1170  0.3227
12675SOL    HW140657   2.713   6.564   1.000  0.1598 -0.7429  0.1648
12675SOL    HW240658   2.835   6.575   0.911 -0.1753  0.5273 -0.1637
12676SOL     OW40659   0.883   9.207   8.384  0.1779  0.0783  0.1499
12676SOL    HW140660   0.805   9.225   8.331 -0.6003  0.2000  1.3093
12676SOL    HW240661   0.870   9.118   8.416  0.6399  0.0127  0.1613
12677SOL     OW40662   4.133   1.875   8.755  0.3327  0.0968 -0.3646
12677SOL    HW140663   4.160   1.808   8.817  1.6405  0.9212 -0.0093
12677SOL    HW240664   4.103   1.825   8.678 -2.5677 -0.9801  1.3158
12678SOL     OW40665   3.382   2.310   7.287  0.4614 -0.0707 -0.4536
12678SOL    HW140666   3.423   2.258   7.218  0.1105  0.9378 -1.4459
12678SOL    HW240667   3.289   2.286   7.284  0.2567  0.7546 -1.0721
12679SOL     OW40668   2.956   9.250   9.692 -0.1828  0.4547 -0.1316
12679SOL    HW140669   2.914   9.243   9.777 -1.2583 -1.2560 -0.7455
12679SOL    HW240670   2.905   9.316   9.645  0.4551  1.4502  0.5568
12680SOL     OW40671   5.141   2.544   8.318 -0.0834 -0.1314 -0.3784
12680SOL    HW140672   5.176   2.459   8.346 -0.0542  0.7809  2.7656
12680SOL    HW240673   5.188   2.563   8.237  2.3007 -1.6962  0.5009
12681SOL     OW40674   2.132   8.254   1.099  0.4855  0.2449 -0.1837
12681SOL    HW140675   2.180   8.175   1.075  0.8624 -0.1100  1.5902
12681SOL    HW240676   2.040   8.232   1.084  0.4217 -1.2134  1.8823
12682SOL     OW40677   2.746  10.348   2.844 -0.2231  0.1528 -0.0583
12682SOL    HW140678   2.749  10.438   2.875 -1.8661  0.3161 -0.2704
12682SOL    HW240679   2.670  10.345   2.786 -0.8248 -1.6068  0.7510
12683SOL     OW40680   1.591   6.793   8.475  0.3495  0.4712 -0.6345
12683SOL    HW140681   1.605   6.702   8.501 -0.4118  1.1231  2.5121
12683SOL    HW240682   1.526   6.789   8.405 -1.2471 -1.3591  0.8378
12684SOL     OW40683   3.808   0.524   9.393  0.2094 -0.4596 -0.5116
12684SOL    HW140684   3.864   0.453   9.360  1.9069 -0.4400  2.0541
12684SOL    HW240685   3.760   0.484   9.466 -2.1794 -0.0676 -1.7558
12685SOL     OW40686   4.620   4.590   0.901  0.1221 -0.6183 -0.2104
12685SOL    HW140687   4.576   4.529   0.960  1.7149 -0.6526  0.9887
12685SOL    HW240688   4.673   4.534   0.844  0.3659 -0.4435 -0.1556
12686SOL     OW40689   9.347   0.156   0.484  0.7841 -0.1833  0.2152
12686SOL    HW140690   9.383   0.176   0.570 -1.1028 -0.9624  1.2649
12686SOL    HW240691   9.417   0.109   0.439  0.9544 -2.2491  2.3882
12687SOL     OW40692   9.486   6.203   8.663  0.1368  0.0786 -0.2260
12687SOL    HW140693   9.452   6.204   8.573 -2.1819 -0.1164  0.5851
12687SOL    HW240694   9.468   6.292   8.696  0.4649 -0.0206  0.2215
12688SOL     OW40695   7.835   6.443   3.360 -0.1002  0.3140 -0.3543
12688SOL    HW140696   7.841   6.398   3.276 -0.5088 -0.0943 -0.1681
12688SOL    HW240697   7.895   6.518   3.352 -0.9910  0.9336 -1.4234
12689SOL     OW40698   1.966   3.292   4.920 -0.1523  0.2207 -0.5129
12689SOL    HW140699   1.930   3.220   4.973  2.0762  0.3157  1.3000
12689SOL    HW240700   1.979   3.363   4.982  0.4722  1.1472 -1.6679
12690SOL     OW40701   6.969   2.758   1.085 -0.1140 -0.2932  0.1157
12690SOL    HW140702   6.899   2.705   1.047 -0.6746  1.0003 -0.7439
12690SOL    HW240703   7.006   2.805   1.010  0.2493  0.6407  0.8619
12691SOL     OW40704   0.258   6.273   2.183 -0.5600  0.2722  0.2918
12691SOL    HW140705   0.317   6.348   2.180 -2.2343  1.8465  2.6729
12691SOL    HW240706   0.300   6.207   2.129  2.1154  2.1424 -0.1139
12692SOL     OW40707   4.237   1.294   6.365  0.0351 -0.8279 -0.0840
12692SOL    HW140708   4.331   1.276   6.376  0.7551  1.6231 -1.4307
12692SOL    HW240709   4.218   1.359   6.433  0.0671  0.7997 -1.5728
12693SOL     OW40710   2.993   9.318   2.622 -0.7117 -0.1895  0.1280
12693SOL    HW140711   3.043   9.303   2.702 -1.0606 -1.0513  0.1916
12693SOL    HW240712   3.052   9.290   2.552  1.2519  4.2918 -0.3386
12694SOL     OW40713   7.548   1.724   2.826  0.0342  0.4267 -0.3001
12694SOL    HW140714   7.624   1.667   2.807 -1.2126 -1.2461 -0.5034
12694SOL    HW240715   7.527   1.706   2.918 -1.3278 -0.6848 -0.7955
12695SOL     OW40716   8.700   5.760   7.626  0.2079 -0.3893 -0.0402
12695SOL    HW140717   8.768   5.777   7.692  0.7463  0.1708 -0.7325
12695SOL    HW240718   8.636   5.705   7.672  0.2574  0.5131  1.1430
12696SOL     OW40719   2.751   1.456   2.607 -0.1096  0.4936  0.2580
12696SOL    HW140720   2.790   1.513   2.541  0.8687 -0.8396 -0.3635
12696SOL    HW240721   2.698   1.393   2.557  1.5476 -1.2528  0.5596
12697SOL     OW40722   5.194   1.218   2.224 -0.3918 -0.1856 -0.1876
12697SOL    HW140723   5.265   1.266   2.267 -1.5077  0.4801  0.9852
12697SOL    HW240724   5.165   1.155   2.290 -0.5166 -0.8514 -0.8669
12698SOL     OW40725   2.978   6.768   4.788  0.6949  0.4831  0.0920
12698SOL    HW140726   2.963   6.836   4.722 -1.3136 -0.6001 -0.6335
12698SOL    HW240727   2.913   6.786   4.856  0.5683 -0.3300  0.1889
12699SOL     OW40728  10.060   9.025   9.895 -0.0245  0.3332  0.0435
12699SOL    HW140729  10.076   9.110   9.853 -2.0859  1.1344  0.7063
12699SOL    HW240730  10.082   8.960   9.828  1.5190  1.3729 -0.5103
12700SOL     OW40731   5.946   9.148   3.921  0.0129 -0.3012  0.1389
12700SOL    HW140732   6.030   9.194   3.919 -0.2544  0.1660 -0.3683
12700SOL    HW240733   5.970   9.057   3.942  0.6414 -0.1700  0.0267
12701SOL     OW40734   0.674   7.145   7.158  0.5037  0.1552  0.2786
12701SOL    HW140735   0.667   7.125   7.251 -0.6659 -0.4427  0.0774
12701SOL    HW240736   0.630   7.072   7.114  1.9587 -0.1254 -0.8129
12702SOL     OW40737   6.634   7.741   9.055 -0.3272  0.3683  0.0613
12702SOL    HW140738   6.578   7.724   9.131  1.3173  1.5530  1.6251
12702SOL    HW240739   6.592   7.693   8.983 -3.4773  1.4387  1.0313
12703SOL     OW40740  10.143   0.279   7.543 -0.3716 -0.2399  0.3048
12703SOL    HW140741  10.069   0.233   7.584 -1.9950  0.6617 -1.4438
12703SOL    HW240742  10.218   0.221   7.557 -1.6350 -1.7426  1.1821
12704SOL     OW40743   0.794   7.060   9.229  0.3488 -0.1645 -0.2440
12704SOL    HW140744   0.782   7.145   9.271  1.1174 -1.0503  1.9375
12704SOL    HW240745   0.707   7.036   9.197 -0.6260  0.0280  2.0600
12705SOL     OW40746   3.001   4.968   0.781  0.1081  0.7380 -0.0729
12705SOL    HW140747   2.928   4.910   0.759  0.5178 -0.6643  1.9745
12705SOL    HW240748   3.070   4.942   0.719 -0.4811  0.7411 -0.7487
12706SOL     OW40749   1.686   4.549   6.340  0.3041  0.9450  0.1115
12706SOL    HW140750   1.767   4.597   6.352  1.4520 -0.5775 -1.1189
12706SOL    HW240751   1.670   4.507   6.425  1.4890  0.2780  0.0226
12707SOL     OW40752   9.074   4.446   2.778 -0.4617  0.2179  0.1955
12707SOL    HW140753   9.141   4.413   2.838  0.7678  1.5591 -0.3959
12707SOL    HW240754   9.045   4.528   2.818 -0.5083  0.5136 -0.4444
12708SOL     OW40755   0.614   2.940   9.216 -1.2896 -0.3333  0.1272
12708SOL    HW140756   0.700   2.942   9.173 -0.3037  2.5807  1.8979
12708SOL    HW240757   0.624   2.876   9.286  0.3851  1.5638  1.7714
12709SOL     OW40758   1.574   6.476   9.692  0.3294  0.6188  0.1447
12709SOL    HW140759   1.502   6.528   9.657  0.5519 -0.5309 -2.1705
12709SOL    HW240760   1.561   6.478   9.787 -3.2305 -0.1770 -0.1883
12710SOL     OW40761   2.149   2.844   7.021 -0.1171  0.2771 -0.2272
12710SOL    HW140762   2.122   2.853   6.929  1.3768 -1.0722 -0.8551
12710SOL    HW240763   2.086   2.783   7.058 -0.4426  0.4524 -0.4819
12711SOL     OW40764   1.974   7.188   3.917  0.0642 -0.0494  0.5868
12711SOL    HW140765   1.896   7.154   3.874  0.0139  0.3488  0.3567
12711SOL    HW240766   1.983   7.134   3.996  0.4945 -1.1889 -0.2072
12712SOL     OW40767   0.221   7.235   0.361  0.2940  0.0415  0.5249
12712SOL    HW140768   0.126   7.242   0.370  0.0492 -0.3602 -1.4025
12712SOL    HW240769   0.252   7.219   0.451 -1.1239  3.1770  1.7238
12713SOL     OW40770   2.492   6.996   3.978  0.2485 -0.0578  0.1107
12713SOL    HW140771   2.533   7.051   4.044  1.5722 -0.1861 -0.5597
12713SOL    HW240772   2.408   7.038   3.960  0.5222  0.8103  0.7816
12714SOL     OW40773   9.990   2.938  10.301 -0.4662  0.0374  0.2536
12714SOL    HW140774  10.081   2.912  10.286  0.4085  2.4639  0.9459
12714SOL    HW240775   9.958   2.967  10.216 -0.4319 -0.2943  0.1249
12715SOL     OW40776   8.496   3.657   5.006  0.5972  0.6983 -0.2092
12715SOL    HW140777   8.422   3.616   4.961 -0.0573  2.6991 -1.0815
12715SOL    HW240778   8.466   3.665   5.097  0.2148  0.4259 -0.3056
12716SOL     OW40779   5.555   4.101  10.338 -0.5181 -0.2424  0.1905
12716SOL    HW140780   5.532   4.048  10.414  1.5525 -1.5446 -0.0120
12716SOL    HW240781   5.603   4.042  10.280  1.1498  1.6244 -0.4567
12717SOL     OW40782   9.714  10.067   4.433  0.8584  0.3131 -0.7723
12717SOL    HW140783   9.683  10.000   4.372  1.1697  0.1770 -0.7816
12717SOL    HW240784   9.753  10.018   4.505 -1.1772  0.3958  0.4836
12718SOL     OW40785   2.247   1.289   8.633 -0.2489 -0.4484 -0.4909
12718SOL    HW140786   2.212   1.212   8.588  1.4956 -0.5062 -1.8394
12718SOL    HW240787   2.269   1.350   8.563  1.4942 -0.0686  0.3390
12719SOL     OW40788   0.697  10.232   8.803  0.2756 -0.5368  0.0213
12719SOL    HW140789   0.613  10.277   8.791  0.1360 -0.4406  1.2219
12719SOL    HW240790   0.717  10.194   8.717  0.7759  2.4481 -1.3112
12720SOL     OW40791   9.039   3.278   9.395  0.5142 -0.0093 -0.0416
12720SOL    HW140792   9.004   3.271   9.484 -0.0271 -1.4854 -0.3491
12720SOL    HW240793   9.100   3.205   9.387  2.1848  1.3316 -0.2106
12721SOL     OW40794   5.877   2.801   1.958  0.6631  0.1819  0.9606
12721SOL    HW140795   5.842   2.712   1.952 -1.2651  0.9751 -0.4627
12721SOL    HW240796   5.911   2.807   2.047  0.6268 -1.8952  1.1603
12722SOL     OW40797   2.929   2.475   7.606 -0.0894 -0.4904 -0.0372
12722SOL    HW140798   2.899   2.398   7.558 -0.7425 -0.5753  0.4892
12722SOL    HW240799   2.868   2.544   7.580  0.4822 -0.1462 -0.4926
12723SOL     OW40800   4.289   1.157   0.590 -0.3630  0.1948  1.1447
12723SOL    HW140801   4.285   1.225   0.523  2.2797  1.0574  1.7463
12723SOL    HW240802   4.198   1.144   0.617 -1.1061  2.4077 -0.0625
12724SOL     OW40803   4.212   2.569  10.006  0.3349  0.2700 -0.4213
12724SOL    HW140804   4.241   2.549  10.095  1.3386  1.0627 -0.5498
12724SOL    HW240805   4.160   2.648  10.015  0.4275  0.3445 -0.5324
12725SOL     OW40806   8.134   8.525   6.848  0.4853 -0.4028 -0.2759
12725SOL    HW140807   8.078   8.575   6.908 -0.6903 -1.1065 -0.7483
12725SOL    HW240808   8.186   8.591   6.803 -0.1590  0.2932 -0.0188
12726SOL     OW40809   1.801   6.161   2.436 -0.0426  0.0691  0.4648
12726SOL    HW140810   1.892   6.133   2.431  0.0577  0.3288  0.8024
12726SOL    HW240811   1.805   6.252   2.463 -0.4214 -0.2040  1.5138
12727SOL     OW40812   8.657   2.265   8.203 -0.0995 -0.8159  0.0747
12727SOL    HW140813   8.706   2.309   8.133  0.7942 -2.5869 -0.4909
12727SOL    HW240814   8.675   2.172   8.189  0.0377 -1.2395  2.6260
12728SOL     OW40815   9.633   9.761   8.416  0.6334 -0.3484  0.3510
12728SOL    HW140816   9.560   9.769   8.355  2.7581  1.3132 -2.2347
12728SOL    HW240817   9.601   9.799   8.498 -1.9070 -1.3475 -0.1078
12729SOL     OW40818   5.103   8.252   9.732 -0.2152 -0.1282  0.6074
12729SOL    HW140819   5.115   8.300   9.814 -0.9965  0.3511  0.4540
12729SOL    HW240820   5.176   8.190   9.729 -0.2022 -0.1750  1.6797
12730SOL     OW40821  10.001   9.219   8.741 -0.0509 -0.2854 -0.4765
12730SOL    HW140822  10.077   9.174   8.780  0.5289 -1.3003 -2.6047
12730SOL    HW240823   9.932   9.153   8.743  0.3828 -0.8378 -2.3161
12731SOL     OW40824   6.631   1.400   7.242 -0.3297  0.1586 -0.8474
12731SOL    HW140825   6.631   1.304   7.241 -0.5441  0.1262  0.4964
12731SOL    HW240826   6.570   1.423   7.312  0.9807  1.2466 -0.0264
12732SOL     OW40827   5.780   9.653   5.982 -0.1988  1.0667  0.0751
12732SOL    HW140828   5.689   9.659   5.954 -0.8066 -0.4524  1.5749
12732SOL    HW240829   5.786   9.711   6.058 -0.4448 -0.2473  1.1367
12733SOL     OW40830   6.416   0.017   8.184  0.5889 -0.5718 -0.2471
12733SOL    HW140831   6.461   0.018   8.099 -1.0990 -1.0409 -1.1806
12733SOL    HW240832   6.345   0.080   8.175  0.3631 -0.6540  0.8117
12734SOL     OW40833   0.541   4.242   6.780  0.2565  0.0645 -0.2531
12734SOL    HW140834   0.505   4.313   6.833  0.1926 -0.6203  0.6422
12734SOL    HW240835   0.485   4.239   6.702 -0.2309  0.4638  0.0790
12735SOL     OW40836   3.159   4.117  10.099 -0.3119 -0.3235  0.1756
12735SOL    HW140837   3.221   4.181  10.135  0.7261  0.0590 -2.0852
12735SOL    HW240838   3.076   4.136  10.142  0.9213 -0.3615  2.7801
12736SOL     OW40839   3.908   8.660   1.943  0.4280 -0.1412  0.1240
12736SOL    HW140840   3.927   8.572   1.911 -0.0580 -0.4004  0.5379
12736SOL    HW240841   3.821   8.653   1.982 -0.5680  0.9939 -1.7014
12737SOL     OW40842   1.129   1.572  10.246  0.1421  0.0851  0.4066
12737SOL    HW140843   1.153   1.599  10.158 -1.7625  1.1932  0.1683
12737SOL    HW240844   1.172   1.635  10.304 -0.0670  0.4696  0.1493
12738SOL     OW40845   1.293   5.762   1.494  0.0165  0.2982 -0.2861
12738SOL    HW140846   1.232   5.835   1.499  0.6760  0.7904  3.1961
12738SOL    HW240847   1.261   5.700   1.559  1.3035 -1.0449 -0.8832
12739SOL     OW40848   4.359   6.112   5.627 -0.2764 -0.8475  0.4419
12739SOL    HW140849   4.310   6.109   5.709  2.8493  0.4819  2.5578
12739SOL    HW240850   4.402   6.026   5.623  2.1893  0.2033  2.1080
12740SOL     OW40851   2.312   6.505   1.468 -0.3646  0.6656 -0.3115
12740SOL    HW140852   2.311   6.473   1.558  1.3913  0.8822 -0.1788
12740SOL    HW240853   2.295   6.428   1.414 -2.5859  0.7275  0.1858
12741SOL     OW40854   7.477   6.412   4.923 -0.1855 -0.4606  0.0149
12741SOL    HW140855   7.437   6.330   4.894  1.0616 -0.7168 -1.0643
12741SOL    HW240856   7.571   6.400   4.908  0.0292  1.1255 -0.0904
12742SOL     OW40857   0.495   2.155   5.303 -0.0725 -0.0631 -0.3920
12742SOL    HW140858   0.451   2.095   5.243 -0.0706  0.3913 -0.8541
12742SOL    HW240859   0.555   2.099   5.353 -0.4190 -0.5210 -0.4801
12743SOL     OW40860   6.757   7.434   1.857  0.3655  0.0417  0.1431
12743SOL    HW140861   6.785   7.525   1.855 -1.4891  0.7331  1.9181
12743SOL    HW240862   6.711   7.421   1.775  0.1350  0.9021  0.1243
12744SOL     OW40863   1.037   3.775   3.373  0.3042  0.0035  0.2565
12744SOL    HW140864   0.965   3.816   3.325 -0.3603 -2.0707 -0.6340
12744SOL    HW240865   1.109   3.770   3.310  0.6660  0.4769  0.6142
12745SOL     OW40866   4.504   3.538   6.949 -0.0913 -0.2309  0.2303
12745SOL    HW140867   4.470   3.492   6.873 -0.9611 -0.8941  0.9868
12745SOL    HW240868   4.435   3.528   7.015 -0.8356  3.0654  0.1316
12746SOL     OW40869   6.161   3.973   0.193 -0.3453  0.6147 -1.2733
12746SOL    HW140870   6.254   3.955   0.188 -0.3793 -0.4678  0.8724
12746SOL    HW240871   6.150   4.058   0.150  1.9292  1.6445  0.0302
12747SOL     OW40872   9.248   9.612   9.744 -0.4030 -0.1017 -0.5831
12747SOL    HW140873   9.310   9.572   9.683 -0.9866 -1.3227 -0.3985
12747SOL    HW240874   9.272   9.705   9.744  1.6576 -0.5717 -0.2367
12748SOL     OW40875   7.189  10.106   9.062  0.2422  0.2605  0.2475
12748SOL    HW140876   7.166  10.037   9.124 -0.8910 -0.3439 -0.8075
12748SOL    HW240877   7.146  10.185   9.097 -1.7998 -0.4128 -0.5638
12749SOL     OW40878   6.384   5.074   4.642 -0.0325  0.7710  0.2050
12749SOL    HW140879   6.371   5.098   4.550  1.5220  2.5244  0.3857
12749SOL    HW240880   6.433   5.148   4.679 -1.0291  0.3157  2.5714
12750SOL     OW40881   9.549   9.599   1.845  0.1394  0.2152 -0.1337
12750SOL    HW140882   9.602   9.546   1.786  1.1587  0.4810  0.5189
12750SOL    HW240883   9.487   9.644   1.787 -0.3525 -1.1903 -0.7606
12751SOL     OW40884   4.781   7.123   2.029  0.4175  0.1438 -0.3178
12751SOL    HW140885   4.824   7.044   2.062  0.7646  0.1850 -0.6633
12751SOL    HW240886   4.853   7.183   2.011  0.1614  0.4874 -0.1909
12752SOL     OW40887   2.367   7.457   1.407  0.1852 -0.3307 -0.5880
12752SOL    HW140888   2.289   7.402   1.404 -0.7444  0.9391 -0.5318
12752SOL    HW240889   2.343   7.536   1.359  0.9214  0.7138  0.6834
12753SOL     OW40890   5.657   1.678   4.044  0.0111  0.0857 -0.5206
12753SOL    HW140891   5.711   1.628   3.984  0.6983  0.2855 -0.0907
12753SOL    HW240892   5.720   1.732   4.093 -0.6774  1.1378 -0.7668
12754SOL     OW40893   6.008   9.286   5.675  0.4461 -0.0221  0.2132
12754SOL    HW140894   5.972   9.230   5.744 -0.1306 -0.4799 -0.4392
12754SOL    HW240895   5.976   9.246   5.594 -0.2354  1.4295 -0.2672
12755SOL     OW40896   1.772   3.620   4.071 -0.6831 -0.1110  0.3219
12755SOL    HW140897   1.792   3.697   4.124 -0.4543 -0.8341  1.3274
12755SOL    HW240898   1.841   3.618   4.004  0.0453 -0.1315  1.0616
12756SOL     OW40899   9.220   3.347   9.694  0.2765 -0.1598 -0.1230
12756SOL    HW140900   9.177   3.265   9.718 -1.7778  0.9195  0.2064
12756SOL    HW240901   9.302   3.347   9.744 -0.1339 -1.5723  0.6055
12757SOL     OW40902   9.117   8.016   5.574  0.2868 -0.0448 -0.6969
12757SOL    HW140903   9.113   7.979   5.486 -0.8763 -0.8057 -0.3399
12757SOL    HW240904   9.027   8.040   5.595  0.2663 -1.3716  0.9066
12758SOL     OW40905   8.590   7.279  10.038  0.0579 -0.3591 -0.0050
12758SOL    HW140906   8.602   7.372  10.015  0.9231 -0.6726 -0.9027
12758SOL    HW240907   8.528   7.246   9.973  1.0925 -0.8101 -0.7922
12759SOL     OW40908   4.262   8.269   1.342 -0.0905 -0.1652  0.2875
12759SOL    HW140909   4.354   8.273   1.316 -0.4000  1.3525 -0.6813
12759SOL    HW240910   4.235   8.180   1.319  2.2486 -2.4491  4.8632
12760SOL     OW40911   9.052   9.467   6.420 -0.6087  0.0971 -0.3492
12760SOL    HW140912   9.051   9.562   6.408  0.0189  0.2614  0.7547
12760SOL    HW240913   8.999   9.451   6.497  2.3640 -0.0137  1.8561
12761SOL     OW40914   4.560   8.351   8.217  0.7808  0.5242  0.0942
12761SOL    HW140915   4.482   8.401   8.195  0.3389 -0.2168 -0.0550
12761SOL    HW240916   4.549   8.267   8.172  1.6526  0.4038  0.0806
12762SOL     OW40917   7.210   0.354   0.454 -0.1342 -0.1610 -0.6699
12762SOL    HW140918   7.263   0.364   0.532 -1.3657  0.3268  0.1251
12762SOL    HW240919   7.266   0.386   0.383  0.5446  0.5505  0.1639
12763SOL     OW40920   0.247   3.710   9.848 -0.2383 -0.3560 -0.3534
12763SOL    HW140921   0.206   3.644   9.793  0.0146 -1.3784  0.6382
12763SOL    HW240922   0.332   3.728   9.807 -0.2538 -0.7546 -0.5607
12764SOL     OW40923   1.061   9.854   3.417  0.1510 -0.3652  0.1281
12764SOL    HW140924   0.999   9.837   3.346  0.7690  0.2801 -0.5873
12764SOL    HW240925   1.015   9.828   3.496 -1.3071  0.8062 -0.2974
12765SOL     OW40926   0.167   9.463   2.823 -0.0368 -0.0960  0.0827
12765SOL    HW140927   0.085   9.481   2.777  0.7795  0.6965 -1.1156
12765SOL    HW240928   0.207   9.391   2.774  1.0947  1.1076 -0.8253
12766SOL     OW40929   8.163   2.966   4.924  0.0709 -0.5546  0.9388
12766SOL    HW140930   8.080   3.013   4.917  1.2400  1.4484 -0.2936
12766SOL    HW240931   8.162   2.904   4.852  0.0948  0.2742  0.2088
12767SOL     OW40932   2.393   4.671   9.200  0.0678  0.1246 -0.0849
12767SOL    HW140933   2.392   4.726   9.278 -1.5481  0.5336 -0.3769
12767SOL    HW240934   2.460   4.710   9.144  0.5823  0.3796  0.6944
12768SOL     OW40935   4.617   4.652   8.713 -0.7266  0.0334 -0.2893
12768SOL    HW140936   4.572   4.568   8.709  3.2950 -2.4399  0.6239
12768SOL    HW240937   4.622   4.682   8.622 -0.1828 -1.9964 -0.9703
12769SOL     OW40938   8.625   9.080   1.253  0.1737  0.1884 -0.0215
12769SOL    HW140939   8.699   9.032   1.291 -0.1749  0.2251  0.7241
12769SOL    HW240940   8.638   9.171   1.281 -1.0574 -0.0903  1.6017
12770SOL     OW40941   1.196   6.249   3.801  0.0819  0.8822  0.0454
12770SOL    HW140942   1.190   6.155   3.819 -0.2386  0.9210  0.1459
12770SOL    HW240943   1.276   6.258   3.750 -0.1943  0.4721 -0.4741
12771SOL     OW40944   0.460   2.303   6.331  0.1282 -0.3332  0.1174
12771SOL    HW140945   0.442   2.292   6.238  2.6412  1.4459 -0.6825
12771SOL    HW240946   0.400   2.373   6.359  2.5036  2.6072 -1.4814
12772SOL     OW40947   9.229   6.086   4.086  0.2221 -0.4565  0.3099
12772SOL    HW140948   9.176   6.098   4.165 -0.1063 -1.3221  0.2341
12772SOL    HW240949   9.315   6.059   4.120 -0.5161 -2.9723  0.3595
12773SOL     OW40950   2.678   0.665   1.660 -0.5526  0.3940  0.6124
12773SOL    HW140951   2.613   0.652   1.729  0.2894  0.2239  1.4015
12773SOL    HW240952   2.695   0.760   1.661 -1.4952  0.5919 -0.2789
12774SOL     OW40953   9.266   7.337   7.777  0.4830 -0.0214 -0.2483
12774SOL    HW140954   9.293   7.245   7.778 -0.9226 -0.4613  1.0837
12774SOL    HW240955   9.187   7.338   7.722  0.6556  0.4517 -0.4946
12775SOL     OW40956   8.794   2.169   0.545  0.2367 -0.7653  0.4308
12775SOL    HW140957   8.843   2.220   0.610  1.0614 -2.6213  1.3443
12775SOL    HW240958   8.861   2.127   0.492 -0.4338  0.1782 -1.2323
12776SOL     OW40959   8.354   2.458   7.532 -0.2509  0.4105 -0.5470
12776SOL    HW140960   8.301   2.405   7.591 -1.0450 -0.3559 -1.8944
12776SOL    HW240961   8.291   2.509   7.481  0.4928  2.7020  0.6956
12777SOL     OW40962   4.625   8.861   0.499  0.1090 -0.4698  0.1734
12777SOL    HW140963   4.542   8.825   0.466  0.2685 -1.0899  0.4279
12777SOL    HW240964   4.621   8.954   0.477 -0.4130 -0.5980 -0.3133
12778SOL     OW40965   5.321   3.431   0.495 -0.0051 -0.4891 -0.2963
12778SOL    HW140966   5.274   3.512   0.475  1.3144  0.0570 -1.3651
12778SOL    HW240967   5.387   3.458   0.559 -0.2869 -0.9683  0.2023
12779SOL     OW40968   4.020   0.473   1.904  0.3458  0.3737 -0.2022
12779SOL    HW140969   4.056   0.471   1.815  1.0444  0.8839  0.0612
12779SOL    HW240970   4.060   0.399   1.948 -0.2117 -0.0428 -0.3865
12780SOL     OW40971   4.297   2.128   1.941  0.5402 -0.2716  0.2728
12780SOL    HW140972   4.307   2.047   1.890  1.2851 -0.9850  1.5172
12780SOL    HW240973   4.305   2.100   2.032 -0.4367  1.0302  0.7875
12781SOL     OW40974   9.867   8.245   2.549  0.6313 -0.2975  0.3093
12781SOL    HW140975   9.862   8.174   2.484  0.4345 -0.9205  0.9893
12781SOL    HW240976   9.859   8.325   2.498  1.9838 -0.7164 -0.6160
12782SOL     OW40977  10.359   6.337   1.164 -0.2439 -1.0185 -0.0319
12782SOL    HW140978  10.322   6.340   1.076 -0.1263 -0.6404 -0.0733
12782SOL    HW240979  10.347   6.247   1.193  0.3067 -1.3162 -0.6904
12783SOL     OW40980   7.803  10.193   5.005 -0.4598 -0.0462 -0.5498
12783SOL    HW140981   7.794  10.136   5.081  0.5801  0.5844  0.0745
12783SOL    HW240982   7.773  10.140   4.931 -0.1755 -1.1477  0.1051
12784SOL     OW40983   3.377   8.572   8.999 -0.5971 -0.7219  0.0116
12784SOL    HW140984   3.427   8.569   8.917  0.2559 -0.9635  0.5281
12784SOL    HW240985   3.426   8.516   9.059  0.5925  1.9114  1.6840
12785SOL     OW40986   6.216   2.788   2.586 -0.1450 -0.7397  0.0608
12785SOL    HW140987   6.293   2.824   2.630 -1.4694  1.3207  0.8409
12785SOL    HW240988   6.251   2.739   2.512  1.9239 -0.3034  0.6967
12786SOL     OW40989   3.641   5.117   8.577  0.1260 -0.0302  0.3232
12786SOL    HW140990   3.636   5.181   8.648  0.5515  0.9282 -0.4877
12786SOL    HW240991   3.629   5.169   8.497  2.7318 -0.5658 -0.5110
12787SOL     OW40992   5.747   1.151   8.169  0.1644 -0.1272  0.2684
12787SOL    HW140993   5.677   1.208   8.138 -1.0358 -1.4309  0.5076
12787SOL    HW240994   5.726   1.135   8.261  0.3239 -1.1805  0.1259
12788SOL     OW40995   1.275   0.199   9.429 -0.2115  0.5702  0.3531
12788SOL    HW140996   1.186   0.165   9.433  0.2741 -0.7012  0.9605
12788SOL    HW240997   1.330   0.122   9.418  0.8203  1.3450 -0.1640
12789SOL     OW40998   0.062   1.970   2.671 -0.3322 -0.5999 -0.2490
12789SOL    HW140999   0.088   1.933   2.587 -0.3988 -0.5446 -0.2938
12789SOL    HW241000   0.136   1.951   2.729 -0.4111 -0.8990 -0.2435
12790SOL     OW41001   7.413   2.184   1.243  0.2384  0.0745 -0.1309
12790SOL    HW141002   7.343   2.130   1.277 -0.3391  1.6870  1.3797
12790SOL    HW241003   7.369   2.252   1.192  0.8432  0.0452 -0.7130
12791SOL     OW41004   5.719   1.421   5.673 -0.5303  0.1659  0.5664
12791SOL    HW141005   5.722   1.436   5.578 -0.0340 -0.8014  0.4114
12791SOL    HW241006   5.692   1.505   5.710 -0.2121  0.7081 -0.3965
12792SOL     OW41007   1.889   8.153   9.031  0.4268 -0.2724  0.1467
12792SOL    HW141008   1.799   8.178   9.052  0.6665  0.0964  0.7671
12792SOL    HW241009   1.883   8.062   9.001 -0.3193  0.1825 -1.1272
12793SOL     OW41010   1.641   2.661   0.553  0.0647 -0.7921 -0.6614
12793SOL    HW141011   1.568   2.600   0.543 -1.4431  0.4286  1.8205
12793SOL    HW241012   1.615   2.738   0.503 -0.1564 -0.5346 -0.1587
12794SOL     OW41013   1.099   9.754   6.313 -0.5790 -0.0713 -0.0675
12794SOL    HW141014   1.157   9.776   6.386 -1.1167  0.5237  0.1863
12794SOL    HW241015   1.114   9.822   6.248 -1.5930  0.5743  0.3503
12795SOL     OW41016  10.041   2.876   1.195 -0.0035 -0.7641 -0.1084
12795SOL    HW141017  10.045   2.874   1.291  0.9761 -0.2868 -0.1304
12795SOL    HW241018  10.051   2.969   1.173  1.6304 -1.0664 -0.7371
12796SOL     OW41019   9.213   6.026   1.336  0.0140  0.1945  0.0835
12796SOL    HW141020   9.288   6.040   1.279 -0.4269  4.2102  0.1894
12796SOL    HW241021   9.248   6.037   1.424 -0.5936  2.1785  0.1292
12797SOL     OW41022   5.118   4.297   9.414  0.1212 -0.2459 -0.0850
12797SOL    HW141023   5.151   4.386   9.405  1.3976 -0.2658  3.0003
12797SOL    HW241024   5.045   4.304   9.476 -0.9446 -1.1717 -1.1744
12798SOL     OW41025   6.301   9.669   2.265 -0.0297 -0.3016 -0.1920
12798SOL    HW141026   6.373   9.607   2.277 -0.0440 -0.1135  0.9653
12798SOL    HW241027   6.259   9.675   2.351  0.0247  1.3702 -0.2381
12799SOL     OW41028   1.992   2.821   2.544  0.1058 -0.2083  0.6339
12799SOL    HW141029   1.954   2.908   2.552 -0.6966 -0.3518 -1.1564
12799SOL    HW241030   2.007   2.809   2.450  2.3136 -1.1440  1.0338
12800SOL     OW41031   9.725   9.111   0.077  0.6993 -0.8495  0.2397
12800SOL    HW141032   9.702   9.204   0.082  0.2126 -0.9658  0.2624
12800SOL    HW241033   9.680   9.071   0.151  1.3290 -1.0223  0.5347
12801SOL     OW41034   7.696   3.168   8.988 -0.6296  0.2643 -0.0898
12801SOL    HW141035   7.689   3.229   8.915  1.2057 -0.2204 -0.7308
12801SOL    HW241036   7.719   3.084   8.947 -1.9101 -0.5940  0.8684
12802SOL     OW41037   9.756   2.801   4.079  0.1428  0.4818  0.0524
12802SOL    HW141038   9.789   2.752   4.155  0.5092 -1.0099 -1.0246
12802SOL    HW241039   9.662   2.811   4.096  0.5835  2.1650  1.7471
12803SOL     OW41040   0.020   2.981   7.022  0.2279 -0.5463  0.3609
12803SOL    HW141041   0.047   3.068   6.992 -0.4622 -1.2881 -2.7725
12803SOL    HW241042   0.079   2.920   6.978 -0.3056 -1.7475  1.2496
12804SOL     OW41043   6.231   2.052   2.190 -0.3801  0.1903  0.2482
12804SOL    HW141044   6.136   2.050   2.198 -0.4042  1.0856  0.2822
12804SOL    HW241045   6.248   2.061   2.096 -0.3230 -0.1345  0.2265
12805SOL     OW41046   6.611   8.386   3.489  0.0355  0.3416  0.3114
12805SOL    HW141047   6.676   8.447   3.524  0.7683  0.1751 -0.6969
12805SOL    HW241048   6.586   8.331   3.563  0.6337  0.7657  0.8394
12806SOL     OW41049   6.510   7.031   3.817 -0.1516  0.4007 -0.5624
12806SOL    HW141050   6.476   7.100   3.873  2.2123 -0.0099  1.5785
12806SOL    HW241051   6.440   6.967   3.812 -0.4142  0.3400  2.2351
12807SOL     OW41052   6.513   1.063   0.717  0.0944 -0.7158  0.2271
12807SOL    HW141053   6.533   1.081   0.809 -0.2526  0.1440  0.1492
12807SOL    HW241054   6.550   0.977   0.701  2.6834  0.2832  0.3984
12808SOL     OW41055   1.370   3.936   4.381 -0.1993  0.2770 -0.3678
12808SOL    HW141056   1.356   3.845   4.358 -0.7749  0.0311  0.8547
12808SOL    HW241057   1.383   3.935   4.476 -2.5830  1.6763  0.0566
12809SOL     OW41058   6.036   0.810   4.597 -0.3948 -0.0131  0.1450
12809SOL    HW141059   6.108   0.844   4.545 -0.4434  0.4686  0.3862
12809SOL    HW241060   5.960   0.861   4.570 -1.4551 -2.7754 -2.6202
12810SOL     OW41061   3.723   2.889  10.338 -0.7721 -0.0430 -0.0060
12810SOL    HW141062   3.757   2.955  10.279  0.6662  1.5015  2.3998
12810SOL    HW241063   3.651   2.932  10.384 -1.9574 -1.2561 -0.6372
12811SOL     OW41064   0.162   6.971   0.777  0.3660  0.4962  0.7665
12811SOL    HW141065   0.222   6.939   0.709 -0.8372 -0.1405 -0.0286
12811SOL    HW241066   0.213   7.036   0.825  1.9471 -0.5452  0.5997
12812SOL     OW41067   5.349   2.508   3.763 -0.6654  0.1414 -0.4691
12812SOL    HW141068   5.315   2.524   3.851 -0.3539 -1.5423 -0.0098
12812SOL    HW241069   5.384   2.592   3.735 -0.4365  0.6199  1.1705
12813SOL     OW41070   5.400   9.913   9.481  0.2303 -0.1770  0.0639
12813SOL    HW141071   5.394   9.938   9.389 -0.5393  2.6139  0.7986
12813SOL    HW241072   5.455   9.980   9.522 -0.3429 -0.7227  1.8580
12814SOL     OW41073   2.841   2.350   0.495  0.6019  0.1758 -0.1263
12814SOL    HW141074   2.813   2.302   0.573  0.8862 -0.2885 -0.3070
12814SOL    HW241075   2.892   2.287   0.445 -0.1400  0.2604 -1.0181
12815SOL     OW41076   6.594   9.530   8.455  0.0464 -0.3364  0.4792
12815SOL    HW141077   6.527   9.462   8.442 -0.3521  0.1278  0.0642
12815SOL    HW241078   6.675   9.489   8.425 -0.6020  0.2332 -2.3943
12816SOL     OW41079   7.299   7.527   5.879 -0.1436  0.7745 -0.0969
12816SOL    HW141080   7.348   7.574   5.946  0.7600  1.8906 -1.4806
12816SOL    HW241081   7.211   7.564   5.883 -0.5734 -0.3347  1.5369
12817SOL     OW41082   4.611  10.074   5.050 -0.4996  0.1101  0.6186
12817SOL    HW141083   4.561  10.007   5.004 -1.4060  0.8900  0.4324
12817SOL    HW241084   4.696  10.033   5.068  0.4522  0.1673 -2.9095
12818SOL     OW41085   1.927   6.098   3.307 -0.5421  0.3635  0.5407
12818SOL    HW141086   1.836   6.122   3.289 -0.5370  0.4887  0.6767
12818SOL    HW241087   1.978   6.174   3.279 -0.6431  1.1798  2.4001
12819SOL     OW41088   9.505   8.395   2.580 -0.1765  0.2498 -0.2489
12819SOL    HW141089   9.584   8.435   2.616  0.0727  0.5787 -1.1282
12819SOL    HW241090   9.490   8.318   2.636  1.6469 -0.7022 -0.9540
12820SOL     OW41091   7.198   8.461   0.993  0.2618 -0.5638  0.4295
12820SOL    HW141092   7.133   8.412   1.042  0.7974 -1.9227 -0.1731
12820SOL    HW241093   7.282   8.426   1.023  0.6353 -0.4811 -0.4861
12821SOL     OW41094   7.794   6.396   4.077 -0.1573  0.1451  0.3918
12821SOL    HW141095   7.710   6.359   4.052  0.0847 -0.4596  0.4609
12821SOL    HW241096   7.772   6.479   4.119 -0.8187 -0.5774  1.5406
12822SOL     OW41097   9.037   9.319   7.831 -0.8405 -0.2544  0.0766
12822SOL    HW141098   8.965   9.290   7.886 -0.6110  0.8313  1.0054
12822SOL    HW241099   9.044   9.413   7.849 -1.4266  0.3899 -2.6113
12823SOL     OW41100   9.539   4.099   3.282  0.1735 -0.1211 -0.1088
12823SOL    HW141101   9.563   4.190   3.266 -0.8804 -0.0107 -1.2028
12823SOL    HW241102   9.475   4.079   3.214  0.1531 -1.5882  0.3133
12824SOL     OW41103   9.653   5.143   0.287 -0.4933 -0.4306  0.2144
12824SOL    HW141104   9.650   5.161   0.381  0.3775 -0.9114  0.3447
12824SOL    HW241105   9.605   5.061   0.275 -0.2185 -0.6038  0.3017
12825SOL     OW41106   5.749   4.826   4.856 -0.1405  0.6767  0.7370
12825SOL    HW141107   5.668   4.873   4.876  1.4147  3.2295  1.6414
12825SOL    HW241108   5.785   4.874   4.781 -0.0739 -1.2866 -0.5579
12826SOL     OW41109   8.856   7.652   5.729  0.1126 -0.2923 -0.0454
12826SOL    HW141110   8.881   7.626   5.818  2.3453 -0.3128 -0.6072
12826SOL    HW241111   8.914   7.600   5.672 -0.1015  0.9371 -1.4356
12827SOL     OW41112   7.128   4.243   1.265  0.3232  0.5341 -0.2349
12827SOL    HW141113   7.199   4.213   1.208  0.2672 -3.4794  1.4646
12827SOL    HW241114   7.051   4.197   1.233 -0.0498 -0.4578  1.9309
12828SOL     OW41115   4.072   5.095   0.521  0.1633 -0.1251  0.4233
12828SOL    HW141116   4.020   5.078   0.599  2.3102 -0.9293  1.7620
12828SOL    HW241117   4.085   5.190   0.520  0.7676 -0.1850  1.5094
12829SOL     OW41118   1.654   4.068   5.199  0.1326 -0.8455 -1.1055
12829SOL    HW141119   1.710   4.097   5.128 -0.2058 -0.5121 -1.2406
12829SOL    HW241120   1.707   4.078   5.278  0.0494  0.0806 -1.1551
12830SOL     OW41121   6.717   6.617   6.399 -0.8405 -0.5085 -0.1186
12830SOL    HW141122   6.660   6.541   6.391  1.4889 -2.2315 -1.7557
12830SOL    HW241123   6.767   6.601   6.480 -0.3477 -0.7471 -0.4649
12831SOL     OW41124  10.189   7.423   9.739 -0.0393 -0.0379 -0.3576
12831SOL    HW141125  10.272   7.471   9.738  0.9354 -1.5902  1.2191
12831SOL    HW241126  10.211   7.334   9.713 -1.2939 -0.3800 -0.3510
12832SOL     OW41127   4.712   8.304   9.929 -0.0291  0.0436  0.2920
12832SOL    HW141128   4.756   8.278   9.847  0.1457  2.9602 -0.6644
12832SOL    HW241129   4.771   8.274   9.998 -0.0512 -2.2749 -0.6029
12833SOL     OW41130   0.436   1.271   9.191 -0.6530 -0.7698  0.4395
12833SOL    HW141131   0.421   1.364   9.175  0.8222 -0.7308 -1.0044
12833SOL    HW241132   0.349   1.231   9.188 -1.4733  0.6926  2.4330
12834SOL     OW41133   5.641   7.951  10.095  0.3461  0.2466 -0.4185
12834SOL    HW141134   5.688   8.024  10.055  0.1940  0.0254 -1.0097
12834SOL    HW241135   5.692   7.874  10.072  0.7382  0.1992  0.5586
12835SOL     OW41136   8.961   8.058   8.632 -0.0724 -0.8240 -0.1937
12835SOL    HW141137   8.936   8.112   8.706  0.0823  1.8468 -1.9350
12835SOL    HW241138   9.051   8.032   8.651 -0.7843 -2.2003  1.5696
12836SOL     OW41139   2.069   9.226   3.479 -0.1387 -0.7374  0.1876
12836SOL    HW141140   1.991   9.200   3.528 -0.2839  0.7479  0.8107
12836SOL    HW241141   2.036   9.243   3.390 -0.6082  0.1517  0.5141
12837SOL     OW41142   9.072   7.647   2.620 -0.5835 -0.1810 -0.0841
12837SOL    HW141143   9.156   7.650   2.574 -0.9421  1.2755 -0.6763
12837SOL    HW241144   9.081   7.573   2.681  0.5143 -1.0627 -1.2759
12838SOL     OW41145   1.514   4.244   0.953 -0.0299  0.1670 -0.3866
12838SOL    HW141146   1.504   4.150   0.965 -0.9713  0.2278 -0.6086
12838SOL    HW241147   1.469   4.263   0.871 -0.7785  0.9650  0.1838
12839SOL     OW41148   7.959   0.246   5.761 -0.0904 -0.3252 -0.3255
12839SOL    HW141149   7.982   0.166   5.715  0.9964  1.0239 -2.2380
12839SOL    HW241150   7.901   0.293   5.701 -1.0912  0.1487  0.9529
12840SOL     OW41151   9.792   4.857   2.414  0.2040  0.5600 -0.1691
12840SOL    HW141152   9.763   4.884   2.327  1.7452  0.1002 -0.8519
12840SOL    HW241153   9.848   4.929   2.444 -0.2277  0.6626  0.3946
12841SOL     OW41154   8.245   7.983   0.177 -0.2745  0.3188 -0.1557
12841SOL    HW141155   8.181   8.040   0.221 -0.5674 -0.9797  1.2031
12841SOL    HW241156   8.201   7.898   0.172  0.2174  0.1339 -1.9875
12842SOL     OW41157   9.318   7.069   9.045 -0.2189  0.0025 -0.0742
12842SOL    HW141158   9.267   7.123   8.984 -1.3143 -1.2534 -0.3113
12842SOL    HW241159   9.407   7.074   9.012 -0.2197  1.8573  0.0556
12843SOL     OW41160   1.203   6.814   7.651  0.6040 -0.6620 -0.3157
12843SOL    HW141161   1.218   6.762   7.572 -0.8226 -1.9590  0.2055
12843SOL    HW241162   1.162   6.752   7.712 -0.9049  1.0223  0.4432
12844SOL     OW41163   3.108   0.661   8.297  0.1544 -0.0331 -0.5864
12844SOL    HW141164   3.179   0.685   8.237  0.7070  0.9008  0.4078
12844SOL    HW241165   3.041   0.623   8.241  1.1741 -0.3570 -1.6327
12845SOL     OW41166   7.237   9.335   8.650  0.4104  0.6125  0.1076
12845SOL    HW141167   7.322   9.308   8.616  0.3282  1.8395 -1.1859
12845SOL    HW241168   7.184   9.255   8.647  1.3468 -0.0407  0.4155
12846SOL     OW41169   9.256   7.381   7.316  0.5547 -0.2617 -0.5279
12846SOL    HW141170   9.274   7.299   7.362 -0.5880  0.1255  0.6648
12846SOL    HW241171   9.191   7.357   7.250  1.8907 -0.7320 -1.7391
12847SOL     OW41172   4.988   1.733   3.822  0.1273  0.0784 -0.4540
12847SOL    HW141173   5.077   1.715   3.853  0.0691 -0.0189 -0.3392
12847SOL    HW241174   4.932   1.687   3.885  0.0200 -0.4657 -0.9374
12848SOL     OW41175   6.625   3.365   3.453  0.6161 -0.0585 -0.1364
12848SOL    HW141176   6.539   3.346   3.416  1.5640 -0.9862 -1.9919
12848SOL    HW241177   6.612   3.361   3.548 -1.2790 -0.6372 -0.3938
12849SOL     OW41178   3.196   8.868   2.996 -0.0844 -0.0546  0.2405
12849SOL    HW141179   3.203   8.963   3.000  0.2193 -0.0001 -1.0913
12849SOL    HW241180   3.270   8.837   3.047 -0.8385  0.3955  1.6537
12850SOL     OW41181   9.515   4.057   0.558 -0.1572  0.4477 -0.3376
12850SOL    HW141182   9.607   4.042   0.581 -0.8457 -1.0783  1.6393
12850SOL    HW241183   9.491   3.981   0.505  0.0525  1.5329 -2.0621
12851SOL     OW41184   1.444   3.946   2.152  0.3682  0.1722 -0.0071
12851SOL    HW141185   1.456   4.040   2.137 -0.1129  0.0291 -1.4531
12851SOL    HW241186   1.500   3.904   2.087 -0.9704 -0.5153 -0.7471
12852SOL     OW41187   4.688   0.636   9.017 -0.4534 -0.0317  0.2084
12852SOL    HW141188   4.662   0.698   9.085 -0.3656 -1.6090  1.7441
12852SOL    HW241189   4.749   0.577   9.060  0.7829 -0.1977 -1.6711
12853SOL     OW41190   7.788   2.816   8.684 -0.2930 -0.0493 -0.1215
12853SOL    HW141191   7.856   2.810   8.618  0.0298  0.0812  0.1968
12853SOL    HW241192   7.707   2.794   8.638 -0.3712  1.9734 -1.0467
12854SOL     OW41193   2.137   2.021   6.652  0.1874  0.3517  0.1905
12854SOL    HW141194   2.104   1.932   6.650  0.0693  0.3129  1.9749
12854SOL    HW241195   2.087   2.067   6.584  0.5246 -1.0050 -1.0053
12855SOL     OW41196   8.021   1.779   6.689 -0.5501  0.1780 -0.2504
12855SOL    HW141197   7.942   1.808   6.734 -0.3629 -0.3476  0.4203
12855SOL    HW241198   8.093   1.816   6.740 -0.3499  0.5546 -0.7915
12856SOL     OW41199   2.760   3.488   2.560 -0.2800  0.1877  0.2744
12856SOL    HW141200   2.830   3.552   2.543 -1.9815  1.8568 -0.9194
12856SOL    HW241201   2.685   3.523   2.512 -2.3703 -0.7323  2.6799
12857SOL     OW41202   1.905   9.461   5.403 -0.1380 -0.2979  0.0481
12857SOL    HW141203   1.891   9.405   5.479  1.8687  1.1782  1.6177
12857SOL    HW241204   1.820   9.500   5.385 -0.4942  0.0487  2.1949
12858SOL     OW41205   1.248   3.369   1.631  0.0191  0.4593  0.0847
12858SOL    HW141206   1.330   3.347   1.586  1.3630  1.3004  1.9610
12858SOL    HW241207   1.251   3.319   1.712 -1.4390  0.3701  0.1072
12859SOL     OW41208   6.120   9.701   6.653 -0.6461 -0.4834 -0.4549
12859SOL    HW141209   6.137   9.719   6.745 -0.1548 -1.8170 -0.2682
12859SOL    HW241210   6.026   9.681   6.649 -0.7382 -0.0864 -0.3067
12860SOL     OW41211   8.011   6.386   6.305  0.0246  0.3905 -0.1368
12860SOL    HW141212   7.990   6.300   6.342 -0.3584 -0.1735 -1.5744
12860SOL    HW241213   7.947   6.397   6.234 -0.3633  2.1662  0.4447
12861SOL     OW41214   8.907   7.381   2.145  0.0563 -0.2088  0.4660
12861SOL    HW141215   8.957   7.394   2.065  0.3819 -1.0648  0.5252
12861SOL    HW241216   8.909   7.467   2.189  1.1069 -0.1155  0.2650
12862SOL     OW41217   5.698   5.301   4.944 -0.2796  0.5593 -0.0352
12862SOL    HW141218   5.663   5.316   5.031  0.2599 -0.4777  0.3751
12862SOL    HW241219   5.759   5.228   4.955  0.2781  0.8350 -1.1547
12863SOL     OW41220   0.953   4.846   5.411 -0.3698  0.1792  0.4023
12863SOL    HW141221   0.900   4.772   5.440  2.8944 -1.6414  2.2295
12863SOL    HW241222   0.982   4.822   5.323  0.7058 -0.7918  1.0009
12864SOL     OW41223   6.494   3.823   0.617 -0.2082 -0.4226  0.1168
12864SOL    HW141224   6.435   3.756   0.581 -0.6273  0.4947 -0.9934
12864SOL    HW241225   6.440   3.872   0.678 -0.1131 -0.6154  0.3590
12865SOL     OW41226   0.139   5.028   9.167 -0.5401 -0.3695 -0.4358
12865SOL    HW141227   0.114   5.010   9.258  0.8732  0.5747  0.1896
12865SOL    HW241228   0.177   5.116   9.171  2.9024 -1.6663 -1.2132
12866SOL     OW41229   7.062   7.509   1.836  0.1154  0.2134 -0.3171
12866SOL    HW141230   7.045   7.529   1.929  1.2921 -1.1557  0.2257
12866SOL    HW241231   6.992   7.554   1.789 -0.7952  0.5350  1.2734
12867SOL     OW41232   9.560   2.796   1.756 -0.1780  0.6201  0.8968
12867SOL    HW141233   9.554   2.840   1.841  1.8008 -0.1533  1.5084
12867SOL    HW241234   9.648   2.757   1.756 -0.4644 -0.1419 -1.1554
12868SOL     OW41235   4.153   0.198   2.146 -0.5775  0.0229  0.3606
12868SOL    HW141236   4.226   0.253   2.117 -0.9038  0.8940  1.1666
12868SOL    HW241237   4.196   0.124   2.190 -0.1575  1.5143  2.6189
12869SOL     OW41238   5.092   3.623   3.964 -0.2027  0.5286 -0.5300
12869SOL    HW141239   5.035   3.580   3.901  0.9636 -0.1675 -1.1506
12869SOL    HW241240   5.119   3.704   3.921 -1.2301  1.1874  0.0368
12870SOL     OW41241   3.821   7.743   3.305 -0.4602 -0.2232 -0.0262
12870SOL    HW141242   3.882   7.716   3.373  0.5174 -1.0454 -1.1835
12870SOL    HW241243   3.877   7.770   3.232 -1.4852 -0.5161 -0.9413
12871SOL     OW41244   5.651   6.221   8.255  0.1203 -0.0834 -0.6274
12871SOL    HW141245   5.660   6.233   8.350 -1.8398 -0.7638 -0.3012
12871SOL    HW241246   5.617   6.132   8.246 -0.3767  0.2231 -1.9233
12872SOL     OW41247   5.787   4.372   6.494  0.0705  0.0186  0.3551
12872SOL    HW141248   5.873   4.333   6.514 -0.7178 -2.4048 -0.6365
12872SOL    HW241249   5.740   4.369   6.577  0.1443 -0.9063  0.3762
12873SOL     OW41250   5.062   3.650   8.734  0.5432 -0.0572  0.1540
12873SOL    HW141251   5.117   3.653   8.813  0.0596 -3.2039  0.7189
12873SOL    HW241252   4.974   3.630   8.768 -0.3175  1.5506 -1.0082
12874SOL     OW41253   4.499   6.038   8.270 -0.1708  0.3230  0.6163
12874SOL    HW141254   4.453   6.004   8.193  1.5352  1.4023 -0.9642
12874SOL    HW241255   4.435   6.030   8.341 -2.8727  1.8604 -1.4514
12875SOL     OW41256   5.357   5.361   5.405  0.1386  0.6934 -0.1393
12875SOL    HW141257   5.307   5.439   5.429 -1.5604 -0.4051  0.0539
12875SOL    HW241258   5.386   5.324   5.488 -0.6681  0.1236 -0.0967
12876SOL     OW41259   0.526   5.540   8.538  0.3419  0.1271  0.0666
12876SOL    HW141260   0.598   5.492   8.498  0.8815  0.0099  1.1401
12876SOL    HW241261   0.541   5.631   8.513 -0.6485 -0.2089 -1.9193
12877SOL     OW41262  10.245   8.363   4.285 -0.2538 -0.4230  0.2161
12877SOL    HW141263  10.208   8.405   4.208  0.7028  2.8521  1.3715
12877SOL    HW241264  10.180   8.378   4.354 -1.1934 -3.4776  0.1504
12878SOL     OW41265   6.148   5.744   6.140 -0.3302 -0.3777  0.2781
12878SOL    HW141266   6.059   5.776   6.155 -0.4474 -0.0496 -1.0118
12878SOL    HW241267   6.183   5.802   6.073  1.5961  0.7711  2.1914
12879SOL     OW41268   6.066   3.676   7.452 -0.6766  0.4014 -0.0195
12879SOL    HW141269   6.157   3.660   7.474 -0.1292  2.1896 -0.8451
12879SOL    HW241270   6.023   3.691   7.537 -0.1307  0.0176  0.3297
12880SOL     OW41271   8.477   4.739   6.602  0.2740  0.2056 -0.0074
12880SOL    HW141272   8.561   4.757   6.644  0.5382  0.8943 -0.7801
12880SOL    HW241273   8.420   4.711   6.673  0.9568  0.4366  0.6494
12881SOL     OW41274   5.581   9.315   7.892 -0.1711  0.1529  0.0401
12881SOL    HW141275   5.590   9.338   7.800  0.9135 -3.7542 -1.0294
12881SOL    HW241276   5.492   9.278   7.899  0.6437 -2.0487 -0.2350
12882SOL     OW41277   5.169   7.304   2.540  0.3216 -0.2464 -0.0717
12882SOL    HW141278   5.224   7.264   2.607 -1.4199 -0.1170  1.4875
12882SOL    HW241279   5.195   7.261   2.459 -0.2576 -3.3341  1.2523
12883SOL     OW41280   4.879   7.716   2.236  0.6947  0.3233 -0.1526
12883SOL    HW141281   4.869   7.754   2.324 -0.8751 -1.2362  0.4206
12883SOL    HW241282   4.887   7.791   2.178 -0.2241  1.4674  1.1243
12884SOL     OW41283   8.576   2.918   9.815 -0.1064  0.0836  0.2747
12884SOL    HW141284   8.591   2.987   9.751  0.9246  0.2533  0.6758
12884SOL    HW241285   8.512   2.955   9.876 -1.5845 -0.3115 -0.9723
12885SOL     OW41286   8.817   4.215   0.952 -0.6083  0.1326  0.2745
12885SOL    HW141287   8.857   4.275   0.889 -1.1556  0.0737 -0.1410
12885SOL    HW241288   8.828   4.257   1.037  1.3020 -0.3783  0.3352
12886SOL     OW41289   0.413   6.266   8.498 -0.3609  0.1237 -0.3551
12886SOL    HW141290   0.390   6.342   8.445 -0.9264  0.3140  0.1382
12886SOL    HW241291   0.348   6.200   8.474  0.1067 -0.1921 -0.7551
12887SOL     OW41292   1.425   7.134   7.767  0.1528  0.4726 -0.6389
12887SOL    HW141293   1.353   7.114   7.707  0.8455  1.1385 -1.7210
12887SOL    HW241294   1.465   7.049   7.784  0.4077  0.3558 -1.7364
12888SOL     OW41295   8.549   3.014   4.454 -0.0421  0.6014 -0.0384
12888SOL    HW141296   8.638   3.049   4.450  0.4384 -0.7023 -1.5312
12888SOL    HW241297   8.496   3.079   4.408  0.6410  0.0095 -1.7197
12889SOL     OW41298   6.878   7.047   4.647  0.7868  0.6083  0.0226
12889SOL    HW141299   6.842   6.969   4.604 -1.5073  0.2005  2.4537
12889SOL    HW241300   6.918   7.097   4.575  1.5870 -2.3478 -1.7373
12890SOL     OW41301   1.960   1.867   5.519 -0.0456  0.4623 -0.8476
12890SOL    HW141302   2.005   1.941   5.560 -3.2295  1.7417  0.6954
12890SOL    HW241303   1.922   1.818   5.592 -0.6377 -0.8739 -2.0036
12891SOL     OW41304   7.536   6.154   0.612  0.0934 -0.0573  0.3469
12891SOL    HW141305   7.475   6.227   0.601  0.3939 -0.0219 -1.1873
12891SOL    HW241306   7.581   6.147   0.528 -0.5687 -2.5923  0.1421
12892SOL     OW41307   6.142   9.027  10.263 -0.5400 -0.2812  0.3040
12892SOL    HW141308   6.052   9.027  10.232 -1.2863  3.4547  1.9112
12892SOL    HW241309   6.136   9.000  10.354 -0.0847  0.1624  0.4708
12893SOL     OW41310   3.106   3.248   0.915 -0.0386  0.6802  0.2776
12893SOL    HW141311   3.102   3.333   0.959 -1.8810  1.3684 -1.0871
12893SOL    HW241312   3.031   3.199   0.950 -0.6776  0.7093 -0.9805
12894SOL     OW41313   6.432   4.631   2.108 -0.4337  0.5861 -0.2219
12894SOL    HW141314   6.377   4.653   2.182 -1.4979  0.1631 -0.8676
12894SOL    HW241315   6.397   4.683   2.035  0.5844  0.9883 -0.4526
12895SOL     OW41316   8.916   5.862   5.582  0.1776 -0.0824 -0.5977
12895SOL    HW141317   8.874   5.894   5.503 -0.7934 -0.4696 -0.2601
12895SOL    HW241318   8.954   5.778   5.557 -0.5743 -0.4470 -0.5278
12896SOL     OW41319   7.069   4.171  10.354 -0.0122 -0.5301  0.5871
12896SOL    HW141320   7.071   4.101  10.289 -1.0673 -1.7130  1.7689
12896SOL    HW241321   7.111   4.134  10.431  0.4995  0.5651  0.8571
12897SOL     OW41322   1.842   9.751   2.906  0.1092  0.1434  0.0581
12897SOL    HW141323   1.757   9.709   2.922  0.9178 -2.2676 -1.4311
12897SOL    HW241324   1.895   9.729   2.983  0.0979 -0.4003 -0.0864
12898SOL     OW41325   1.599   4.202   7.140  0.0215  0.2566 -0.1856
12898SOL    HW141326   1.662   4.152   7.088  0.6972 -1.0484  1.7802
12898SOL    HW241327   1.605   4.165   7.228 -4.6801 -1.1006 -0.1526
12899SOL     OW41328   9.049   8.445   3.181 -0.6767  0.0294 -0.3948
12899SOL    HW141329   9.011   8.529   3.155  0.7931  0.6919 -0.4878
12899SOL    HW241330   9.120   8.469   3.240 -0.7654 -1.2113  0.2330
12900SOL     OW41331   0.098   1.920  10.202 -0.3905  0.0072  0.3291
12900SOL    HW141332   0.192   1.933  10.215 -0.5448  1.1065  0.4545
12900SOL    HW241333   0.058   1.959  10.280 -0.8977 -1.7257  0.9728
12901SOL     OW41334   8.921   0.177   7.449 -0.0709 -0.2380  0.0892
12901SOL    HW141335   8.879   0.181   7.363  0.3242  0.1320 -0.0924
12901SOL    HW241336   8.882   0.101   7.491 -0.4575 -0.2743 -0.3199
12902SOL     OW41337   4.764   3.048   8.980  0.1819 -0.4231 -0.1339
12902SOL    HW141338   4.818   3.122   9.007  0.0208 -0.6637  0.9095
12902SOL    HW241339   4.692   3.087   8.930  1.1083 -0.0728 -1.2152
12903SOL     OW41340   9.966   5.689   0.657 -0.5263 -0.1621  0.0798
12903SOL    HW141341   9.906   5.722   0.591  0.3928  1.1094 -0.1423
12903SOL    HW241342   9.920   5.703   0.740 -1.4636 -1.2932 -0.2150
12904SOL     OW41343   9.073  10.220   1.121  0.2867 -0.1098 -0.1473
12904SOL    HW141344   9.081  10.125   1.113  2.1615  0.0162 -0.3927
12904SOL    HW241345   9.037  10.233   1.209  2.4540 -1.0570  0.9868
12905SOL     OW41346   1.648   2.202   1.455 -0.4320 -0.0123 -0.3198
12905SOL    HW141347   1.629   2.198   1.362 -0.6048  1.5493 -0.3881
12905SOL    HW241348   1.622   2.117   1.489 -1.1176 -0.3215 -1.5632
12906SOL     OW41349   0.826   1.645   1.958  0.8807 -0.5547  0.0075
12906SOL    HW141350   0.796   1.603   1.877 -0.6113  0.4164  0.0080
12906SOL    HW241351   0.886   1.713   1.928  1.1134 -0.8521 -0.2057
12907SOL     OW41352   8.439   0.727   6.138  0.2771 -0.1561 -0.1726
12907SOL    HW141353   8.416   0.638   6.163 -2.1928  0.3403 -0.4632
12907SOL    HW241354   8.381   0.748   6.065 -0.9457  2.4645  1.3747
12908SOL     OW41355   2.227   0.884   2.875 -0.0071  0.0614 -0.3179
12908SOL    HW141356   2.144   0.853   2.838 -0.3178 -1.0893  1.2435
12908SOL    HW241357   2.208   0.975   2.901 -0.3053  0.3006 -1.3232
12909SOL     OW41358   8.840   3.461   9.804 -0.2160 -0.5032  0.5591
12909SOL    HW141359   8.877   3.537   9.849  1.9964 -0.3598 -1.3436
12909SOL    HW241360   8.750   3.487   9.784  0.3642  1.4694  0.3045
12910SOL     OW41361   0.941   7.375  10.360 -0.4142  0.2685  0.1899
12910SOL    HW141362   0.855   7.414  10.376 -1.4503 -1.6252 -0.4084
12910SOL    HW241363   0.974   7.422  10.283 -0.9625  0.9145  0.3320
12911SOL     OW41364   8.746   3.679   5.518  0.1092 -0.4585 -0.1048
12911SOL    HW141365   8.842   3.676   5.524  0.0274 -1.4359  1.5698
12911SOL    HW241366   8.724   3.613   5.453  0.5743 -0.0544 -0.6828
12912SOL     OW41367   9.925   6.029   2.999 -0.5426  0.1875 -0.0071
12912SOL    HW141368   9.874   5.968   2.946  0.9348 -0.4420 -0.7499
12912SOL    HW241369   9.916   5.996   3.088 -3.6687  1.6774  0.3848
12913SOL     OW41370   5.219   5.294   5.154  0.3873 -0.3063  0.3938
12913SOL    HW141371   5.232   5.357   5.083  1.4585  0.4623  1.2307
12913SOL    HW241372   5.220   5.348   5.234 -0.9498 -1.1286  0.9871
12914SOL     OW41373   1.742   2.790   5.569 -0.3370 -0.1039  0.2014
12914SOL    HW141374   1.743   2.695   5.581 -1.3118 -0.2386 -0.6929
12914SOL    HW241375   1.659   2.808   5.526 -1.0753  1.3918  2.1280
12915SOL     OW41376  10.332   5.633   7.502 -0.5141  0.9197  0.0311
12915SOL    HW141377  10.345   5.539   7.516 -1.2322  1.0535  1.9694
12915SOL    HW241378  10.261   5.639   7.438  0.4486  0.1700 -1.1399
12916SOL     OW41379   3.364   0.161   6.512 -0.3164  0.3359 -0.2503
12916SOL    HW141380   3.456   0.145   6.530  0.5512 -0.6151 -4.4351
12916SOL    HW241381   3.347   0.247   6.551  1.9017 -0.0038  1.7082
12917SOL     OW41382   5.546   5.952   9.340 -0.6383  0.7800 -0.3076
12917SOL    HW141383   5.524   6.030   9.391  1.1823  1.9110 -1.1377
12917SOL    HW241384   5.642   5.954   9.333 -0.4485 -2.0566  0.4080
12918SOL     OW41385   8.287   9.738   7.649 -0.0919  0.1768 -0.3498
12918SOL    HW141386   8.336   9.668   7.607  0.5673 -0.1682  0.9741
12918SOL    HW241387   8.339   9.817   7.634  1.5976 -0.3756  2.1087
12919SOL     OW41388   1.811   9.850   2.578  0.1093 -0.3134 -0.0183
12919SOL    HW141389   1.856   9.921   2.624  0.5570 -1.2634  1.0667
12919SOL    HW241390   1.882   9.802   2.534  0.4364 -2.4551  2.5626
12920SOL     OW41391   3.094   8.335   0.261 -0.1979 -0.2611  0.3920
12920SOL    HW141392   3.007   8.306   0.232  0.3793 -0.6428 -1.0228
12920SOL    HW241393   3.084   8.429   0.276 -0.3785  0.0947 -1.7202
12921SOL     OW41394   1.841   2.863   5.085  0.2656  0.3807 -0.3384
12921SOL    HW141395   1.904   2.918   5.132 -2.0272 -0.0000  3.6018
12921SOL    HW241396   1.876   2.774   5.094 -0.9098  0.0924  2.3638
12922SOL     OW41397   3.553   1.995   0.600  0.1907 -0.7088 -0.2224
12922SOL    HW141398   3.536   1.935   0.528  0.7854 -1.5459  0.3085
12922SOL    HW241399   3.466   2.020   0.632 -0.0720 -1.5754 -0.2297
12923SOL     OW41400   0.957   3.345   0.088 -0.1824 -0.1237  0.4484
12923SOL    HW141401   1.001   3.416   0.135 -0.0064  0.3060 -0.3480
12923SOL    HW241402   0.891   3.390   0.034  1.9177 -0.1903 -2.3891
12924SOL     OW41403   0.788   5.487   8.412  0.1295 -0.4395  1.0907
12924SOL    HW141404   0.785   5.470   8.318  0.9872  2.7321  0.3728
12924SOL    HW241405   0.874   5.453   8.439  0.7701  0.4839  0.2705
12925SOL     OW41406   2.413   7.110   9.147  0.3187 -0.3220  0.2138
12925SOL    HW141407   2.404   7.033   9.090 -1.5494 -1.3550  1.7920
12925SOL    HW241408   2.467   7.079   9.220 -0.1392 -0.0690  0.6707
12926SOL     OW41409   6.490   8.635   7.123  0.5305  0.6052 -0.2106
12926SOL    HW141410   6.581   8.653   7.098  0.3445 -0.0480 -1.4294
12926SOL    HW241411   6.481   8.673   7.210  1.6323  1.7088 -0.5599
12927SOL     OW41412   4.845   5.931   3.948 -0.8252 -0.7829  0.3256
12927SOL    HW141413   4.759   5.973   3.941 -0.1407  0.8747  1.2245
12927SOL    HW241414   4.885   5.945   3.862 -0.1625  1.5797  0.9347
12928SOL     OW41415   6.172   9.652   4.431 -0.0733 -0.4923 -0.3658
12928SOL    HW141416   6.223   9.659   4.351  1.4532  1.6705  0.6993
12928SOL    HW241417   6.229   9.686   4.500 -1.4193 -2.0085  1.6305
12929SOL     OW41418  10.238   3.686   3.439  0.0394 -0.6073 -0.3453
12929SOL    HW141419  10.280   3.602   3.423  1.3164  0.2104 -1.4784
12929SOL    HW241420  10.306   3.740   3.478 -0.2991  0.3722 -1.0733
12930SOL     OW41421   6.966   9.702   7.078  0.2094  0.3312  0.2158
12930SOL    HW141422   6.961   9.611   7.049 -1.4439  0.5908 -0.4509
12930SOL    HW241423   6.896   9.746   7.030  1.7201  2.2271 -0.3750
12931SOL     OW41424   7.795   7.112   8.439 -0.4175  0.3303  0.5530
12931SOL    HW141425   7.800   7.017   8.428 -1.5046  0.3034  0.2134
12931SOL    HW241426   7.880   7.144   8.407 -0.6881 -0.3872 -0.9717
12932SOL     OW41427   5.616   3.852   9.813  0.5409 -0.7490 -0.3721
12932SOL    HW141428   5.561   3.776   9.832 -0.1250  0.0419  1.0721
12932SOL    HW241429   5.556   3.926   9.814  1.5251  0.0842  0.8046
12933SOL     OW41430   7.699   2.193   5.546 -0.2088 -1.2876 -0.1805
12933SOL    HW141431   7.648   2.198   5.465 -0.4545 -0.5995  0.0111
12933SOL    HW241432   7.787   2.170   5.517  0.0018  0.1600 -0.7755
12934SOL     OW41433   7.774   6.621   0.071 -0.2086 -0.0038 -0.1800
12934SOL    HW141434   7.740   6.622  -0.018  0.5142 -3.2643 -0.6096
12934SOL    HW241435   7.710   6.570   0.121 -1.6965  3.4370  1.8207
12935SOL     OW41436   0.019   7.394   2.888 -0.7474  0.1098 -0.0655
12935SOL    HW141437   0.058   7.405   2.974 -1.0829 -0.8989  0.2226
12935SOL    HW241438  -0.013   7.304   2.886  1.2770 -0.6609 -2.0730
12936SOL     OW41439   6.703   8.699   1.626 -0.4022  0.3908  0.3042
12936SOL    HW141440   6.682   8.685   1.534 -1.3125 -1.9126  0.8020
12936SOL    HW241441   6.619   8.687   1.671  0.1411  0.9231  1.4906
12937SOL     OW41442   3.965   0.374   0.691 -0.2616  0.1175  0.4252
12937SOL    HW141443   3.968   0.338   0.780  1.0509  0.2515  0.4538
12937SOL    HW241444   4.007   0.307   0.637 -0.6172  0.2501 -0.0215
12938SOL     OW41445   4.454   9.974   7.264 -0.6976 -0.4294  0.2537
12938SOL    HW141446   4.492  10.061   7.273  0.7573 -1.0580  0.4949
12938SOL    HW241447   4.370   9.989   7.220  0.7020  0.8753 -2.2165
12939SOL     OW41448   5.541   6.174   9.122 -0.6231 -0.2344  0.3050
12939SOL    HW141449   5.564   6.098   9.069  1.3307  0.6079 -0.1201
12939SOL    HW241450   5.589   6.163   9.204  1.6449  1.6363 -0.6614
12940SOL     OW41451   5.738   2.330   1.819 -0.4629  0.1019 -0.4008
12940SOL    HW141452   5.668   2.308   1.880 -0.4460 -0.3510 -0.5474
12940SOL    HW241453   5.724   2.275   1.743  0.0128  0.0505 -0.4585
12941SOL     OW41454   5.222   8.425   8.565 -0.3303 -0.3841  0.1479
12941SOL    HW141455   5.274   8.414   8.645 -1.3853 -0.4443  0.8527
12941SOL    HW241456   5.158   8.354   8.568 -0.0554 -0.7053 -1.0363
12942SOL     OW41457   9.769   5.667   7.020  0.6277 -0.3500  0.1722
12942SOL    HW141458   9.677   5.664   6.996  0.6692  0.6810 -0.1849
12942SOL    HW241459   9.780   5.597   7.084 -0.3597 -0.5965  0.0857
12943SOL     OW41460   4.229   5.729   0.026 -0.4523  0.2219 -0.4865
12943SOL    HW141461   4.169   5.662   0.060 -0.8066  0.1797 -1.1945
12943SOL    HW241462   4.172   5.803   0.004 -0.7334 -0.8492 -3.9636
12944SOL     OW41463   9.971   5.094   5.888 -0.1568  0.1535 -0.3142
12944SOL    HW141464  10.015   5.054   5.962 -0.9466  1.1341  0.7154
12944SOL    HW241465  10.031   5.163   5.858 -1.4413  2.4124  1.9452
12945SOL     OW41466   0.645   7.788   4.525 -0.5615  0.3815  0.6575
12945SOL    HW141467   0.636   7.790   4.430 -1.3348  0.4344  0.7272
12945SOL    HW241468   0.715   7.851   4.544  1.2012 -1.2632 -0.0335
12946SOL     OW41469   5.975   7.826   3.644  0.2303  0.3165 -0.2797
12946SOL    HW141470   6.043   7.798   3.705 -0.7071  1.9192  1.6073
12946SOL    HW241471   5.927   7.745   3.623  1.6577 -0.5476 -0.3517
12947SOL     OW41472   8.610   6.561   5.834  0.2167  0.1561  0.1792
12947SOL    HW141473   8.665   6.522   5.902  1.3347  1.2810 -0.0475
12947SOL    HW241474   8.672   6.599   5.771 -0.7884  1.6889  0.0446
12948SOL     OW41475   4.995   6.990   5.507 -0.6909 -0.5765 -0.0208
12948SOL    HW141476   4.939   7.068   5.503 -0.5012 -0.4716 -2.1210
12948SOL    HW241477   5.072   7.019   5.555 -0.7511  0.4722 -0.5083
12949SOL     OW41478   4.892   6.969   0.828 -0.4272  0.6893  0.3997
12949SOL    HW141479   4.896   6.906   0.756 -2.4133  0.5744  0.3106
12949SOL    HW241480   4.980   6.972   0.863  1.0802  1.8692 -2.9859
12950SOL     OW41481   4.933   8.478   7.147  0.0159 -0.0210 -0.4442
12950SOL    HW141482   5.021   8.479   7.184 -0.3888 -1.3199  0.6142
12950SOL    HW241483   4.893   8.559   7.180  0.5143  0.1253 -0.1884
12951SOL     OW41484   0.153   2.856   9.271 -0.4479 -0.4447  0.0980
12951SOL    HW141485   0.114   2.776   9.306 -0.9212 -1.5397 -2.6923
12951SOL    HW241486   0.082   2.896   9.221  0.0474  1.3040  0.7232
12952SOL     OW41487   5.848   3.892   8.714 -0.2375  0.3015  0.8802
12952SOL    HW141488   5.928   3.925   8.755 -0.9478  2.7539  0.4619
12952SOL    HW241489   5.878   3.857   8.630  0.3693  1.9923  0.3359
12953SOL     OW41490   0.453   2.495   5.651 -0.2734  0.3523  0.3517
12953SOL    HW141491   0.530   2.441   5.671 -0.9248 -0.3024  1.1789
12953SOL    HW241492   0.385   2.462   5.709 -1.1259  1.0734 -0.2086
12954SOL     OW41493   4.687   7.494   0.388  0.6325  0.8604  0.5063
12954SOL    HW141494   4.689   7.428   0.319  2.3139  2.7780 -1.3839
12954SOL    HW241495   4.724   7.449   0.465  1.6678 -0.4179 -0.6860
12955SOL     OW41496   6.424   0.346   4.277  0.5574 -0.1025  0.1798
12955SOL    HW141497   6.457   0.427   4.316  0.6314 -0.6446  1.3020
12955SOL    HW241498   6.405   0.290   4.352 -1.4055 -0.4037 -0.4868
12956SOL     OW41499   7.930   7.658  10.060 -0.5063  0.3097 -0.1675
12956SOL    HW141500   7.878   7.690  10.134 -0.6026  0.5591 -0.3386
12956SOL    HW241501   7.927   7.730   9.997 -0.7532 -0.0581 -0.5775
12957SOL     OW41502   9.896   3.047   6.198  0.1918 -0.3507 -0.2768
12957SOL    HW141503   9.821   3.029   6.255  0.4464 -0.5511 -0.0084
12957SOL    HW241504   9.857   3.051   6.110 -0.2249  0.1403 -0.0800
12958SOL     OW41505   5.448   5.105   4.264 -0.2318  0.1215 -0.4183
12958SOL    HW141506   5.484   5.149   4.187  0.5592 -0.7352 -0.5677
12958SOL    HW241507   5.353   5.110   4.253 -0.2449  3.0352  0.3161
12959SOL     OW41508   6.894   4.310   7.136  0.4608 -0.4563 -0.1888
12959SOL    HW141509   6.987   4.290   7.151  0.6060 -1.1749 -1.8135
12959SOL    HW241510   6.885   4.402   7.163  0.8945 -1.1952  2.8866
12960SOL     OW41511   6.404   0.391   1.054  0.1294  0.2847 -0.0590
12960SOL    HW141512   6.417   0.330   0.981  0.1477 -1.2120  1.1327
12960SOL    HW241513   6.317   0.429   1.039  0.0715 -0.1118 -0.7766
12961SOL     OW41514   0.669   3.113   1.818 -0.2381 -0.1884 -0.1287
12961SOL    HW141515   0.670   3.132   1.912  0.1965 -0.1467 -0.1416
12961SOL    HW241516   0.631   3.026   1.812 -0.8092  0.0443  0.0434
12962SOL     OW41517   8.189   5.728   6.195  0.0815  0.0493 -0.3129
12962SOL    HW141518   8.138   5.768   6.124  2.7345  1.4046 -1.5902
12962SOL    HW241519   8.266   5.693   6.152  0.1087 -2.3203  1.4909
12963SOL     OW41520   4.365   7.230   5.352 -0.7127 -0.5537  0.4400
12963SOL    HW141521   4.344   7.228   5.445 -0.3725 -1.3357  0.5147
12963SOL    HW241522   4.457   7.202   5.348 -0.3961  0.5395 -0.0512
12964SOL     OW41523   5.403   3.436   8.453  0.6268 -0.2606  0.3562
12964SOL    HW141524   5.391   3.418   8.360 -1.2759 -0.0056  0.5020
12964SOL    HW241525   5.318   3.471   8.481  0.8072 -1.2928  2.3998
12965SOL     OW41526   2.163   0.990   2.577  0.4054  0.1262 -0.0599
12965SOL    HW141527   2.168   0.907   2.530 -0.6439  0.8902 -1.6031
12965SOL    HW241528   2.158   0.965   2.669 -0.9524 -1.5848 -0.5464
12966SOL     OW41529   2.614   8.686   4.734  0.0598  0.6480  0.1809
12966SOL    HW141530   2.624   8.610   4.675  1.8932  1.3607 -0.4983
12966SOL    HW241531   2.586   8.757   4.676 -1.1337  0.6263  0.7249
12967SOL     OW41532   2.329   2.236   7.590  0.6182  0.0088  0.1503
12967SOL    HW141533   2.356   2.191   7.510  0.4421  1.5195 -0.7997
12967SOL    HW241534   2.404   2.229   7.648  1.2298 -0.0163 -0.6279
12968SOL     OW41535   2.832  10.353   4.485  0.6162 -0.2806 -0.4325
12968SOL    HW141536   2.795  10.352   4.574  2.0368  0.0046  0.1932
12968SOL    HW241537   2.916  10.309   4.494  2.2365  2.4525 -0.9143
12969SOL     OW41538   0.092   7.293   9.597  0.5973 -0.1900  0.4369
12969SOL    HW141539   0.115   7.216   9.649  1.7765 -1.3068 -1.5890
12969SOL    HW241540   0.021   7.263   9.541  3.3516 -1.1738 -2.9548
12970SOL     OW41541   8.507   4.427   0.638  0.8312  0.1675  0.0136
12970SOL    HW141542   8.476   4.398   0.552  2.1472  0.1876 -0.4858
12970SOL    HW241543   8.526   4.346   0.685  0.8568  0.1695  0.0064
12971SOL     OW41544   4.904   0.091   1.715 -0.1062 -0.2419 -0.1304
12971SOL    HW141545   4.824   0.103   1.766  0.0647 -1.8712  0.6049
12971SOL    HW241546   4.968   0.151   1.754 -0.4137 -0.3738  0.5964
12972SOL     OW41547   6.663   4.333   7.414  0.3362  0.1556 -0.4324
12972SOL    HW141548   6.631   4.422   7.427  0.2834  0.3166 -1.6047
12972SOL    HW241549   6.585   4.277   7.421  0.1988  0.3048 -0.7762
12973SOL     OW41550   8.544   7.715   2.407  0.0566 -0.0400 -0.0647
12973SOL    HW141551   8.608   7.779   2.440  0.7463 -0.1744 -1.0694
12973SOL    HW241552   8.580   7.688   2.322  0.5083 -2.8157  0.9144
12974SOL     OW41553   7.861   0.356   0.450 -0.3836  0.0387  0.3131
12974SOL    HW141554   7.787   0.296   0.449  0.3690 -0.9021 -0.7948
12974SOL    HW241555   7.910   0.332   0.529 -0.3259 -0.5063  0.1139
12975SOL     OW41556   3.791   7.987   2.432  0.1306  0.5938 -0.3882
12975SOL    HW141557   3.767   7.900   2.398  0.1767  0.0570  0.9087
12975SOL    HW241558   3.883   7.997   2.406  0.3079 -0.0174 -0.0221
12976SOL     OW41559   5.346   2.511   6.822  0.1602  0.4405  0.3257
12976SOL    HW141560   5.427   2.464   6.803 -1.5424 -1.8764 -1.8913
12976SOL    HW241561   5.330   2.565   6.744 -0.1258  1.3708  1.0127
12977SOL     OW41562   7.868   3.662   6.929 -0.1590 -0.3089  0.3511
12977SOL    HW141563   7.928   3.710   6.986  0.0110 -0.0346 -0.0567
12977SOL    HW241564   7.781   3.682   6.963 -0.0349 -0.5517  0.8238
12978SOL     OW41565   6.998   5.259   6.358  0.2831  0.2885 -0.2646
12978SOL    HW141566   7.057   5.210   6.415 -1.2517 -0.2571  0.9083
12978SOL    HW241567   7.014   5.224   6.271  1.6433  0.1176  0.0355
12979SOL     OW41568   1.988   4.029   0.106  0.7437 -0.3183 -0.4321
12979SOL    HW141569   1.956   3.964   0.168  0.9529 -0.1509 -0.1431
12979SOL    HW241570   1.917   4.093   0.099  0.2603 -0.9309 -1.2460
12980SOL     OW41571   2.073   2.005   0.601  0.4352 -0.6052 -0.0949
12980SOL    HW141572   2.051   2.072   0.536  1.6643 -1.5724 -1.5708
12980SOL    HW241573   2.029   1.926   0.569  1.8303 -1.3213 -0.3056
12981SOL     OW41574   5.738   5.622   9.912 -0.4897 -0.1840 -0.2555
12981SOL    HW141575   5.698   5.535   9.907 -0.1688 -0.3673  0.2992
12981SOL    HW241576   5.750   5.648   9.821  0.5463 -1.2565 -0.4538
12982SOL     OW41577   2.178   3.089   7.193  0.3363 -0.2174 -0.2677
12982SOL    HW141578   2.177   3.031   7.117  0.5076 -0.9368  0.2724
12982SOL    HW241579   2.155   3.033   7.266 -0.6816  0.6510  0.0999
12983SOL     OW41580   3.923   8.077   9.567  0.2231 -0.3395 -0.1380
12983SOL    HW141581   3.863   8.013   9.605  1.4333 -0.8962  0.8771
12983SOL    HW241582   4.010   8.046   9.590  0.8566  1.8894  0.7849
12984SOL     OW41583   7.838   7.749   6.886  0.3075  0.1170  0.2625
12984SOL    HW141584   7.796   7.711   6.809 -0.7724 -1.3526  1.5082
12984SOL    HW241585   7.811   7.841   6.885  1.5910  0.5359 -1.9005
12985SOL     OW41586   8.851   5.842   5.838 -0.0749  0.7939  0.5233
12985SOL    HW141587   8.883   5.864   5.751 -0.5860  1.9508  0.6066
12985SOL    HW241588   8.930   5.830   5.890  0.2911 -1.8955 -0.5129
12986SOL     OW41589   1.368   5.881   8.916  0.0782  0.1477 -0.0333
12986SOL    HW141590   1.312   5.956   8.937  0.6431  0.6466 -0.3000
12986SOL    HW241591   1.456   5.916   8.914  0.4834 -0.7595  0.9817
12987SOL     OW41592   7.195   7.497   0.618 -0.4840  0.5187 -0.6170
12987SOL    HW141593   7.104   7.522   0.633 -0.2182  0.8522  0.5417
12987SOL    HW241594   7.209   7.424   0.678 -0.2369 -0.1272 -1.4443
12988SOL     OW41595   8.804   5.869   0.674 -0.8619  0.2111  0.7512
12988SOL    HW141596   8.764   5.794   0.717  0.6161 -1.5145 -0.7640
12988SOL    HW241597   8.865   5.904   0.739  0.0003 -1.2429  0.7665
12989SOL     OW41598   5.421   3.968   6.142 -0.1604  0.2934  0.2907
12989SOL    HW141599   5.397   3.882   6.177  0.4027  0.0771  0.1634
12989SOL    HW241600   5.362   3.981   6.067 -2.0201  1.1785  1.8453
12990SOL     OW41601   0.663   1.253   9.934  0.0204  0.4667  0.2795
12990SOL    HW141602   0.722   1.239  10.008  1.6701  0.3289 -0.9847
12990SOL    HW241603   0.654   1.167   9.894 -2.6364  0.0705  1.4841
12991SOL     OW41604   3.712   0.023   9.596  0.1132 -0.2343  0.2547
12991SOL    HW141605   3.740   0.075   9.520 -1.3826  0.6592  0.2671
12991SOL    HW241606   3.734   0.078   9.672  2.1832 -1.3967  0.5493
12992SOL     OW41607   4.607   9.055   5.232 -0.7286  0.1180  0.1115
12992SOL    HW141608   4.674   9.123   5.232  1.5814 -2.0272  0.1297
12992SOL    HW241609   4.607   9.020   5.321 -1.9077  0.0878  0.1200
12993SOL     OW41610   7.263   0.874   0.914  0.3127 -0.2714  0.4976
12993SOL    HW141611   7.322   0.879   0.990  2.2611  0.6881 -0.9706
12993SOL    HW241612   7.238   0.964   0.897  1.0277 -0.2877 -0.7864
12994SOL     OW41613   4.735   3.751   9.636 -0.1516 -0.6928  0.2499
12994SOL    HW141614   4.670   3.713   9.577 -1.8293 -1.2047  2.3054
12994SOL    HW241615   4.700   3.735   9.724  1.5658  1.2199  1.3640
12995SOL     OW41616   7.700   4.132   0.166  0.1624  0.0617 -0.1307
12995SOL    HW141617   7.749   4.059   0.205 -1.8479 -0.7803  0.9795
12995SOL    HW241618   7.609   4.113   0.187 -0.9765  0.3278 -4.0072
12996SOL     OW41619   3.084   3.900   9.278  0.5792  0.0344  0.4839
12996SOL    HW141620   3.133   3.823   9.248  1.8384  0.4020  1.4690
12996SOL    HW241621   2.992   3.876   9.268  0.9512 -1.0873 -0.4635
12997SOL     OW41622   8.718   6.909   5.461 -0.6955  0.4917  0.2853
12997SOL    HW141623   8.631   6.947   5.461 -1.0898 -0.3889 -0.0370
12997SOL    HW241624   8.752   6.927   5.548 -2.1709 -1.3118  1.2917
12998SOL     OW41625   4.350   7.067   9.354 -0.2496 -0.1898  0.3259
12998SOL    HW141626   4.432   7.050   9.309 -1.5958 -1.1319 -1.9766
12998SOL    HW241627   4.314   7.144   9.309  0.0363  1.2071  2.3494
12999SOL     OW41628   9.852   7.663   3.521  0.8459  0.1335 -0.2160
12999SOL    HW141629   9.800   7.742   3.503 -1.3791 -0.7085  1.9234
12999SOL    HW241630   9.804   7.593   3.478  2.2663 -0.2045 -1.2680
13000SOL     OW41631   3.822   2.738   8.085 -0.0639 -0.1315  0.1729
13000SOL    HW141632   3.862   2.796   8.019 -0.0171 -0.7767 -0.3736
13000SOL    HW241633   3.829   2.650   8.047  0.2223 -0.5481  1.1772
13001SOL     OW41634   0.532   1.419   2.543 -0.8583  0.1935 -0.0552
13001SOL    HW141635   0.562   1.370   2.467 -2.3226 -1.4647  0.3527
13001SOL    HW241636   0.605   1.476   2.567  1.6609 -2.9854  0.4133
13002SOL     OW41637   9.660   1.564  10.198  0.2105  0.2528  0.0420
13002SOL    HW141638   9.622   1.633  10.252 -0.8373 -1.2660  1.3387
13002SOL    HW241639   9.584   1.513  10.168  0.8429  0.5067 -2.1395
13003SOL     OW41640   7.212   1.767   1.419  0.1333  0.4612 -0.1781
13003SOL    HW141641   7.272   1.743   1.347 -0.1553  0.0054 -0.2748
13003SOL    HW241642   7.234   1.705   1.489  0.0049  0.5162 -0.0900
13004SOL     OW41643   3.881   4.388   2.514  0.0211  0.3530  0.0994
13004SOL    HW141644   3.816   4.319   2.501 -1.1413  1.4381  0.0187
13004SOL    HW241645   3.905   4.382   2.606  0.7814 -0.8735 -0.1552
13005SOL     OW41646   4.362   6.936   5.536  0.2896  0.2378 -0.0068
13005SOL    HW141647   4.364   7.001   5.606  1.8666 -1.6341  1.7971
13005SOL    HW241648   4.283   6.885   5.553  1.2869 -0.9515  1.1541
13006SOL     OW41649   0.346   5.983   8.999 -0.8636  0.1458 -0.2167
13006SOL    HW141650   0.387   5.897   9.008 -3.0650 -1.1957 -2.0928
13006SOL    HW241651   0.420   6.043   8.982  0.6795 -1.3740  0.8276
13007SOL     OW41652   2.155   3.200   1.194 -0.4965  0.1870  0.0578
13007SOL    HW141653   2.214   3.128   1.215 -1.2330 -0.3398  0.3776
13007SOL    HW241654   2.125   3.232   1.279 -2.2354 -0.8872 -0.1067
13008SOL     OW41655   5.844   9.620   2.153 -0.4470 -0.4303  0.5761
13008SOL    HW141656   5.810   9.671   2.227  1.9997  0.3046  1.2740
13008SOL    HW241657   5.859   9.533   2.189  0.5238 -0.1355  0.9067
13009SOL     OW41658   8.960   3.531   4.894 -0.2706 -0.1552 -0.5736
13009SOL    HW141659   8.915   3.462   4.844 -1.1035 -0.6066  0.7355
13009SOL    HW241660   8.893   3.598   4.907 -0.2148 -0.2564  0.3102
13010SOL     OW41661  10.167   6.814   2.989  0.2240 -0.6516 -0.1556
13010SOL    HW141662  10.241   6.872   3.012 -0.8930  1.1089 -0.7627
13010SOL    HW241663  10.200   6.761   2.917  0.8671  0.1959 -0.5021
13011SOL     OW41664   0.093   1.172   5.352 -0.0140  0.4174  0.1174
13011SOL    HW141665   0.180   1.201   5.379  0.2934 -0.1995 -0.1679
13011SOL    HW241666   0.080   1.213   5.266  1.2193 -1.6765 -1.1795
13012SOL     OW41667   9.381   0.311   9.902  0.4858 -0.3465  0.4188
13012SOL    HW141668   9.472   0.283   9.891 -0.1844 -2.9919  0.9272
13012SOL    HW241669   9.361   0.293   9.994 -0.7340 -0.4440  0.1587
13013SOL     OW41670   3.611   4.982   7.774 -0.9661 -0.0225  0.2582
13013SOL    HW141671   3.669   4.971   7.849 -0.9665  1.2022  0.4498
13013SOL    HW241672   3.659   4.943   7.700  0.3879  1.5348  0.2872
13014SOL     OW41673   1.584   5.222   0.992 -0.1198 -0.1657  0.1805
13014SOL    HW141674   1.604   5.157   0.924  0.7805  1.6976 -1.4545
13014SOL    HW241675   1.637   5.298   0.968  0.6688  0.3979  3.3514
13015SOL     OW41676   4.079   4.277   0.427  0.1699  0.4826  0.6754
13015SOL    HW141677   4.137   4.332   0.374  0.4022 -0.6063 -0.2397
13015SOL    HW241678   4.026   4.230   0.364 -0.3670  0.0165  1.4565
13016SOL     OW41679   3.687   3.416   8.488 -0.3610  0.0098  0.1384
13016SOL    HW141680   3.708   3.509   8.500  0.4463  0.0563 -1.3938
13016SOL    HW241681   3.607   3.416   8.436 -0.6253 -0.1720  0.5344
13017SOL     OW41682   9.854   2.989   8.745  0.3703 -0.1846  0.6781
13017SOL    HW141683   9.882   3.043   8.671  1.4896  2.7118  2.9823
13017SOL    HW241684   9.760   3.006   8.754  0.3299 -0.1655  0.2245
13018SOL     OW41685   9.332   2.427   4.640 -0.3302  0.0477 -0.0132
13018SOL    HW141686   9.317   2.345   4.686  0.2234 -0.0313  0.0299
13018SOL    HW241687   9.426   2.428   4.621  0.0106  1.4066  1.4322
13019SOL     OW41688   2.865   7.397   1.027 -0.0381  0.2982 -0.0303
13019SOL    HW141689   2.829   7.433   0.946 -0.9070 -1.2713 -0.3815
13019SOL    HW241690   2.959   7.418   1.023 -0.6263  3.4882  0.3677
13020SOL     OW41691   5.955   9.173   5.408  0.1161 -0.5091  0.1350
13020SOL    HW141692   5.973   9.092   5.361  2.5593 -0.3787  0.7273
13020SOL    HW241693   5.911   9.229   5.344 -0.8555 -1.9563 -0.5268
13021SOL     OW41694   2.543   1.344   4.860 -0.0408 -0.5645  0.0893
13021SOL    HW141695   2.550   1.273   4.924  0.6936  0.0822  0.7446
13021SOL    HW241696   2.631   1.382   4.856 -0.2697 -0.0940 -0.7213
13022SOL     OW41697   5.720   2.334   4.734 -0.0221  0.0172 -0.9329
13022SOL    HW141698   5.754   2.244   4.738 -1.0051 -0.3306  1.0698
13022SOL    HW241699   5.644   2.329   4.677  1.2928  0.1123 -2.7657
13023SOL     OW41700   8.540   1.297   5.579 -0.1743  0.0245  0.3930
13023SOL    HW141701   8.489   1.311   5.499  1.0461 -1.0323 -0.6117
13023SOL    HW241702   8.474   1.277   5.646 -1.2418  1.3225 -0.2210
13024SOL     OW41703   7.292   4.839   6.562 -0.1409  0.4393  0.4075
13024SOL    HW141704   7.199   4.817   6.553 -0.8205  3.3078 -0.6552
13024SOL    HW241705   7.299   4.927   6.526  2.9888  0.3955  0.6787
13025SOL     OW41706   1.475   7.639   7.735  0.1365  0.5624 -1.1999
13025SOL    HW141707   1.385   7.607   7.731  0.1643  0.6118 -2.5502
13025SOL    HW241708   1.475   7.700   7.809 -0.7555  0.0340 -0.7469
13026SOL     OW41709   7.846   1.786   3.354  0.4718  0.3521 -0.4423
13026SOL    HW141710   7.883   1.871   3.379 -0.1763  0.1615  1.3567
13026SOL    HW241711   7.849   1.785   3.259  2.1484  1.6415 -0.4484
13027SOL     OW41712   7.152   3.591   3.363  0.8581 -0.1466  0.4685
13027SOL    HW141713   7.095   3.667   3.348  1.6253 -0.0219 -2.4135
13027SOL    HW241714   7.183   3.601   3.453 -1.5377  1.2078  1.2193
13028SOL     OW41715   1.559   6.695   1.859  0.1911  0.0636  0.3328
13028SOL    HW141716   1.567   6.687   1.954  1.2125  0.9081  0.3412
13028SOL    HW241717   1.476   6.741   1.846  0.0474 -0.0526  0.8170
13029SOL     OW41718   7.563   5.886   0.601 -0.2155  0.0883  0.3622
13029SOL    HW141719   7.499   5.843   0.657  0.4372  0.3209  1.3067
13029SOL    HW241720   7.543   5.979   0.608  0.3300  0.1755  0.8002
13030SOL     OW41721   7.212   2.036   1.337  0.5428  0.6285 -0.6671
13030SOL    HW141722   7.195   2.076   1.422  1.5288 -0.4402  0.0577
13030SOL    HW241723   7.192   1.943   1.349 -0.3609  0.6292 -1.9256
13031SOL     OW41724   4.402   9.355   0.096  0.2958  0.0289 -0.5921
13031SOL    HW141725   4.412   9.302   0.017  0.9762  0.3115 -0.7008
13031SOL    HW241726   4.326   9.410   0.079  1.3730  1.2288 -1.7088
13032SOL     OW41727   6.195   6.106   5.483 -0.0537  0.4577  0.0403
13032SOL    HW141728   6.252   6.180   5.462  0.5461 -0.5144 -2.0185
13032SOL    HW241729   6.134   6.102   5.409 -2.3742  1.0184  1.8271
13033SOL     OW41730   1.415   3.441   2.806  0.1348  0.5227 -0.2052
13033SOL    HW141731   1.455   3.419   2.891 -3.1451 -1.3855  1.0368
13033SOL    HW241732   1.363   3.519   2.824 -2.4989 -1.2423  0.3465
13034SOL     OW41733   1.667   2.445   8.234 -0.0850  0.0947 -0.0454
13034SOL    HW141734   1.595   2.474   8.179 -1.1284 -1.2320  0.5576
13034SOL    HW241735   1.682   2.518   8.294 -1.5701  0.0771  0.4039
13035SOL     OW41736   4.145   1.885   2.101  0.0003  0.1837  0.0803
13035SOL    HW141737   4.238   1.899   2.121 -0.2654  2.2609  0.0290
13035SOL    HW241738   4.109   1.846   2.181  0.5648  1.0463  0.7738
13036SOL     OW41739   9.608   4.970   4.138 -0.4823 -0.5549  0.2195
13036SOL    HW141740   9.630   4.973   4.045  1.8473 -0.4977  0.7030
13036SOL    HW241741   9.603   5.062   4.165 -2.9190 -0.5133 -0.1506
13037SOL     OW41742   0.372   1.625   0.818 -1.0001  0.1324  0.0644
13037SOL    HW141743   0.310   1.590   0.882 -0.1996  1.2528  1.5214
13037SOL    HW241744   0.451   1.572   0.830 -0.3924  1.2121  1.0056
13038SOL     OW41745   3.718   7.137   9.272  0.1261 -0.2096  0.4697
13038SOL    HW141746   3.623   7.135   9.278 -0.0038 -5.1408  0.3757
13038SOL    HW241747   3.736   7.145   9.179 -0.2786 -1.4208  0.2804
13039SOL     OW41748   2.575   4.390   4.760  0.1123 -0.4856 -0.6332
13039SOL    HW141749   2.584   4.432   4.845  0.1686  1.9838 -1.7730
13039SOL    HW241750   2.481   4.393   4.742 -0.1250 -2.5308  0.0001
13040SOL     OW41751   8.083   4.876   1.429  0.0692  0.5471  0.1636
13040SOL    HW141752   8.172   4.850   1.453  0.9876  1.4888 -1.9516
13040SOL    HW241753   8.056   4.936   1.499  1.5683  1.1397  0.2788
13041SOL     OW41754   2.569   6.993   1.398 -0.2204 -0.2523  0.0203
13041SOL    HW141755   2.527   6.907   1.407  1.0355 -0.8976  0.0164
13041SOL    HW241756   2.501   7.056   1.421 -0.5867 -1.3349  2.0812
13042SOL     OW41757   0.506   2.649   3.376  0.1469 -0.7644  0.2776
13042SOL    HW141758   0.463   2.734   3.386 -0.1172 -0.6167 -1.6205
13042SOL    HW241759   0.590   2.669   3.334  0.4430 -1.3629  0.5766
13043SOL     OW41760   9.199   9.490  10.237  0.3396 -0.2745 -0.2379
13043SOL    HW141761   9.256   9.554  10.280  0.3435 -0.6407  0.3081
13043SOL    HW241762   9.143   9.543  10.180 -1.3207  0.5056  2.0096
13044SOL     OW41763   7.092   8.619   7.922 -0.4849 -0.0664  0.4642
13044SOL    HW141764   7.031   8.653   7.857  0.6682  1.1219 -0.0613
13044SOL    HW241765   7.037   8.578   7.989 -1.7182 -1.1832 -1.1532
13045SOL     OW41766   2.252   5.237   8.839  0.4447 -0.1187 -0.4161
13045SOL    HW141767   2.192   5.309   8.820  0.2441  0.5329  2.2880
13045SOL    HW241768   2.332   5.259   8.792  0.0093  1.2844 -0.5271
13046SOL     OW41769   9.476   6.285   0.147 -0.0256  0.6857 -0.5522
13046SOL    HW141770   9.460   6.369   0.105  2.9115  0.9084 -1.4749
13046SOL    HW241771   9.550   6.301   0.206 -0.1336 -1.0011  0.1118
13047SOL     OW41772   2.376   1.091   7.249  0.5286  0.0680 -0.0016
13047SOL    HW141773   2.344   1.109   7.160  1.9130 -0.3513 -0.6106
13047SOL    HW241774   2.366   0.996   7.258  0.5947  0.0813  0.2068
13048SOL     OW41775   1.078   9.713   9.732  0.0542  0.1928 -0.0048
13048SOL    HW141776   1.024   9.695   9.654 -2.0604  1.3596  1.1077
13048SOL    HW241777   1.129   9.791   9.708 -0.2707  0.3026 -0.3519
13049SOL     OW41778   9.013   8.517   1.802  0.2833 -0.1310 -0.1418
13049SOL    HW141779   8.935   8.498   1.750 -0.1266  0.0835  0.3834
13049SOL    HW241780   9.049   8.431   1.825 -0.1048 -0.2367  0.0669
13050SOL     OW41781   2.666   8.341   5.804  0.3746  0.2255  0.1369
13050SOL    HW141782   2.746   8.363   5.851  0.4508 -0.2746  0.2509
13050SOL    HW241783   2.696   8.311   5.718  0.1562  2.6286 -0.8441
13051SOL     OW41784   8.465   2.229   2.883  0.1819 -0.7055  0.0411
13051SOL    HW141785   8.557   2.237   2.909 -0.1349 -2.5293  2.0069
13051SOL    HW241786   8.435   2.148   2.924 -1.4688 -1.9409 -3.2669
13052SOL     OW41787   8.768   8.677   3.806 -0.0200  0.1451  0.4642
13052SOL    HW141788   8.803   8.746   3.749 -0.0394  0.9460  1.3840
13052SOL    HW241789   8.822   8.600   3.786 -1.6262 -0.3511 -2.4035
13053SOL     OW41790   4.882   9.433   1.349  0.5686 -0.5984  0.5890
13053SOL    HW141791   4.890   9.373   1.423 -0.6972 -0.5148  0.8246
13053SOL    HW241792   4.846   9.513   1.387  0.6183 -0.2926  0.0008
13054SOL     OW41793   3.596   3.270   5.368 -0.1921 -0.2411 -0.1621
13054SOL    HW141794   3.606   3.361   5.341  0.5660  0.4235  2.1637
13054SOL    HW241795   3.686   3.240   5.385 -0.2780 -1.9142 -2.1968
13055SOL     OW41796   4.648   1.414   4.686 -0.2878 -0.1267 -0.3562
13055SOL    HW141797   4.696   1.339   4.652 -1.3341 -2.0395  2.1167
13055SOL    HW241798   4.710   1.487   4.681  1.8927 -1.8624  0.1607
13056SOL     OW41799   6.018   3.482   6.120 -0.2189 -0.1416 -0.0257
13056SOL    HW141800   6.074   3.540   6.068 -0.5293  0.6740  0.5229
13056SOL    HW241801   5.930   3.518   6.110 -0.4918 -0.8002 -0.0496
13057SOL     OW41802   9.099   4.037   5.278  0.2185  0.2408  0.5681
13057SOL    HW141803   9.142   4.122   5.281  3.3864 -1.2436  1.0915
13057SOL    HW241804   9.158   3.981   5.227 -0.5773 -2.1860  2.1010
13058SOL     OW41805   7.254   0.537   7.721 -0.1437 -0.2728 -0.2645
13058SOL    HW141806   7.347   0.550   7.740 -0.0162 -0.9657 -0.3653
13058SOL    HW241807   7.224   0.479   7.791 -0.9054  1.2349  0.7123
13059SOL     OW41808   8.810   9.201   1.659  0.4898  0.0639 -0.3748
13059SOL    HW141809   8.794   9.272   1.597 -0.0785 -0.2833 -0.6431
13059SOL    HW241810   8.886   9.155   1.624  1.2092  0.8694  0.1082
13060SOL     OW41811   3.895   3.441   7.872 -0.1232 -0.5588 -0.0166
13060SOL    HW141812   3.882   3.488   7.790 -1.7626 -2.4402 -0.9050
13060SOL    HW241813   3.988   3.455   7.892 -0.4029  2.5999 -0.4269
13061SOL     OW41814   2.783   9.498   8.950  0.1417 -0.5110  0.5027
13061SOL    HW141815   2.743   9.582   8.973  1.0685 -0.4599  2.0966
13061SOL    HW241816   2.874   9.519   8.932 -0.0759 -0.8946 -1.2446
13062SOL     OW41817   1.742   2.493   3.979 -0.2508 -0.2109 -0.1157
13062SOL    HW141818   1.720   2.400   3.987 -0.9644 -0.2309 -1.8186
13062SOL    HW241819   1.693   2.523   3.902  2.3985  0.8057 -1.5438
13063SOL     OW41820   5.948   8.961   9.838 -0.0490 -0.1605 -0.4397
13063SOL    HW141821   6.002   8.906   9.782 -0.6955  0.3920 -1.6463
13063SOL    HW241822   5.858   8.938   9.815 -0.3290  0.5213 -0.0678
13064SOL     OW41823   6.386   7.231   4.659  0.1021  0.2850  0.3530
13064SOL    HW141824   6.320   7.200   4.596 -0.0909  1.5186 -0.1021
13064SOL    HW241825   6.388   7.326   4.645 -0.3083  0.6715  2.5622
13065SOL     OW41826   2.502   0.969   6.017  0.1897  0.1817 -0.1580
13065SOL    HW141827   2.460   1.054   6.026 -0.8604  0.0515 -2.9142
13065SOL    HW241828   2.434   0.905   6.039  0.9345 -0.0060  1.7704
13066SOL     OW41829   9.443   5.568   3.492  0.3263  0.5559  0.4371
13066SOL    HW141830   9.409   5.587   3.404  1.3662 -1.1222 -0.3887
13066SOL    HW241831   9.495   5.645   3.515  0.0741  0.9996 -0.4312
13067SOL     OW41832   7.726   1.306   0.448 -0.1599  0.1674 -0.2533
13067SOL    HW141833   7.734   1.285   0.541  0.9161 -0.9345 -0.5675
13067SOL    HW241834   7.722   1.221   0.404 -0.0661  0.6633 -1.2672
13068SOL     OW41835   7.954   2.771   7.296  0.4393  0.5699  0.4786
13068SOL    HW141836   7.938   2.837   7.228 -1.0206  0.4500  0.6718
13068SOL    HW241837   7.919   2.690   7.258 -1.7032  0.7674  1.8654
13069SOL     OW41838   1.603   6.289   6.997  0.1756 -0.6753  0.0222
13069SOL    HW141839   1.693   6.268   7.025  0.6430 -1.2279 -1.8005
13069SOL    HW241840   1.551   6.216   7.030  0.7587 -1.4436 -0.6967
13070SOL     OW41841   4.019   5.306   9.954  0.5943  0.4671 -0.3658
13070SOL    HW141842   3.953   5.276   9.891  0.3212  0.5575 -0.1251
13070SOL    HW241843   4.088   5.344   9.900 -1.0054  3.3995 -0.5365
13071SOL     OW41844   4.287   4.727   8.576 -0.4047  0.1192  0.1701
13071SOL    HW141845   4.368   4.676   8.573 -0.0557  0.2035  3.7746
13071SOL    HW241846   4.224   4.668   8.619 -1.8524  0.6094 -1.1944
13072SOL     OW41847  10.121   9.503   6.230  0.4618  0.3870  0.4656
13072SOL    HW141848  10.028   9.483   6.217 -0.2134  2.8112  1.0797
13072SOL    HW241849  10.141   9.570   6.165  1.6578  0.2128  0.6401
13073SOL     OW41850   8.668   6.656   6.997 -0.5162 -0.4114  0.5375
13073SOL    HW141851   8.761   6.641   7.015 -0.2330  0.4680 -0.1381
13073SOL    HW241852   8.627   6.662   7.084  0.0277 -0.9209  0.8374
13074SOL     OW41853   9.400   6.244   5.028 -0.0920 -0.0245  0.0290
13074SOL    HW141854   9.440   6.331   5.035  1.6865 -0.8413  0.9681
13074SOL    HW241855   9.407   6.208   5.117 -3.0412 -0.2544  0.2605
13075SOL     OW41856   2.269   1.837   0.208 -0.6498  0.2970 -0.4344
13075SOL    HW141857   2.261   1.751   0.250  0.7727  0.3654  0.0201
13075SOL    HW241858   2.314   1.892   0.272 -0.7134  1.1271 -1.0809
13076SOL     OW41859  10.124   5.266   2.430 -0.5511 -0.0601  0.0022
13076SOL    HW141860  10.141   5.213   2.352 -1.1495  0.8635 -0.7837
13076SOL    HW241861  10.202   5.254   2.485 -0.4420 -1.3007 -0.3976
13077SOL     OW41862   1.625   4.937   7.009 -0.1314 -0.0428 -0.7898
13077SOL    HW141863   1.609   4.851   7.047  1.9371 -0.3986 -0.6501
13077SOL    HW241864   1.665   4.988   7.079  2.4931 -0.3028 -1.9807
13078SOL     OW41865   4.463   8.258   7.847 -0.5488 -0.0399 -0.1846
13078SOL    HW141866   4.486   8.236   7.937  1.5368  0.1305 -0.6161
13078SOL    HW241867   4.459   8.173   7.802 -0.9843 -0.0860 -0.0574
13079SOL     OW41868   5.254   5.626   0.900  0.2860  0.4270 -0.1757
13079SOL    HW141869   5.243   5.709   0.854  1.9335  0.5564 -0.3953
13079SOL    HW241870   5.321   5.644   0.967  1.7031 -1.0292 -1.1115
13080SOL     OW41871   4.795   5.818   1.888  0.1533  0.3609 -0.4057
13080SOL    HW141872   4.801   5.731   1.927 -0.3186  0.5876  0.1793
13080SOL    HW241873   4.842   5.875   1.948  0.5148  0.5037 -0.8207
13081SOL     OW41874  10.150   6.898   5.208  0.0250 -0.3504 -0.1374
13081SOL    HW141875  10.115   6.966   5.266  0.8244 -0.4425  0.4717
13081SOL    HW241876  10.198   6.840   5.266 -0.0630 -1.0546 -0.7569
13082SOL     OW41877   3.344   5.938   2.191  0.5502  0.6008  0.1715
13082SOL    HW141878   3.432   5.929   2.155  1.1894 -0.9783  1.9431
13082SOL    HW241879   3.334   5.862   2.248 -2.1426  0.5023 -0.2897
13083SOL     OW41880   0.232   0.119   3.935 -0.2308  0.2375  0.1472
13083SOL    HW141881   0.316   0.079   3.956  0.0302  0.8653  0.3406
13083SOL    HW241882   0.217   0.182   4.006 -0.0771  1.2892 -0.7257
13084SOL     OW41883   4.794   6.076   8.047  0.0852  0.3289  0.1806
13084SOL    HW141884   4.724   6.076   7.981  0.5520  0.6126 -0.3240
13084SOL    HW241885   4.872   6.047   7.999 -0.1635 -2.4287  1.2606
13085SOL     OW41886   2.865  10.045   8.431  0.2170 -0.1502  0.5014
13085SOL    HW141887   2.861   9.961   8.477  1.1252 -0.3128  0.3010
13085SOL    HW241888   2.819  10.029   8.348  1.7073 -0.9292 -0.2203
13086SOL     OW41889   0.860   7.135   6.505 -0.4397  0.1086  0.2186
13086SOL    HW141890   0.890   7.066   6.565 -0.9292  0.1083  0.4683
13086SOL    HW241891   0.789   7.094   6.455 -0.0961  0.1371 -0.3009
13087SOL     OW41892   9.133   6.610   3.063  0.2373  0.6278 -0.3610
13087SOL    HW141893   9.089   6.692   3.040  0.3011  0.7725  0.0167
13087SOL    HW241894   9.075   6.569   3.127  0.1959  0.3636 -0.5658
13088SOL     OW41895   0.360   8.674   6.873  0.0964  0.1612  0.2800
13088SOL    HW141896   0.327   8.585   6.863 -0.0290  0.1957  0.3782
13088SOL    HW241897   0.325   8.722   6.798  0.2064  0.1156  0.1991
13089SOL     OW41898  10.285   5.389   9.083 -0.0043 -0.0371 -0.2085
13089SOL    HW141899  10.230   5.438   9.144 -0.7969  0.7174 -1.4946
13089SOL    HW241900  10.375   5.407   9.111 -0.3230  1.1673  0.0693
13090SOL     OW41901   4.153   1.526   2.638 -0.5303  0.2403 -0.5546
13090SOL    HW141902   4.063   1.518   2.670 -0.3037 -0.4863 -0.0606
13090SOL    HW241903   4.195   1.444   2.665  0.8926  1.4641  1.2563
13091SOL     OW41904   6.054   7.326   8.019 -0.3309  0.2028  0.4150
13091SOL    HW141905   6.014   7.303   8.103 -0.2918  0.2106  0.4358
13091SOL    HW241906   5.987   7.304   7.954 -0.7539  1.1195  0.5211
13092SOL     OW41907   0.118   6.954   0.211  0.2632  0.1152 -0.5711
13092SOL    HW141908   0.104   6.871   0.164  0.1477  0.4381 -1.1117
13092SOL    HW241909   0.032   6.977   0.244  0.2945  0.0243 -0.4241
13093SOL     OW41910   8.727   2.572   2.917  0.2872 -0.4259 -0.6470
13093SOL    HW141911   8.694   2.642   2.860 -0.1143 -0.7079 -0.7614
13093SOL    HW241912   8.810   2.606   2.950 -1.5116  1.6504  2.1448
13094SOL     OW41913   0.175   3.078   1.249  0.0341  0.2325  0.1765
13094SOL    HW141914   0.137   3.025   1.318 -1.6812  2.1387  0.7948
13094SOL    HW241915   0.215   3.152   1.295 -0.0139  0.8787 -0.7847
13095SOL     OW41916   9.865   8.787   0.710 -0.2068 -0.3268 -0.2324
13095SOL    HW141917   9.828   8.791   0.622  0.3347 -2.3971 -0.5955
13095SOL    HW241918   9.800   8.832   0.765 -0.6701  0.7691 -1.6106
13096SOL     OW41919  10.357   2.533   3.941  0.0822  0.2836 -0.2315
13096SOL    HW141920  10.425   2.489   3.992 -1.0718  0.0482  1.1558
13096SOL    HW241921  10.279   2.529   3.996 -0.4858  2.6130 -0.7587
13097SOL     OW41922   4.438   0.755   9.304  0.6634  0.0976  0.0958
13097SOL    HW141923   4.369   0.818   9.321  1.7406  1.2648  0.3193
13097SOL    HW241924   4.393   0.677   9.272 -0.6683  1.1478 -0.6692
13098SOL     OW41925   5.329   8.674   7.801 -0.3027 -0.2962 -0.1436
13098SOL    HW141926   5.375   8.685   7.884 -0.3392 -0.2603 -0.1280
13098SOL    HW241927   5.334   8.761   7.760  0.9537 -0.6577 -0.8158
13099SOL     OW41928   0.277   7.677   4.735  0.8128  0.2156  0.5705
13099SOL    HW141929   0.346   7.611   4.733 -0.5116 -1.2162 -0.6754
13099SOL    HW241930   0.196   7.626   4.743 -0.1838  1.7698  0.7580
13100SOL     OW41931   5.748   0.447   0.386 -0.0761 -0.4646 -0.9166
13100SOL    HW141932   5.659   0.412   0.383 -0.2265 -0.0597 -3.4282
13100SOL    HW241933   5.738   0.533   0.427 -0.7221 -0.7292 -0.4959
13101SOL     OW41934   6.380   2.109   8.664  0.1823 -0.2398  0.4300
13101SOL    HW141935   6.436   2.037   8.694  3.6548  0.9238 -2.5301
13101SOL    HW241936   6.349   2.082   8.578  1.7381  1.7221 -0.8406
13102SOL     OW41937   6.653   2.472   2.652  0.6940 -0.0697  0.0267
13102SOL    HW141938   6.624   2.403   2.593 -0.1370 -0.1868  0.5708
13102SOL    HW241939   6.654   2.551   2.597  1.6363 -0.4876 -0.5898
13103SOL     OW41940   7.940   7.302   1.880 -0.0187  0.1594 -0.3192
13103SOL    HW141941   7.858   7.330   1.921 -0.5079  0.1287 -1.2607
13103SOL    HW241942   7.955   7.365   1.810  0.6706  0.0590 -0.2659
13104SOL     OW41943   2.909   7.873   1.771  0.2464  0.2496  0.0011
13104SOL    HW141944   2.835   7.932   1.758 -0.0194  0.2660  1.4379
13104SOL    HW241945   2.939   7.853   1.682 -1.0297  0.7966 -0.5876
13105SOL     OW41946   5.587   5.531   1.834  0.0645  0.1485 -0.5927
13105SOL    HW141947   5.603   5.617   1.873 -0.9626 -0.0275  0.2807
13105SOL    HW241948   5.645   5.472   1.882  0.5620  0.3113 -0.9954
13106SOL     OW41949   0.546   4.303   3.537  0.5262 -0.5099 -0.1740
13106SOL    HW141950   0.547   4.347   3.623 -0.8808  2.1819 -1.4082
13106SOL    HW241951   0.636   4.314   3.505  0.9462 -1.1393  0.7382
13107SOL     OW41952   7.799   8.464   6.075 -0.3711 -0.7982  0.2476
13107SOL    HW141953   7.774   8.448   5.984  0.0505  2.0674 -0.4725
13107SOL    HW241954   7.871   8.527   6.070 -2.0838  1.5889  2.5582
13108SOL     OW41955   5.287   5.461   9.642 -0.7912 -0.1880  0.1505
13108SOL    HW141956   5.362   5.511   9.676 -1.6347  0.5050  1.0447
13108SOL    HW241957   5.325   5.404   9.575  1.0142 -1.8727  2.4440
13109SOL     OW41958   5.018  10.343   2.273  0.4516 -0.4599  0.5019
13109SOL    HW141959   4.943  10.320   2.329  0.2758 -1.1620 -0.0137
13109SOL    HW241960   5.073  10.265   2.273 -0.3404 -1.0903 -1.5812
13110SOL     OW41961   5.908   4.399   1.725 -0.5379 -0.1916  0.8581
13110SOL    HW141962   5.839   4.336   1.704 -1.3578  0.2999  2.0150
13110SOL    HW241963   5.886   4.431   1.812  1.3966 -0.3301  1.4420
13111SOL     OW41964   9.841   3.062   3.367  0.3389  0.7007  0.2658
13111SOL    HW141965   9.923   3.083   3.411  0.9625 -0.7849 -0.1449
13111SOL    HW241966   9.774   3.104   3.421  1.0487 -1.2446  2.8059
13112SOL     OW41967   3.839   0.670   0.047 -0.4176  0.0668  0.3884
13112SOL    HW141968   3.885   0.678  -0.036 -0.0378  0.2147  0.6060
13112SOL    HW241969   3.759   0.721   0.037  0.7737  2.1609  0.9222
13113SOL     OW41970   2.633   1.748   4.227  0.0097  0.0740  0.2938
13113SOL    HW141971   2.610   1.816   4.290  0.8284 -1.7578  2.7526
13113SOL    HW241972   2.591   1.669   4.261  0.6509 -1.0501 -1.3949
13114SOL     OW41973   7.318   4.139   1.068 -0.1858  0.6999 -0.3524
13114SOL    HW141974   7.330   4.229   1.037  0.7951  0.2571 -1.2950
13114SOL    HW241975   7.254   4.102   1.007 -0.0271  0.5343 -0.4164
13115SOL     OW41976   0.976   6.420   9.805 -0.5717  0.2344  0.3549
13115SOL    HW141977   0.945   6.409   9.715 -1.3952 -2.9085  0.9213
13115SOL    HW241978   0.918   6.486   9.843  1.4449  3.7155 -2.0190
13116SOL     OW41979   6.524   7.617   1.658 -0.1420  0.8030 -0.1244
13116SOL    HW141980   6.442   7.660   1.684 -1.1046 -1.2470  0.4398
13116SOL    HW241981   6.513   7.527   1.687  1.5811  0.0402 -1.7008
13117SOL     OW41982   0.824   7.792   8.204 -0.3749 -0.2113  0.2998
13117SOL    HW141983   0.901   7.735   8.209  0.7183  0.9650 -1.5389
13117SOL    HW241984   0.770   7.753   8.135  0.1516  0.6380 -0.6328
13118SOL     OW41985   0.796   7.386   8.630 -0.1168  0.4001 -0.2914
13118SOL    HW141986   0.888   7.364   8.615 -0.7164 -1.8257 -1.0926
13118SOL    HW241987   0.756   7.382   8.543 -0.7009  3.1071 -0.2450
13119SOL     OW41988   6.978   5.599   9.594  0.0711 -0.1823  0.4207
13119SOL    HW141989   6.921   5.538   9.642 -0.3243 -2.3770 -2.4924
13119SOL    HW241990   6.922   5.632   9.523  1.6348 -0.2003 -0.8634
13120SOL     OW41991   4.828   0.607   5.780 -0.2150 -0.1559 -0.5674
13120SOL    HW141992   4.841   0.556   5.700  0.4783  0.2623 -0.7320
13120SOL    HW241993   4.902   0.584   5.836 -1.6562 -1.8673  0.7562
13121SOL     OW41994   2.624   9.642   0.115  0.5590  0.4660 -0.0193
13121SOL    HW141995   2.577   9.630   0.033  0.1877  0.3760  0.2027
13121SOL    HW241996   2.697   9.580   0.110 -0.0071 -0.2300  0.1188
13122SOL     OW41997   1.243   8.320   9.144 -0.3360  0.5521 -0.2047
13122SOL    HW141998   1.175   8.292   9.205  0.3495  0.6811  0.6512
13122SOL    HW241999   1.269   8.241   9.098  0.3238  0.0863  0.9054
13123SOL     OW42000   1.218   7.167   2.450 -0.0856  0.6125  0.3742
13123SOL    HW142001   1.142   7.117   2.421 -0.0605 -0.6256  2.2639
13123SOL    HW242002   1.227   7.238   2.385 -2.7788  0.7652  0.0634
13124SOL     OW42003   2.864   1.237   7.708 -0.3553  0.6623  1.1844
13124SOL    HW142004   2.817   1.301   7.653 -1.7791 -1.5304 -0.3111
13124SOL    HW242005   2.796   1.198   7.762 -0.1067 -1.5887 -0.0146
13125SOL     OW42006   2.872   1.184   1.776 -0.0733  0.4496 -1.1815
13125SOL    HW142007   2.796   1.188   1.717 -0.3109  0.3022 -0.8869
13125SOL    HW242008   2.921   1.108   1.744 -0.8181 -0.3551 -0.4626
13126SOL     OW42009  10.003   9.718   4.450  0.2483 -0.0232  0.0162
13126SOL    HW142010   9.978   9.675   4.532  0.8658 -3.0735 -1.2617
13126SOL    HW242011  10.071   9.781   4.476  0.1222 -0.6040  1.8797
13127SOL     OW42012   0.223   9.637   9.263  0.1632  0.1313 -0.2423
13127SOL    HW142013   0.280   9.703   9.303  0.0938 -0.2267  0.4576
13127SOL    HW242014   0.283   9.577   9.219  0.3400 -0.2719  0.5333
13128SOL     OW42015   1.170   0.755   4.504 -0.1178  0.6142  0.0336
13128SOL    HW142016   1.089   0.709   4.483  0.9479 -1.3100 -0.1914
13128SOL    HW242017   1.227   0.738   4.428  0.5498  1.7841  0.2529
13129SOL     OW42018   5.200   4.715   5.630  0.5482  0.1053 -0.0094
13129SOL    HW142019   5.188   4.620   5.630 -0.2833  0.1906  0.4134
13129SOL    HW242020   5.244   4.735   5.548  2.0423 -0.7910  0.5406
13130SOL     OW42021   8.771   1.220   1.560  0.1379 -0.1390  0.0390
13130SOL    HW142022   8.863   1.210   1.584  0.5889  0.0667 -1.5134
13130SOL    HW242023   8.723   1.196   1.639  1.5108 -0.7129  0.7289
13131SOL     OW42024   7.348   9.281   8.196 -0.3366 -0.2171 -0.1415
13131SOL    HW142025   7.310   9.368   8.204 -1.0228 -0.4859 -0.3789
13131SOL    HW242026   7.297   9.227   8.257  1.0917 -0.1491  1.2029
13132SOL     OW42027   1.722   6.856   5.647  0.4033 -0.6918  0.1182
13132SOL    HW142028   1.813   6.828   5.638  0.6362  0.0100  0.2264
13132SOL    HW242029   1.727   6.938   5.696 -0.3165 -0.8343  0.4397
13133SOL     OW42030   0.378   6.939   0.607 -0.5197  0.2845  0.1063
13133SOL    HW142031   0.383   6.949   0.512  1.2644 -0.3181  0.0926
13133SOL    HW242032   0.404   7.024   0.641 -1.6104  0.6450  0.0841
13134SOL     OW42033   2.008   8.791   1.698  0.4941  0.0220  0.1448
13134SOL    HW142034   2.043   8.846   1.629  1.8961 -0.2626  0.6015
13134SOL    HW242035   1.938   8.843   1.737  1.8212  1.5434  0.6059
13135SOL     OW42036   7.714   5.107   9.473 -0.4838 -0.2286 -0.5253
13135SOL    HW142037   7.748   5.026   9.510  0.9807  0.4202 -0.3752
13135SOL    HW242038   7.620   5.091   9.460 -1.1937 -0.4330  3.6023
13136SOL     OW42039   1.517   9.586   6.290 -0.2870 -0.5929 -0.0385
13136SOL    HW142040   1.470   9.669   6.303  0.1600 -0.5083  1.1675
13136SOL    HW242041   1.521   9.547   6.377  1.4775 -0.8193 -0.1900
13137SOL     OW42042   6.411   4.786   9.835  0.0994  0.4542 -0.0524
13137SOL    HW142043   6.465   4.863   9.814  3.3421 -1.6383 -0.1803
13137SOL    HW242044   6.463   4.737   9.899 -1.5689 -1.8793 -0.3496
13138SOL     OW42045   0.491   7.971   7.386 -0.0282  0.0725 -0.3037
13138SOL    HW142046   0.419   8.025   7.419  0.2312  0.1757  0.1010
13138SOL    HW242047   0.570   8.022   7.404  0.3118 -0.8720  1.0490
13139SOL     OW42048   9.334   8.626   2.133  0.1147 -0.0872 -0.4845
13139SOL    HW142049   9.415   8.589   2.100  0.0211 -1.4989  0.7978
13139SOL    HW242050   9.339   8.719   2.110  2.3961 -0.0086  0.1756
13140SOL     OW42051  10.296   9.761   6.941  0.0642 -0.7305 -0.5627
13140SOL    HW142052  10.270   9.801   6.859 -0.7093 -1.4925 -0.7058
13140SOL    HW242053  10.233   9.689   6.954 -1.2190  0.6574  1.7533
13141SOL     OW42054   1.712   5.796   7.506 -0.8422 -0.1426  0.4298
13141SOL    HW142055   1.752   5.803   7.593  1.3561  0.5585 -0.5676
13141SOL    HW242056   1.717   5.884   7.470 -0.4037 -0.7056 -0.9554
13142SOL     OW42057   4.687   5.951   0.413 -0.2634 -0.1064  0.2854
13142SOL    HW142058   4.610   5.929   0.465 -2.0186  0.7553 -1.8121
13142SOL    HW242059   4.739   6.009   0.470  0.5150 -3.0814  2.8837
13143SOL     OW42060   8.941   6.654   4.967 -0.7898 -0.1372 -0.7373
13143SOL    HW142061   8.991   6.670   4.887  1.0363 -1.7358  0.0195
13143SOL    HW242062   8.876   6.589   4.941  0.7955 -1.8280 -0.6310
13144SOL     OW42063   3.046   1.672   9.627 -0.3936  0.0064  0.9499
13144SOL    HW142064   3.021   1.598   9.571  1.0998  1.1690 -1.4540
13144SOL    HW242065   3.106   1.635   9.691  0.3335 -0.9053 -0.2212
13145SOL     OW42066   1.691   1.588   7.959  0.0889 -0.2852  0.4383
13145SOL    HW142067   1.655   1.676   7.972  2.6435  1.2618 -1.9187
13145SOL    HW242068   1.664   1.540   8.038 -1.3702  2.5740  1.8661
13146SOL     OW42069   9.359  10.137  10.350 -0.1829  0.4009  0.4028
13146SOL    HW142070   9.397  10.049  10.348  1.1973  0.9660  0.5549
13146SOL    HW242071   9.271  10.124  10.384 -1.1047 -1.2840 -2.2465
13147SOL     OW42072   8.268   4.305   4.345  0.6518 -0.9173 -0.0257
13147SOL    HW142073   8.334   4.351   4.396  0.3185 -1.8175  1.2496
13147SOL    HW242074   8.287   4.212   4.358 -0.6444 -1.1860  0.0831
13148SOL     OW42075   3.952   6.100   8.019 -0.5027  0.2944 -0.0963
13148SOL    HW142076   3.967   6.018   7.971  1.9296  1.3732 -1.3626
13148SOL    HW242077   3.857   6.111   8.019 -0.7752 -1.5710 -1.5395
13149SOL     OW42078   2.778   9.399   5.734 -0.0280 -0.7861  0.3415
13149SOL    HW142079   2.706   9.401   5.797 -0.5284 -1.3443 -0.1904
13149SOL    HW242080   2.740   9.433   5.653  0.7040  0.2496  0.4156
13150SOL     OW42081   0.263   5.371   2.718 -0.3083  0.1097  0.2527
13150SOL    HW142082   0.277   5.464   2.700 -0.1182  0.1700  0.6942
13150SOL    HW242083   0.199   5.370   2.789 -0.1004 -0.0871  0.4395
13151SOL     OW42084   3.891   5.063   1.897 -0.0270  0.2442  0.7192
13151SOL    HW142085   3.851   5.035   1.979 -0.4419 -0.6503  0.2337
13151SOL    HW242086   3.974   5.015   1.893 -1.0412 -1.5260 -0.4295
13152SOL     OW42087   4.341   9.522   8.562 -0.2468 -0.2070  0.0978
13152SOL    HW142088   4.418   9.469   8.583  1.1702  1.8843  0.4936
13152SOL    HW242089   4.370   9.581   8.493 -1.5173  0.6116  0.2230
13153SOL     OW42090   4.860   3.301   9.064  0.7772 -0.4924 -0.4823
13153SOL    HW142091   4.832   3.390   9.084 -1.6046 -1.2385 -0.0978
13153SOL    HW242092   4.868   3.299   8.969 -1.9151 -0.5162 -0.7773
13154SOL     OW42093   0.986   8.059   4.672  0.5927  0.0913 -0.0049
13154SOL    HW142094   0.993   8.138   4.726  0.4179  0.5561 -0.6542
13154SOL    HW242095   1.069   8.056   4.624 -0.3347  1.2533 -1.8076
13155SOL     OW42096   2.489   8.233   6.415 -0.3513  0.2783  0.0741
13155SOL    HW142097   2.552   8.305   6.411 -1.1167  0.9307 -0.4068
13155SOL    HW242098   2.429   8.257   6.486 -0.4585 -0.0186  0.0859
13156SOL     OW42099   3.497   2.050   5.270  0.1439  0.4649 -0.2770
13156SOL    HW142100   3.583   2.051   5.227 -0.5209  1.8117 -1.6803
13156SOL    HW242101   3.437   2.087   5.205 -1.3663  0.3088  0.9638
13157SOL     OW42102   2.489   5.706   2.172 -0.2310 -0.5186  0.0164
13157SOL    HW142103   2.571   5.695   2.219  0.5086 -0.8772 -1.2956
13157SOL    HW242104   2.424   5.660   2.224  0.4969 -0.6671  0.8098
13158SOL     OW42105   9.338   8.578   8.722 -0.0015 -0.5234  0.0442
13158SOL    HW142106   9.353   8.669   8.748 -1.2342 -0.6206  1.2762
13158SOL    HW242107   9.333   8.531   8.805  1.8279 -1.9587 -0.6068
13159SOL     OW42108   3.332   5.014   6.247 -0.0142 -0.1831 -0.5173
13159SOL    HW142109   3.374   4.930   6.264 -0.3544 -0.1243  0.6703
13159SOL    HW242110   3.275   4.998   6.172  2.3352 -0.1890 -2.4681
13160SOL     OW42111   3.989   1.176   5.540 -0.0991  0.0889  0.4359
13160SOL    HW142112   4.066   1.160   5.484 -0.3733  1.2381 -0.3006
13160SOL    HW242113   4.026   1.211   5.621  0.2568 -0.9364  0.7309
13161SOL     OW42114  10.189   3.358   1.588  0.2749  0.0866 -0.6077
13161SOL    HW142115  10.239   3.277   1.583  0.4017  0.1370 -0.2094
13161SOL    HW242116  10.167   3.367   1.681 -0.1654  0.2510 -0.7214
13162SOL     OW42117   2.235   0.995   8.058 -0.1659 -0.5893 -0.3100
13162SOL    HW142118   2.193   0.935   8.119  1.6577 -0.6995  0.9140
13162SOL    HW242119   2.329   0.980   8.070  0.3664  2.3592 -0.0990
13163SOL     OW42120   8.829   8.263   7.418 -0.5337  0.3360  0.0896
13163SOL    HW142121   8.748   8.253   7.368 -0.0378 -0.4884 -0.5717
13163SOL    HW242122   8.891   8.202   7.377  0.6765  1.5311  0.0653
13164SOL     OW42123   1.475   7.879   8.836 -0.2549  0.3286 -0.3420
13164SOL    HW142124   1.561   7.915   8.814  0.9756 -0.6823  2.3439
13164SOL    HW242125   1.488   7.784   8.834 -2.0788  0.0501 -2.4062
13165SOL     OW42126   8.991   8.952   1.617  0.0045  0.1310 -0.3312
13165SOL    HW142127   8.906   8.916   1.591 -0.0198 -0.2865  0.2952
13165SOL    HW242128   9.043   8.875   1.640  1.0320  0.2585 -2.0193
13166SOL     OW42129   7.986   0.437   1.132  0.6183  0.5839  0.0562
13166SOL    HW142130   8.001   0.427   1.038 -0.4078  1.2361 -0.1796
13166SOL    HW242131   8.066   0.478   1.164  1.0337  0.2319 -0.4968
13167SOL     OW42132   5.553   8.908   8.998 -0.2057  0.0391  0.2664
13167SOL    HW142133   5.547   8.990   8.949 -1.1830  0.2414  0.7002
13167SOL    HW242134   5.510   8.843   8.942 -0.1759 -0.0002  0.2895
13168SOL     OW42135   8.457   3.692   2.523  0.4264  0.5335 -0.7330
13168SOL    HW142136   8.508   3.669   2.445  0.8209  0.3171 -0.4181
13168SOL    HW242137   8.407   3.613   2.545 -0.9931  1.1216 -1.7457
13169SOL     OW42138   8.380   3.193   6.982 -0.3791  0.5270  0.2660
13169SOL    HW142139   8.387   3.165   7.074  0.4382  0.1178  0.0887
13169SOL    HW242140   8.291   3.229   6.975 -0.2012  1.2390  1.3922
13170SOL     OW42141   5.407   8.122   8.408 -0.2559 -0.1736 -0.3855
13170SOL    HW142142   5.432   8.182   8.337 -1.2557 -0.5024 -1.0334
13170SOL    HW242143   5.314   8.138   8.422  0.2324  1.0122  1.9826
13171SOL     OW42144   4.028   5.185  10.353 -0.3535  0.0175 -0.3557
13171SOL    HW142145   4.099   5.217  10.409 -0.4128 -0.8024  0.2003
13171SOL    HW242146   4.060   5.199  10.263  0.6504 -0.6293 -0.1170
13172SOL     OW42147   5.947   0.148   7.807  0.2278 -0.1153  0.0311
13172SOL    HW142148   5.855   0.127   7.818  0.2050 -2.2002 -2.9271
13172SOL    HW242149   5.977   0.171   7.895 -2.9022  0.0071  1.1954
13173SOL     OW42150   1.341   8.629   7.890  0.8959  0.0830 -0.0127
13173SOL    HW142151   1.339   8.555   7.829  0.8121  0.0170  0.0694
13173SOL    HW242152   1.434   8.652   7.897  0.8508  0.4867 -0.6471
13174SOL     OW42153   1.594   6.821   6.437 -0.1628 -0.4243 -0.4192
13174SOL    HW142154   1.545   6.902   6.452 -0.9166 -1.0338  0.5764
13174SOL    HW242155   1.568   6.792   6.350  0.4801  0.6354 -0.9844
13175SOL     OW42156   8.296   6.993   4.933  0.3479  0.4136 -0.6101
13175SOL    HW142157   8.313   6.940   4.856  0.5567  1.8859 -1.6163
13175SOL    HW242158   8.382   7.011   4.970  0.3034  0.3282 -0.4634
13176SOL     OW42159   2.487   3.674   9.416 -0.2551 -0.5007  0.2270
13176SOL    HW142160   2.509   3.723   9.495 -0.1931 -1.0932  0.5805
13176SOL    HW242161   2.522   3.727   9.344 -0.5481  0.1738  0.5753
13177SOL     OW42162   2.903   7.537   4.472 -0.7714  0.4496  0.5290
13177SOL    HW142163   2.929   7.486   4.549  0.3159 -0.7017 -0.5408
13177SOL    HW242164   2.928   7.627   4.493 -0.5583  0.1613  1.5534
13178SOL     OW42165   3.606   1.974   6.050  0.4916 -0.8831 -0.1937
13178SOL    HW142166   3.677   1.911   6.038 -0.5771 -2.0178 -0.8728
13178SOL    HW242167   3.619   2.038   5.981  2.3914  0.4967  1.3398
13179SOL     OW42168  10.243   2.853  10.284  0.0580  0.0314  0.1905
13179SOL    HW142169  10.334   2.833  10.309  0.3638  0.3573 -0.6300
13179SOL    HW242170  10.248   2.872  10.190 -0.6776  1.1035  0.3471
13180SOL     OW42171   6.276   1.605   7.123  0.3232 -0.0572  0.3280
13180SOL    HW142172   6.371   1.619   7.117  0.7374 -2.6927 -0.8093
13180SOL    HW242173   6.263   1.518   7.087 -2.4986 -0.0197  1.0446
13181SOL     OW42174   9.928   6.149  10.169  0.0211 -0.0199 -0.1256
13181SOL    HW142175   9.845   6.104  10.189  0.8667 -1.8754 -0.5822
13181SOL    HW242176   9.978   6.143  10.251 -0.1651  0.8688  0.0669
13182SOL     OW42177   7.360   4.349   5.216  0.0815 -0.0147 -0.1189
13182SOL    HW142178   7.299   4.344   5.289  1.2652  0.5363  0.9598
13182SOL    HW242179   7.316   4.304   5.144 -0.5369 -1.8719  1.3380
13183SOL     OW42180   6.940   5.662   0.704 -0.1542 -0.0350  0.5130
13183SOL    HW142181   6.883   5.639   0.777 -1.1431 -0.3584 -0.3301
13183SOL    HW242182   7.019   5.610   0.717 -0.7575 -0.8988  0.7828
13184SOL     OW42183   5.983   6.974   3.898 -0.4017 -0.0729 -0.2126
13184SOL    HW142184   5.991   7.013   3.986 -0.7167  1.5866 -0.8822
13184SOL    HW242185   5.910   6.912   3.907 -2.4811  2.2594  0.0323
13185SOL     OW42186   4.974   3.032   4.243  0.0490  0.5122 -0.1481
13185SOL    HW142187   5.028   3.108   4.264  0.7276 -0.2826  1.1527
13185SOL    HW242188   4.926   3.015   4.324  0.5547 -0.9478 -0.1370
13186SOL     OW42189   5.405   6.956  10.276  0.1670 -0.2408 -0.1799
13186SOL    HW142190   5.450   6.935  10.195  1.7482  0.9870  0.3233
13186SOL    HW242191   5.387   6.872  10.317  0.9782 -0.7994 -0.9538
13187SOL     OW42192   6.713   2.723   5.485 -0.1087  0.6083 -0.2227
13187SOL    HW142193   6.758   2.718   5.569  1.0610  1.8524 -0.7235
13187SOL    HW242194   6.622   2.699   5.504  0.1724  0.7056  1.3564
13188SOL     OW42195   2.422   6.071   8.845 -0.3744  0.2736 -0.5113
13188SOL    HW142196   2.381   5.997   8.801 -1.0397  0.8836 -0.9419
13188SOL    HW242197   2.462   6.034   8.923  0.3474 -0.7449 -1.3369
13189SOL     OW42198   4.765   8.848   4.896  0.7434 -0.3395  0.8227
13189SOL    HW142199   4.795   8.850   4.806  3.0788 -0.0265  1.5542
13189SOL    HW242200   4.799   8.766   4.932 -0.7965 -0.8309  1.2469
13190SOL     OW42201   2.041   9.616   9.332  0.5109  0.1103 -0.2599
13190SOL    HW142202   2.045   9.705   9.297  0.9368  0.1605 -0.0913
13190SOL    HW242203   2.119   9.608   9.387 -0.8777  0.5114  1.8712
13191SOL     OW42204   8.968   8.244   8.332  0.2952  0.5072  0.2334
13191SOL    HW142205   8.964   8.337   8.312 -0.6162  0.0136 -2.3214
13191SOL    HW242206   8.893   8.206   8.286  0.9073 -1.5349  0.8065
13192SOL     OW42207   5.024   8.553   6.505  0.6126  0.0443 -0.1957
13192SOL    HW142208   4.990   8.475   6.550  1.0433  0.0566  0.1585
13192SOL    HW242209   4.993   8.627   6.557 -0.2021  0.1427 -0.8029
13193SOL     OW42210   3.500   1.624   4.563 -0.2885 -0.2147  0.3035
13193SOL    HW142211   3.539   1.591   4.482 -1.1933 -0.5913  0.0039
13193SOL    HW242212   3.469   1.712   4.542  0.1191 -0.0393  0.4457
13194SOL     OW42213   7.406   8.416   1.953 -0.1746  0.3335  0.2901
13194SOL    HW142214   7.349   8.388   2.025 -0.6925  0.3159 -0.1153
13194SOL    HW242215   7.381   8.360   1.880 -0.6354  1.2791 -0.2937
13195SOL     OW42216   6.476   0.543   9.326 -0.3753  0.7956 -0.2495
13195SOL    HW142217   6.438   0.457   9.310  1.6965 -0.2985  0.4246
13195SOL    HW242218   6.437   0.571   9.409 -1.5787  0.8523 -0.8139
13196SOL     OW42219   5.119   0.270   4.554 -0.5135 -0.1369  0.3061
13196SOL    HW142220   5.204   0.311   4.537 -0.5204 -0.3228 -0.1947
13196SOL    HW242221   5.118   0.193   4.497 -2.6136  1.9255 -2.7387
13197SOL     OW42222   2.628   7.160   3.279 -0.4278 -0.1798  0.0708
13197SOL    HW142223   2.667   7.217   3.213  0.2253 -1.2806 -0.5444
13197SOL    HW242224   2.543   7.137   3.242  0.0298 -0.9801 -0.5449
13198SOL     OW42225   4.659   3.049   8.035 -0.0135 -0.6583 -0.4971
13198SOL    HW142226   4.741   3.086   8.067  0.6727 -1.7019 -0.9825
13198SOL    HW242227   4.642   2.974   8.092 -1.8851  0.8601  1.0790
13199SOL     OW42228   5.627   9.422   6.639 -0.3929 -0.2688 -0.5058
13199SOL    HW142229   5.625   9.497   6.698  1.6904  0.0180 -0.7352
13199SOL    HW242230   5.544   9.377   6.654 -0.3310  0.3206  1.9310
13200SOL     OW42231   8.408   3.755   9.229 -0.7893  0.3283 -0.3714
13200SOL    HW142232   8.462   3.763   9.308  0.7644  0.5777 -1.3997
13200SOL    HW242233   8.387   3.845   9.205 -2.4478  0.2116  0.4820
13201SOL     OW42234   6.878   8.337   1.555  0.3198 -0.5861 -0.3110
13201SOL    HW142235   6.907   8.407   1.612 -1.3777 -0.4394  0.4220
13201SOL    HW242236   6.943   8.268   1.567  1.5068  0.4964 -0.3557
13202SOL     OW42237   3.337   7.243   5.244  0.5766 -0.2741  0.2643
13202SOL    HW142238   3.302   7.317   5.195  1.7842 -0.4788 -0.9438
13202SOL    HW242239   3.363   7.280   5.329  0.0650  0.4306  0.1158
13203SOL     OW42240   0.968  10.263   1.833  0.3126 -0.0421 -0.3054
13203SOL    HW142241   0.994  10.354   1.817 -1.1660  0.2344 -1.4199
13203SOL    HW242242   0.875  10.261   1.811 -0.3434 -1.2562  2.2126
13204SOL     OW42243   5.740   1.900   5.672 -0.4539  0.8007 -0.0762
13204SOL    HW142244   5.730   1.903   5.767 -0.9505 -0.1274 -0.0934
13204SOL    HW242245   5.730   1.991   5.644  1.4519  1.3750  0.9073
13205SOL     OW42246   7.495   3.598   2.367 -0.3966  0.0439  0.2862
13205SOL    HW142247   7.477   3.530   2.302 -0.7968  0.6775 -0.2711
13205SOL    HW242248   7.454   3.565   2.447 -2.1698  0.4112 -0.4095
13206SOL     OW42249   2.468   3.166   8.118  0.1524 -0.5907  0.0371
13206SOL    HW142250   2.465   3.258   8.093 -2.0739 -0.3877  0.8378
13206SOL    HW242251   2.395   3.155   8.179 -0.2480 -3.0991 -0.7632
13207SOL     OW42252   6.830   8.493   5.252 -0.4436 -0.3474  0.0475
13207SOL    HW142253   6.899   8.428   5.259 -0.2352 -0.2747 -1.0934
13207SOL    HW242254   6.871   8.575   5.279  0.6963  0.1715 -2.8992
13208SOL     OW42255   7.003   8.979   0.195  0.1686  0.6476  0.1116
13208SOL    HW142256   6.980   8.896   0.154  0.4870  0.7080 -0.1904
13208SOL    HW242257   7.092   8.968   0.226 -0.1332  0.5444  0.9543
13209SOL     OW42258   3.236   9.414   0.120 -0.0343 -0.4424  0.8307
13209SOL    HW142259   3.154   9.452   0.091  0.9324  2.0846  1.1654
13209SOL    HW242260   3.265   9.360   0.046 -1.1289  0.0478  0.0209
13210SOL     OW42261  10.084   1.343   7.153 -0.5350  0.1426 -0.1757
13210SOL    HW142262  10.173   1.309   7.146 -0.1557  1.3631 -2.1008
13210SOL    HW242263  10.029   1.264   7.152  0.4086 -0.5636 -2.2679
13211SOL     OW42264   1.599   3.764   5.738  0.1250  0.1975 -0.3727
13211SOL    HW142265   1.597   3.817   5.658 -0.2220  0.7102 -0.0366
13211SOL    HW242266   1.521   3.709   5.733  0.0175  0.3442 -0.3127
13212SOL     OW42267   9.904   4.757   1.898  0.0138  0.3048  0.0481
13212SOL    HW142268   9.823   4.775   1.946 -1.7942 -0.0965 -2.6354
13212SOL    HW242269   9.895   4.667   1.868  0.6157  0.7936 -1.7241
13213SOL     OW42270   8.458   0.821   9.087  0.0113 -0.4894  1.1602
13213SOL    HW142271   8.534   0.878   9.075  0.6305 -0.8560  3.1386
13213SOL    HW242272   8.406   0.864   9.155 -1.6868 -0.1574 -0.2654
13214SOL     OW42273   3.047   9.940   1.952  0.3497  0.0493 -0.4341
13214SOL    HW142274   3.136   9.972   1.942  0.4346 -0.4926 -1.4684
13214SOL    HW242275   3.020   9.913   1.864 -0.6567 -0.2548 -0.0517
13215SOL     OW42276   0.392   4.080   7.912  0.2508  0.4051  0.9127
13215SOL    HW142277   0.334   4.029   7.968  0.5637 -0.3619  0.5579
13215SOL    HW242278   0.470   4.095   7.965  0.8970 -1.0444  0.4375
13216SOL     OW42279   4.659   5.854   4.722 -0.3915  0.0457 -0.2970
13216SOL    HW142280   4.703   5.770   4.709 -0.1985 -0.1611  1.5048
13216SOL    HW242281   4.566   5.834   4.706 -0.4500 -0.7143  0.8897
13217SOL     OW42282   5.863   2.784   2.263 -0.3191 -0.4562  0.5857
13217SOL    HW142283   5.899   2.706   2.304  2.0856  0.8929  1.1955
13217SOL    HW242284   5.870   2.852   2.330 -0.7356  0.6960 -0.4966
13218SOL     OW42285   3.573   5.862   4.711  0.4944 -0.4670  0.3826
13218SOL    HW142286   3.584   5.935   4.650 -0.2211  0.1010  0.9284
13218SOL    HW242287   3.516   5.800   4.664  0.9278 -0.5893  0.0070
13219SOL     OW42288   1.400   0.503   9.574  0.4728 -0.2831  1.3112
13219SOL    HW142289   1.357   0.471   9.654 -1.4649 -2.4568 -0.4192
13219SOL    HW242290   1.415   0.423   9.522  2.3260  0.9726 -0.2191
13220SOL     OW42291   4.413   5.228   9.731 -0.1879  0.0394 -0.3323
13220SOL    HW142292   4.481   5.217   9.798 -1.0367  1.5318  0.8388
13220SOL    HW242293   4.347   5.161   9.753  0.2370 -0.4771 -0.6148
13221SOL     OW42294   2.773   2.391   4.005  0.0799  0.2494  0.2248
13221SOL    HW142295   2.823   2.398   4.087  0.7864 -3.1149  0.2469
13221SOL    HW242296   2.831   2.341   3.947 -1.2498  0.7535 -1.6101
13222SOL     OW42297   9.188   4.437   8.810 -0.2875  0.0916 -0.0096
13222SOL    HW142298   9.235   4.354   8.813  3.2565  1.9019 -0.1958
13222SOL    HW242299   9.104   4.419   8.853  0.5202 -3.3899  0.4110
13223SOL     OW42300   9.889   5.145   2.428 -0.3332 -1.1329  0.1815
13223SOL    HW142301   9.846   5.176   2.508 -2.6021 -3.1074 -0.1628
13223SOL    HW242302   9.978   5.181   2.434 -0.7159 -0.3634  3.0672
13224SOL     OW42303   1.924   9.910   6.874 -0.5586  1.0702 -0.2990
13224SOL    HW142304   1.985   9.984   6.869  0.4915  0.2398 -0.1255
13224SOL    HW242305   1.941   9.859   6.794  2.3540 -1.6713  1.8187
13225SOL     OW42306   0.320   3.319   4.737  0.4135 -0.0502  0.0063
13225SOL    HW142307   0.257   3.391   4.741  2.5702  1.9039  2.2697
13225SOL    HW242308   0.372   3.337   4.659 -0.2572 -0.3204 -0.5210
13226SOL     OW42309   0.887   3.232   4.559 -0.8444 -0.1951  0.2936
13226SOL    HW142310   0.883   3.308   4.501 -1.7597 -0.1221  0.4257
13226SOL    HW242311   0.808   3.241   4.614 -1.5945 -1.8667 -0.4723
13227SOL     OW42312   9.005   6.551   2.789 -0.1283  0.1700  0.1049
13227SOL    HW142313   9.007   6.628   2.846  0.4490 -2.3775  3.8504
13227SOL    HW242314   9.093   6.547   2.751 -0.0127  1.0692  0.2605
13228SOL     OW42315   6.293   6.220   1.333  0.2506 -0.9698 -0.1221
13228SOL    HW142316   6.287   6.300   1.280 -1.7446  0.7145  2.3978
13228SOL    HW242317   6.375   6.179   1.306  0.7957  1.3242 -2.3142
13229SOL     OW42318   8.064   7.865   8.030 -0.3970 -0.5779 -0.1838
13229SOL    HW142319   8.136   7.845   8.090  0.3237  0.1928 -0.7659
13229SOL    HW242320   8.090   7.947   7.989 -1.9030  0.0246  0.0292
13230SOL     OW42321   0.650   7.235   6.862  0.1267  0.0019  0.0349
13230SOL    HW142322   0.658   7.196   6.948  0.1829 -0.6005 -0.2429
13230SOL    HW242323   0.672   7.165   6.800  0.9535  0.6618 -0.4463
13231SOL     OW42324   0.719   9.418   0.388  0.0391  0.5714 -0.0872
13231SOL    HW142325   0.648   9.474   0.357 -0.0804  0.6658  0.3461
13231SOL    HW242326   0.682   9.330   0.387  0.0757  0.5580 -0.3268
13232SOL     OW42327   4.170   9.438   0.518  0.4675 -0.7263  0.3775
13232SOL    HW142328   4.192   9.525   0.483  0.7632 -1.0027 -0.1282
13232SOL    HW242329   4.120   9.457   0.597 -1.4870 -0.0603 -0.9250
13233SOL     OW42330   4.022   4.818   8.427  0.5300  0.0354 -0.3714
13233SOL    HW142331   4.022   4.909   8.397 -0.8608  0.0350 -0.4703
13233SOL    HW242332   4.099   4.811   8.482  0.8922  1.1640 -0.7018
13234SOL     OW42333   8.809   7.336   0.615 -0.3240  0.2574  0.4712
13234SOL    HW142334   8.814   7.422   0.573 -1.5104  0.5128  0.8181
13234SOL    HW242335   8.746   7.348   0.686 -0.2882 -0.8300  0.6990
13235SOL     OW42336   0.285   9.283   6.619  0.1065  0.1118 -0.4840
13235SOL    HW142337   0.232   9.204   6.615  0.6830 -0.2236 -2.6255
13235SOL    HW242338   0.374   9.254   6.599  0.6546  1.0495  0.4732
13236SOL     OW42339   2.453   4.713   3.223  0.1189  0.4472  0.4433
13236SOL    HW142340   2.434   4.801   3.190 -1.1658 -0.6065 -1.8509
13236SOL    HW242341   2.534   4.688   3.177 -0.6165 -0.2904 -0.4898
13237SOL     OW42342   8.305   8.079   5.799 -0.2325  0.0146  0.1032
13237SOL    HW142343   8.316   8.171   5.774 -0.2566  0.0295  0.1476
13237SOL    HW242344   8.283   8.035   5.717  4.3066 -0.7957 -0.9707
13238SOL     OW42345   8.204   6.689  10.053 -0.2125 -0.2914 -0.1869
13238SOL    HW142346   8.214   6.715  10.144 -0.5506 -1.8611  0.3344
13238SOL    HW242347   8.109   6.695  10.037 -0.3556 -1.4789  0.0712
13239SOL     OW42348   6.212   7.594   6.352  0.0627 -0.9104  0.0944
13239SOL    HW142349   6.293   7.634   6.384 -0.4598 -0.5593  0.9938
13239SOL    HW242350   6.148   7.611   6.420 -1.1897  0.1787 -1.2877
13240SOL     OW42351   1.794   7.245  10.090 -0.2177 -0.1184 -0.3030
13240SOL    HW142352   1.721   7.228  10.030  0.0333 -2.0115 -0.1405
13240SOL    HW242353   1.872   7.229  10.037  0.0103 -1.5375  0.4075
13241SOL     OW42354   7.081   7.911   0.120 -0.0574 -0.6041  0.3810
13241SOL    HW142355   7.025   7.878   0.050  0.7345 -1.0066 -0.0650
13241SOL    HW242356   7.146   7.965   0.075  0.4840 -0.9027  0.8037
13242SOL     OW42357   7.292   0.671   6.060 -0.2066 -0.2414  0.4447
13242SOL    HW142358   7.211   0.673   6.111 -0.6733  2.2686 -0.2557
13242SOL    HW242359   7.360   0.698   6.121 -0.4662  0.9596  0.2138
13243SOL     OW42360   5.089   0.113   4.311  0.0200  0.4724  0.3275
13243SOL    HW142361   5.006   0.148   4.280  1.5110  1.2999 -3.2334
13243SOL    HW242362   5.091   0.023   4.279  0.3177  0.3049  0.8007
13244SOL     OW42363   9.465   9.442   6.058 -0.6128  0.4194  0.2866
13244SOL    HW142364   9.437   9.533   6.058  0.4439  0.7610  0.7345
13244SOL    HW242365   9.404   9.398   5.999 -1.4974  1.2947  0.5211
13245SOL     OW42366   4.398   6.369   7.736  0.2402 -0.6183 -0.2357
13245SOL    HW142367   4.340   6.371   7.812  1.7278 -3.1962  1.0652
13245SOL    HW242368   4.403   6.461   7.708 -1.3618  0.2288  1.9543
13246SOL     OW42369   7.689   5.430   1.380 -0.0818  0.3036  0.7996
13246SOL    HW142370   7.625   5.500   1.374 -0.8871 -0.4152  0.7235
13246SOL    HW242371   7.692   5.394   1.291  0.6739  0.5377  0.7244
13247SOL     OW42372   6.293   3.863   9.591  0.1179 -0.0660 -0.0421
13247SOL    HW142373   6.207   3.841   9.628  0.3331  0.2992  0.6713
13247SOL    HW242374   6.351   3.794   9.623  0.8504  1.5570  2.3979
13248SOL     OW42375   3.866   1.949   1.367 -0.0879  0.0859  0.3188
13248SOL    HW142376   3.836   1.963   1.457  1.8701 -2.6993  1.5644
13248SOL    HW242377   3.962   1.952   1.373  0.0805 -0.1352 -1.6911
13249SOL     OW42378   1.312   2.221   2.603  0.3859  0.0791 -0.0135
13249SOL    HW142379   1.255   2.239   2.528 -2.2695  0.3171  1.9309
13249SOL    HW242380   1.323   2.126   2.604 -0.0252  0.0292 -0.3874
13250SOL     OW42381   4.587   6.701   1.722  0.6787  0.6662 -0.1001
13250SOL    HW142382   4.551   6.651   1.795  1.9152  0.5089  0.4209
13250SOL    HW242383   4.546   6.787   1.728  0.0120  0.3375  0.1597
13251SOL     OW42384   4.685   1.664   2.985 -0.1032 -0.2603 -0.3704
13251SOL    HW142385   4.704   1.633   3.073  0.2654  0.2575 -0.2619
13251SOL    HW242386   4.641   1.591   2.942 -2.1670  0.1741  0.8821
13252SOL     OW42387   7.154   3.725   7.377 -0.6153 -0.2275  0.2279
13252SOL    HW142388   7.201   3.698   7.297 -1.8428 -2.2072  0.1072
13252SOL    HW242389   7.132   3.817   7.362 -0.1947 -0.3600 -1.4191
13253SOL     OW42390   6.347   6.187   2.373 -0.2506  0.2788 -0.1447
13253SOL    HW142391   6.310   6.102   2.397 -0.5539  0.3909 -0.2089
13253SOL    HW242392   6.271   6.242   2.355 -0.0579  0.5805 -0.0493
13254SOL     OW42393   0.932   5.357   8.792  0.0967  0.1532 -0.4061
13254SOL    HW142394   0.984   5.420   8.841  1.0575 -1.6494  1.0021
13254SOL    HW242395   0.844   5.394   8.791  0.1375  0.4901  2.2921
13255SOL     OW42396   7.626   5.316   1.038 -0.2327 -0.1323  0.3143
13255SOL    HW142397   7.638   5.231   0.996 -1.0850 -0.2099  0.2150
13255SOL    HW242398   7.567   5.298   1.111 -0.5306  0.3917  0.2076
13256SOL     OW42399   4.769   0.015   2.596  0.2679 -0.1288 -0.4498
13256SOL    HW142400   4.682   0.032   2.631  1.5034  0.4958  2.6431
13256SOL    HW242401   4.805   0.102   2.577  0.8316 -0.2761 -0.0768
13257SOL     OW42402   4.897   9.228   6.541 -0.0359 -0.1422  0.3991
13257SOL    HW142403   4.864   9.190   6.622  0.5108 -1.3084  0.1003
13257SOL    HW242404   4.964   9.291   6.569  1.6759 -2.0573  0.8299
13258SOL     OW42405   5.346   9.689   1.907  0.1163  0.5499 -0.1021
13258SOL    HW142406   5.412   9.636   1.953  0.9500  1.0571 -0.6874
13258SOL    HW242407   5.397   9.747   1.850 -0.8494  0.7653 -0.7770
13259SOL     OW42408   5.256   0.703   9.912  0.1350  0.4939 -0.1836
13259SOL    HW142409   5.260   0.774   9.975  0.1765  1.7660 -1.5571
13259SOL    HW242410   5.339   0.709   9.864 -1.0087  1.4141 -2.2104
13260SOL     OW42411   9.600   3.955   0.269 -0.1374 -0.0820 -0.6471
13260SOL    HW142412   9.682   3.939   0.223  1.9052 -0.2385  2.7139
13260SOL    HW242413   9.598   4.050   0.281  1.0249 -0.2863  1.5765
13261SOL     OW42414   3.869   5.641   9.484 -0.0114  0.3673 -0.6917
13261SOL    HW142415   3.916   5.701   9.426 -1.4469  0.9989 -1.2350
13261SOL    HW242416   3.792   5.689   9.512 -1.6232 -1.4552 -1.7604
13262SOL     OW42417   5.759   8.286   4.981  0.3381 -0.3582  0.1428
13262SOL    HW142418   5.799   8.354   5.036  2.5067  0.6170 -2.3913
13262SOL    HW242419   5.803   8.206   5.008 -0.2395 -0.3116  1.2897
13263SOL     OW42420   4.584   8.947   5.500  0.7879 -0.1374 -0.4396
13263SOL    HW142421   4.638   9.021   5.528 -0.0232  0.4435 -0.3999
13263SOL    HW242422   4.588   8.886   5.573 -0.7791  1.0820  0.7358
13264SOL     OW42423   5.633   5.252   9.046 -0.5656 -0.3234  0.3562
13264SOL    HW142424   5.700   5.233   9.113 -1.0444  1.0972  1.2849
13264SOL    HW242425   5.550   5.232   9.089 -0.8036 -1.2918 -0.5142
13265SOL     OW42426   9.962   9.398   4.880 -0.0954  0.3437 -0.4751
13265SOL    HW142427   9.890   9.359   4.929  1.3596 -0.3791  1.1691
13265SOL    HW242428  10.030   9.413   4.945  1.4342  0.5344 -2.0562
13266SOL     OW42429   2.716   7.550   7.634  0.1308  0.3881 -0.0409
13266SOL    HW142430   2.701   7.508   7.719 -0.9319  1.2008  0.1872
13266SOL    HW242431   2.675   7.636   7.642 -0.2523  0.3650 -1.4694
13267SOL     OW42432   6.508   8.502   6.038  0.1155  0.0930 -0.3869
13267SOL    HW142433   6.514   8.408   6.024  0.0867  0.0983 -0.4311
13267SOL    HW242434   6.470   8.536   5.957  2.1342  0.4192 -1.2459
13268SOL     OW42435   1.220   8.422   7.743 -1.3272  0.5860  0.4189
13268SOL    HW142436   1.170   8.453   7.819 -2.3946  0.3597 -0.1790
13268SOL    HW242437   1.186   8.334   7.726 -1.0080  0.5837 -0.2452
13269SOL     OW42438   2.678   5.981   8.297  0.7153 -0.8868  0.0508
13269SOL    HW142439   2.619   6.030   8.240  0.8397 -1.1964 -0.3518
13269SOL    HW242440   2.645   5.998   8.386  2.5279  2.3398  0.2494
13270SOL     OW42441   0.196   3.732   0.853 -0.2995  0.2951 -0.5124
13270SOL    HW142442   0.115   3.741   0.902 -0.0728  0.3521 -0.1395
13270SOL    HW242443   0.252   3.677   0.909 -0.2365 -0.0985 -0.9560
13271SOL     OW42444   3.935   1.893   4.697  0.5306 -0.3935  0.0081
13271SOL    HW142445   3.982   1.885   4.779  0.0321  0.4238  0.3833
13271SOL    HW242446   3.891   1.808   4.687  1.4107 -0.8659  0.0548
13272SOL     OW42447   0.349   3.511   8.726 -0.2351 -0.5359  0.0549
13272SOL    HW142448   0.439   3.507   8.694 -1.0096  0.7420 -2.5304
13272SOL    HW242449   0.356   3.559   8.809  1.2431  1.9413 -1.3740
13273SOL     OW42450   4.054   7.296   7.502  1.0016 -0.0991  0.1451
13273SOL    HW142451   3.971   7.337   7.478  2.6503  1.9140 -2.8462
13273SOL    HW242452   4.049   7.208   7.465  0.0947 -0.1051  0.2629
13274SOL     OW42453   5.470   5.265   1.914  0.6390 -0.0436 -0.0475
13274SOL    HW142454   5.410   5.322   1.867  0.5610 -1.3544 -1.6267
13274SOL    HW242455   5.414   5.221   1.979 -0.4961 -2.1296 -2.2676
13275SOL     OW42456   6.287   1.635   2.162 -0.4632  0.4086  0.3526
13275SOL    HW142457   6.348   1.561   2.149  0.8869  1.3120  1.2791
13275SOL    HW242458   6.236   1.638   2.081  1.2172  0.0331 -0.7704
13276SOL     OW42459   1.339   1.186   3.697  0.2004  0.1576  0.0092
13276SOL    HW142460   1.320   1.265   3.747  1.0126 -0.4492  1.3395
13276SOL    HW242461   1.404   1.214   3.632  0.4597  0.5842  0.4476
13277SOL     OW42462   8.381   7.677   0.264 -0.2359  0.0040 -0.2220
13277SOL    HW142463   8.403   7.636   0.180 -0.0964 -0.5119  0.0598
13277SOL    HW242464   8.458   7.729   0.285 -0.1371 -0.1277 -0.2555
13278SOL     OW42465   2.181   7.875   6.888  0.5151 -0.4102 -0.0048
13278SOL    HW142466   2.128   7.798   6.904  1.5209 -1.0330  0.4115
13278SOL    HW242467   2.251   7.845   6.830  0.7997  0.2388 -0.0138
13279SOL     OW42468  10.063   0.129   2.793 -0.2933  0.0756 -0.2707
13279SOL    HW142469  10.127   0.072   2.836 -0.3777 -0.4675 -0.8559
13279SOL    HW242470   9.999   0.149   2.862  0.4789  0.5969  0.3106
13280SOL     OW42471   1.252   9.509   3.043  0.1636  0.2918  0.0207
13280SOL    HW142472   1.310   9.434   3.030  1.4231  1.3354 -0.5688
13280SOL    HW242473   1.198   9.484   3.119  0.7723 -1.0560  0.0484
13281SOL     OW42474   3.850   4.348   7.404  0.4375  0.3506  0.6106
13281SOL    HW142475   3.889   4.314   7.323 -1.1642 -0.8144  0.3004
13281SOL    HW242476   3.859   4.277   7.467 -0.2560  0.4472  0.8280
13282SOL     OW42477   8.829   7.192   7.084  0.4885  0.6071 -0.1525
13282SOL    HW142478   8.780   7.254   7.030  0.2410 -2.5316 -4.0445
13282SOL    HW242479   8.761   7.138   7.125  0.6520  0.2695 -0.3189
13283SOL     OW42480   9.337   2.865   5.021  0.6442 -0.5982  0.1674
13283SOL    HW142481   9.345   2.815   5.102 -0.0877 -3.1457 -1.2091
13283SOL    HW242482   9.296   2.804   4.959  2.3088  0.7735 -2.5020
13284SOL     OW42483   5.580   2.881   9.316 -0.1204 -0.2872  0.3190
13284SOL    HW142484   5.505   2.916   9.365 -2.5253 -2.7063 -1.3165
13284SOL    HW242485   5.598   2.796   9.357  1.0280 -0.2080  0.0062
13285SOL     OW42486   5.733   4.459   8.358  0.1538 -0.0975 -0.3093
13285SOL    HW142487   5.791   4.397   8.313 -1.3628 -0.6246 -1.6406
13285SOL    HW242488   5.789   4.533   8.380  1.2898 -0.4501 -1.8365
13286SOL     OW42489   0.468   0.298   5.375 -0.6217 -0.4162 -0.0097
13286SOL    HW142490   0.456   0.370   5.437  1.1121  1.6669 -1.9074
13286SOL    HW242491   0.380   0.261   5.364 -0.8686 -1.6748  4.3890
13287SOL     OW42492  10.270   8.345   9.435 -0.4364  0.3402  0.1072
13287SOL    HW142493  10.323   8.383   9.506 -1.1583  1.5139  0.0433
13287SOL    HW242494  10.305   8.386   9.356  0.4540 -1.0635 -0.2514
13288SOL     OW42495   2.103   2.728   8.589 -0.3890  0.2354  0.0160
13288SOL    HW142496   2.050   2.750   8.512  1.8070 -0.4200 -1.8105
13288SOL    HW242497   2.183   2.781   8.578  1.2780 -2.1117  0.1501
13289SOL     OW42498   1.329   9.746   0.597 -0.2343 -0.2293  0.5636
13289SOL    HW142499   1.258   9.682   0.586 -0.5022 -0.1939  1.9348
13289SOL    HW242500   1.288   9.830   0.578 -0.2712 -0.3128  0.2654
13290SOL     OW42501   9.254   0.052   9.005 -0.1563 -0.0608  0.1393
13290SOL    HW142502   9.183  -0.009   9.026 -0.2405 -0.6385 -1.6239
13290SOL    HW242503   9.226   0.092   8.923  0.3707  1.6587  0.7694
13291SOL     OW42504   9.085   0.052   5.443  0.0495 -0.6363 -0.0923
13291SOL    HW142505   9.164  -0.001   5.438  0.3217 -0.2750  0.3336
13291SOL    HW242506   9.047   0.047   5.355  2.0514  1.4938 -1.1674
13292SOL     OW42507   0.766   6.155   0.233  0.7099  0.5177 -0.5683
13292SOL    HW142508   0.682   6.190   0.262 -0.4240 -2.3621 -0.1357
13292SOL    HW242509   0.767   6.171   0.138 -0.3647  0.5169 -0.5884
13293SOL     OW42510   0.182   4.303   3.954  0.3845 -0.2498  0.0746
13293SOL    HW142511   0.193   4.222   4.004  0.3205 -0.3297 -0.0401
13293SOL    HW242512   0.235   4.367   4.000  0.3152 -0.3208  0.2522
13294SOL     OW42513   9.961   3.087   8.019 -0.3563 -0.1147  0.5690
13294SOL    HW142514  10.001   3.059   7.937 -3.8092 -1.4933 -0.8493
13294SOL    HW242515  10.015   3.048   8.087  1.6015 -0.4220 -1.0795
13295SOL     OW42516   5.263   3.516   9.747  0.0501 -0.9447  0.2426
13295SOL    HW142517   5.328   3.559   9.802  2.0663 -1.5129 -1.5659
13295SOL    HW242518   5.179   3.543   9.784  1.2611 -1.1172  3.3893
13296SOL     OW42519   0.074   2.861   5.550 -0.6090 -0.1730  0.1530
13296SOL    HW142520   0.151   2.906   5.515 -0.0991 -1.5099 -0.5313
13296SOL    HW242521   0.098   2.837   5.639  0.4672 -2.0204 -0.5689
13297SOL     OW42522   2.585   8.262   1.287  0.4118  0.4668  0.2463
13297SOL    HW142523   2.500   8.219   1.283  0.3809  0.5543 -0.0733
13297SOL    HW242524   2.644   8.198   1.327  0.5255 -0.1271 -0.8466
13298SOL     OW42525   7.709   4.824   0.386  0.1876 -0.0013  0.9173
13298SOL    HW142526   7.704   4.795   0.295 -2.3195 -0.6068  1.1766
13298SOL    HW242527   7.756   4.753   0.432  1.5049  0.3329  0.1253
13299SOL     OW42528   4.698   2.060   5.033  0.5228 -0.0112 -0.3172
13299SOL    HW142529   4.787   2.092   5.024 -0.4457  2.5353 -1.8628
13299SOL    HW242530   4.652   2.128   5.082 -0.8991 -0.5579 -0.8160
13300SOL     OW42531   2.559   7.246   8.908  0.4879  0.0056  0.5209
13300SOL    HW142532   2.501   7.176   8.934 -1.8232  0.8708 -1.8188
13300SOL    HW242533   2.589   7.221   8.820  2.7659  0.1778  1.1774
13301SOL     OW42534   7.236   3.760   8.702 -0.1369  0.0483 -0.0164
13301SOL    HW142535   7.328   3.745   8.681 -0.2183  0.4926 -0.7287
13301SOL    HW242536   7.237   3.837   8.760 -0.0585  0.0330  0.0023
13302SOL     OW42537   3.958   5.820   0.259  0.1500  0.0552  0.3405
13302SOL    HW142538   3.881   5.811   0.204  1.2462 -1.9869 -1.0047
13302SOL    HW242539   4.007   5.893   0.220  0.1638 -0.3678 -0.4514
13303SOL     OW42540   1.185   3.757   9.376  0.7092  0.3136  0.1270
13303SOL    HW142541   1.131   3.827   9.413 -2.1298 -2.2547  1.2000
13303SOL    HW242542   1.235   3.724   9.451  1.5791  0.7103 -0.2552
13304SOL     OW42543   3.511   5.042   9.828 -0.6622  0.5260  0.1052
13304SOL    HW142544   3.423   5.006   9.821  0.0162 -1.1817 -0.0426
13304SOL    HW242545   3.568   4.966   9.842  0.9767  1.4140 -1.3310
13305SOL     OW42546   5.161   2.647   0.170  0.2211  0.0876 -0.5379
13305SOL    HW142547   5.249   2.646   0.208 -0.7233 -1.0008  1.8822
13305SOL    HW242548   5.138   2.739   0.165  1.6336  0.4186 -1.6460
13306SOL     OW42549   7.839   6.498   6.652  0.6911 -0.3211  0.0311
13306SOL    HW142550   7.834   6.409   6.618 -1.6403 -0.1915 -0.1518
13306SOL    HW242551   7.818   6.554   6.578  2.3956  0.4579  0.0736
13307SOL     OW42552   9.413   3.916   9.940  0.0500 -0.1350  0.2406
13307SOL    HW142553   9.480   3.954   9.883 -0.1598 -0.4850 -0.2458
13307SOL    HW242554   9.391   3.987  10.001  1.3541 -0.2272  0.8633
13308SOL     OW42555   7.529   9.346   8.004  0.0059  0.3137 -0.0630
13308SOL    HW142556   7.607   9.386   8.043  0.6479 -0.4147 -0.5502
13308SOL    HW242557   7.471   9.329   8.078  0.6217  0.2126  0.4091
13309SOL     OW42558   2.780   6.699   6.116 -0.1180 -0.5020 -0.0978
13309SOL    HW142559   2.867   6.664   6.100 -0.3751 -0.7530 -0.9769
13309SOL    HW242560   2.758   6.671   6.205  1.0226  0.2576  0.4384
13310SOL     OW42561   6.275   4.341   3.840 -0.0334  0.8610 -0.3520
13310SOL    HW142562   6.337   4.294   3.896 -0.5410 -0.0563 -0.5309
13310SOL    HW242563   6.326   4.411   3.801  0.5651  0.9265  0.5197
13311SOL     OW42564   7.061   1.210   1.672 -0.2370 -0.1128 -0.3520
13311SOL    HW142565   7.008   1.131   1.685  0.1951 -0.5356 -1.1252
13311SOL    HW242566   7.000   1.282   1.689 -0.5912 -0.5985  0.5404
13312SOL     OW42567   0.799   2.489   9.109 -0.3589 -0.3062 -0.3413
13312SOL    HW142568   0.755   2.572   9.088  1.0516  0.4783 -0.3495
13312SOL    HW242569   0.881   2.493   9.059  0.3260 -1.1197  0.6853
13313SOL     OW42570   6.917   1.401   1.826  0.8471  0.0030 -0.0605
13313SOL    HW142571   6.944   1.457   1.898  1.6572 -0.4452 -0.0038
13313SOL    HW242572   6.824   1.384   1.842  0.8840  0.3679  0.5647
13314SOL     OW42573   5.544   6.035  10.336  0.1219 -0.5710  0.4092
13314SOL    HW142574   5.636   6.012  10.345 -0.2806 -1.8157  1.8037
13314SOL    HW242575   5.533   6.113  10.390  0.2591 -0.7237  0.6597
13315SOL     OW42576   4.475   6.454   5.406  0.0814 -0.6037 -0.2209
13315SOL    HW142577   4.451   6.500   5.487  0.7300 -1.5656  0.5378
13315SOL    HW242578   4.402   6.395   5.390 -0.7955  0.6893 -1.2465
13316SOL     OW42579   8.605   0.449   4.064  0.0470 -0.5072  0.0517
13316SOL    HW142580   8.670   0.385   4.034  0.6064  0.2503 -0.4018
13316SOL    HW242581   8.583   0.499   3.985 -2.0061 -1.5077 -0.0667
13317SOL     OW42582   2.039   3.541   1.428  0.6596 -0.0667  0.3883
13317SOL    HW142583   2.125   3.577   1.451  0.1179 -0.3194  3.2379
13317SOL    HW242584   2.010   3.496   1.508 -0.9211 -2.4402 -1.3815
13318SOL     OW42585   2.482   1.340   0.547 -0.1119  0.1167 -0.9628
13318SOL    HW142586   2.413   1.297   0.597 -0.4322  1.9700  0.2869
13318SOL    HW242587   2.463   1.317   0.456 -3.1644  1.5138 -0.8165
13319SOL     OW42588   8.845   1.926   9.380  0.2330 -0.1943 -0.6551
13319SOL    HW142589   8.914   1.975   9.335 -0.6073  1.4930 -0.1591
13319SOL    HW242590   8.875   1.921   9.471 -0.9833  1.9752 -0.0707
13320SOL     OW42591   1.024   0.471   0.486  0.0052 -0.2077 -0.6163
13320SOL    HW142592   1.010   0.452   0.579 -2.8038 -0.5451 -1.0107
13320SOL    HW242593   0.954   0.423   0.441  0.6531  0.7800 -2.8295
13321SOL     OW42594   8.883   2.716   0.765  0.3756  0.2485  0.1355
13321SOL    HW142595   8.899   2.779   0.835  1.0477  0.9075 -0.5878
13321SOL    HW242596   8.864   2.770   0.688 -2.5579 -0.4541  0.2473
13322SOL     OW42597   8.103   0.603   3.350  0.2792 -0.2418  0.0852
13322SOL    HW142598   8.108   0.688   3.306  0.7932  0.4175  1.3670
13322SOL    HW242599   8.194   0.582   3.371  0.0656 -0.6762  0.5865
13323SOL     OW42600   1.160   4.713   8.575  0.7353  0.6006 -0.0925
13323SOL    HW142601   1.071   4.746   8.563  0.0407 -1.6295 -1.8053
13323SOL    HW242602   1.149   4.633   8.627  2.1197  1.6874  2.0603
13324SOL     OW42603   6.536   7.462   7.596  0.5432  0.1887  0.1564
13324SOL    HW142604   6.559   7.394   7.534  2.9503  1.0843 -0.0597
13324SOL    HW242605   6.548   7.544   7.548 -1.6755  0.8506  0.5957
13325SOL     OW42606   3.198   2.649   4.697  0.0545  0.1148 -0.3674
13325SOL    HW142607   3.140   2.604   4.636 -0.8330  0.7233  0.0135
13325SOL    HW242608   3.255   2.702   4.642  0.9283 -1.2222 -0.8082
13326SOL     OW42609   9.403   9.716   0.562 -0.2144  0.0170  0.1900
13326SOL    HW142610   9.424   9.751   0.648  0.4083  0.8577 -0.2851
13326SOL    HW242611   9.467   9.757   0.503  0.7547 -2.1480 -0.3752
13327SOL     OW42612   7.807   7.954   3.014  0.1286  0.8636  0.2330
13327SOL    HW142613   7.756   7.915   3.085 -1.3679  1.3581 -0.5436
13327SOL    HW242614   7.792   8.048   3.022 -0.2457  0.9096 -0.8728
13328SOL     OW42615   5.037   7.486   5.347 -0.7201  0.0029 -0.2545
13328SOL    HW142616   4.953   7.532   5.344 -0.9953 -0.5437 -1.6961
13328SOL    HW242617   5.094   7.536   5.289 -0.9713 -1.3024 -1.7067
13329SOL     OW42618   0.516   3.600  10.005 -0.1818 -0.0361  0.0453
13329SOL    HW142619   0.555   3.521  10.043  1.8001  0.2849 -1.2158
13329SOL    HW242620   0.450   3.567   9.943 -1.0599 -0.6045  1.2273
13330SOL     OW42621   3.650   1.137   5.272  0.0369 -0.1200  0.4435
13330SOL    HW142622   3.621   1.228   5.283  1.2725  0.1819  1.4461
13330SOL    HW242623   3.706   1.121   5.348 -0.5384 -1.8890  0.5315
13331SOL     OW42624   9.925   9.269   7.195 -0.1893 -0.2058  0.3612
13331SOL    HW142625   9.913   9.360   7.169 -0.5572 -1.3565 -4.5496
13331SOL    HW242626   9.840   9.228   7.175  0.8939 -2.1103 -0.6085
13332SOL     OW42627   2.508   5.360   8.351 -0.1477  0.3149  0.2529
13332SOL    HW142628   2.602   5.344   8.348 -0.4205 -1.4136 -1.2229
13332SOL    HW242629   2.494   5.433   8.292  0.1752 -0.1792 -0.4566
13333SOL     OW42630   5.373   1.977  10.049  0.4548  0.0693 -0.5956
13333SOL    HW142631   5.372   1.920   9.972  0.0505  0.0307 -0.5643
13333SOL    HW242632   5.280   1.993  10.068  0.4910 -1.0360  0.6981
13334SOL     OW42633   2.784   0.353   2.677  0.2256 -0.4224  0.2518
13334SOL    HW142634   2.732   0.282   2.639  0.8734 -1.7102  1.6728
13334SOL    HW242635   2.873   0.339   2.643  0.7361 -1.3828  1.8569
13335SOL     OW42636   8.609   6.715   7.251  0.5859 -0.0245  0.1892
13335SOL    HW142637   8.581   6.670   7.331 -1.4090  0.7571  0.0034
13335SOL    HW242638   8.688   6.763   7.277  0.8036 -0.9389  1.2858
13336SOL     OW42639   2.926   2.660   0.701 -0.1947 -0.2975 -0.3864
13336SOL    HW142640   2.991   2.590   0.691 -1.4615 -1.4505 -0.8220
13336SOL    HW242641   2.930   2.708   0.618 -0.2604 -0.6726 -0.6064
13337SOL     OW42642   5.816   2.297   2.367  0.3254 -0.0912  0.0302
13337SOL    HW142643   5.903   2.321   2.333  0.7655 -1.4435  0.1315
13337SOL    HW242644   5.759   2.368   2.339  1.1723  0.0907 -1.3746
13338SOL     OW42645   4.049   8.068   2.338 -0.1609  0.2540 -0.0186
13338SOL    HW142646   4.121   8.008   2.322  0.5641  1.0264  0.3072
13338SOL    HW242647   4.030   8.105   2.251  0.2934  0.5596  0.0105
13339SOL     OW42648   4.210   8.615   6.040 -0.1239 -0.6688  0.2965
13339SOL    HW142649   4.234   8.699   6.000 -0.8486 -0.4761  0.2609
13339SOL    HW242650   4.173   8.639   6.125  0.0232 -0.9826  0.4498
13340SOL     OW42651  10.232   8.538   7.326  0.2611 -0.0335  0.3342
13340SOL    HW142652  10.247   8.592   7.403  1.7966 -1.0698  0.8100
13340SOL    HW242653  10.139   8.516   7.330  0.0422  0.9853  1.1774
13341SOL     OW42654   8.843   5.029   1.336 -0.2696 -0.0028  0.0665
13341SOL    HW142655   8.805   4.941   1.333 -1.1379  0.3680 -0.4046
13341SOL    HW242656   8.907   5.026   1.407  0.2877 -1.2360 -0.4588
13342SOL     OW42657   7.615   2.800   6.370 -0.1492 -0.3484  0.2844
13342SOL    HW142658   7.578   2.734   6.428 -0.8273  0.2685  0.5661
13342SOL    HW242659   7.700   2.821   6.409 -0.4498 -0.1919  0.8756
13343SOL     OW42660   0.605   3.369  10.078 -0.0518  0.2860  0.1154
13343SOL    HW142661   0.516   3.341  10.096 -0.1210 -0.8107 -1.7410
13343SOL    HW242662   0.659   3.291  10.093  0.4125  0.5448 -0.1620
13344SOL     OW42663   0.784   2.081   5.135  0.6322  0.5583  0.3522
13344SOL    HW142664   0.875   2.058   5.119  0.7232  2.0433 -1.7108
13344SOL    HW242665   0.736   2.040   5.064 -0.0375  1.3082  0.3550
13345SOL     OW42666   4.154   7.145   2.006 -0.0549  0.3399  0.0879
13345SOL    HW142667   4.164   7.234   2.040  0.1548 -0.7213  3.1806
13345SOL    HW242668   4.078   7.111   2.052 -0.6731 -0.8384 -1.7104
13346SOL     OW42669   3.983   1.313   1.271 -0.2471 -0.0767  0.0718
13346SOL    HW142670   3.965   1.403   1.242 -1.2709 -0.2454  0.1636
13346SOL    HW242671   4.047   1.280   1.208 -0.8479  0.2821 -0.7394
13347SOL     OW42672   2.512   8.594   3.566 -0.0954  0.4593  0.3491
13347SOL    HW142673   2.530   8.500   3.570 -0.4729  0.4250  2.0220
13347SOL    HW242674   2.534   8.619   3.476 -1.9547 -1.5994 -0.7662
13348SOL     OW42675   2.623   5.530   3.269  0.2348  0.4116  0.2383
13348SOL    HW142676   2.593   5.613   3.231  1.6132  0.7738 -0.1326
13348SOL    HW242677   2.553   5.502   3.327 -0.5011  1.5430 -0.0925
13349SOL     OW42678   7.768   0.117   2.176  0.3444 -0.0076 -0.1284
13349SOL    HW142679   7.716   0.154   2.247  0.5617  2.3261 -1.1150
13349SOL    HW242680   7.848   0.086   2.219 -0.0286  0.3037  0.8079
13350SOL     OW42681   1.379   9.133   8.733 -0.4497  0.1665 -0.2440
13350SOL    HW142682   1.416   9.169   8.813 -0.5567 -1.1338  0.4138
13350SOL    HW242683   1.429   9.175   8.662 -0.9938  2.0446  0.4347
13351SOL     OW42684   6.487   5.792   3.194  0.3700 -0.1744 -0.1591
13351SOL    HW142685   6.502   5.835   3.279  0.4731 -2.1336  0.8898
13351SOL    HW242686   6.400   5.822   3.167  0.6706  1.0994  0.2327
13352SOL     OW42687   8.760   9.201   0.854  1.1867 -0.2228 -0.0086
13352SOL    HW142688   8.689   9.151   0.812  0.3010  0.2483  0.9076
13352SOL    HW242689   8.716   9.267   0.906  2.3344  0.8936 -0.3931
13353SOL     OW42690   8.859   3.714   8.286 -0.0606 -0.0897  0.5925
13353SOL    HW142691   8.941   3.683   8.248  0.6143 -0.0848  1.9678
13353SOL    HW242692   8.808   3.634   8.302 -0.1513 -0.1254  0.1363
13354SOL     OW42693   2.772   5.990   5.583 -0.8844 -0.4423  0.3938
13354SOL    HW142694   2.687   5.953   5.609 -1.1986  0.0863  0.1550
13354SOL    HW242695   2.784   5.961   5.493 -0.9898 -0.2237  0.3066
13355SOL     OW42696   9.377   1.147   7.518 -0.3073  0.1770 -0.4798
13355SOL    HW142697   9.391   1.148   7.424 -0.8385 -0.1502 -0.5652
13355SOL    HW242698   9.383   1.239   7.544 -2.8966  0.6330 -1.2682
13356SOL     OW42699   0.646   4.589   4.127 -0.2853 -0.2139 -0.2289
13356SOL    HW142700   0.683   4.669   4.164  1.0820 -0.7764 -0.3157
13356SOL    HW242701   0.652   4.601   4.032 -1.1860  0.0596 -0.2620
13357SOL     OW42702   4.660   7.263   9.060  0.1556  0.5044  0.1816
13357SOL    HW142703   4.620   7.349   9.042  1.1951  0.7948 -0.9018
13357SOL    HW242704   4.743   7.284   9.101 -0.4078 -0.0728  1.6906
13358SOL     OW42705   5.974   6.729   8.859  0.3642 -0.2135  0.2922
13358SOL    HW142706   6.042   6.747   8.794 -1.8443  1.1960 -1.8119
13358SOL    HW242707   5.909   6.678   8.812 -1.0820  0.4077  1.5382
13359SOL     OW42708   3.237   5.987   4.965  0.0566 -0.7882 -0.1225
13359SOL    HW142709   3.272   5.922   5.025 -0.5692 -0.6497  0.4111
13359SOL    HW242710   3.248   6.071   5.011  1.3076 -0.4411 -1.0098
13360SOL     OW42711   0.498   3.254   1.602  0.2061  0.5750 -0.2544
13360SOL    HW142712   0.541   3.179   1.643 -1.5814 -0.4960 -0.2349
13360SOL    HW242713   0.422   3.271   1.658 -2.4180 -1.0245 -3.0015
13361SOL     OW42714   0.017   0.291   5.730  0.2432 -0.3692  0.1313
13361SOL    HW142715  -0.028   0.310   5.813 -0.3977  0.7781 -0.4500
13361SOL    HW242716   0.079   0.364   5.720 -1.4307  0.8999 -1.5894
13362SOL     OW42717   2.862   5.259   6.070 -0.6532 -0.0399 -0.7752
13362SOL    HW142718   2.826   5.347   6.085 -1.1032 -0.1035 -1.4416
13362SOL    HW242719   2.804   5.201   6.119  1.3508  0.2419  2.1923
13363SOL     OW42720   4.076   4.857   4.785  0.3582  0.0913 -0.0777
13363SOL    HW142721   4.106   4.906   4.708 -2.1749  1.1794 -0.4670
13363SOL    HW242722   4.066   4.767   4.754  0.3858  0.3099 -0.7294
13364SOL     OW42723   4.419   8.159   6.441 -0.3827 -0.4817  0.0072
13364SOL    HW142724   4.384   8.086   6.492  2.7012 -2.8779 -0.9946
13364SOL    HW242725   4.486   8.198   6.498  0.3329 -0.6682 -0.6778
13365SOL     OW42726   6.845   9.170   5.774 -0.0418  0.2771  0.4009
13365SOL    HW142727   6.911   9.234   5.799  0.2619 -0.2808  1.0557
13365SOL    HW242728   6.890   9.086   5.779 -0.3317  0.0299 -0.7957
13366SOL     OW42729   0.735   2.455   8.317  0.1869 -0.5705 -0.3558
13366SOL    HW142730   0.653   2.504   8.322  0.4932 -0.1028  0.3049
13366SOL    HW242731   0.717   2.384   8.256  0.3858  1.6446 -3.1979
13367SOL     OW42732   8.219   4.275  10.045 -0.1691 -0.6888 -0.5239
13367SOL    HW142733   8.280   4.252   9.976 -0.0456 -0.5529 -0.4606
13367SOL    HW242734   8.146   4.318   9.999 -1.1275 -2.5388 -0.8269
13368SOL     OW42735   5.874   6.349   8.419 -0.1257  0.1894  0.1200
13368SOL    HW142736   5.939   6.323   8.353  0.4138  2.0267 -0.1127
13368SOL    HW242737   5.844   6.266   8.456  1.3616 -0.7693 -0.7125
13369SOL     OW42738   9.231   6.642   8.511 -0.3530  0.1136 -0.5978
13369SOL    HW142739   9.325   6.660   8.518 -0.1321 -1.3502  0.6834
13369SOL    HW242740   9.193   6.725   8.482  1.3001  0.7961 -0.9409
13370SOL     OW42741   3.811   2.159   0.496 -0.1218 -0.3307  0.2362
13370SOL    HW142742   3.767   2.115   0.424 -0.0812 -0.7393  0.4565
13370SOL    HW242743   3.742   2.174   0.561 -0.2080  0.2495  0.0216
13371SOL     OW42744   0.722   6.329   8.784  0.3414 -0.7479 -0.1840
13371SOL    HW142745   0.731   6.354   8.692 -0.0394 -1.6511 -0.4727
13371SOL    HW242746   0.683   6.406   8.826 -1.1787 -0.9640 -1.1225
13372SOL     OW42747   1.229   2.406   9.045 -0.5318 -0.0387  0.2091
13372SOL    HW142748   1.226   2.334   8.982 -0.5529  2.1726 -2.4936
13372SOL    HW242749   1.281   2.473   9.002  1.5454  0.7765  3.6241
13373SOL     OW42750   2.465   7.954   5.029 -0.3306  0.0850  0.0113
13373SOL    HW142751   2.479   7.899   4.951 -2.8290  0.5641 -0.8668
13373SOL    HW242752   2.465   7.892   5.102  0.1515 -0.6206 -0.5715
13374SOL     OW42753   6.541   8.215   6.413 -0.0180 -0.0171 -0.0849
13374SOL    HW142754   6.470   8.153   6.398  0.6605 -0.5063 -1.4689
13374SOL    HW242755   6.621   8.166   6.392  0.6198  0.9551 -0.0322
13375SOL     OW42756   6.415   7.631   0.477  0.0448 -0.3794 -0.0418
13375SOL    HW142757   6.340   7.576   0.499 -0.0971 -0.3237 -0.3705
13375SOL    HW242758   6.477   7.572   0.435  1.0551 -0.8578  1.9805
13376SOL     OW42759   4.468   0.301   8.593  0.1410 -0.0810  0.1795
13376SOL    HW142760   4.532   0.355   8.546  0.4812 -1.2116 -0.6821
13376SOL    HW242761   4.519   0.258   8.662 -0.0160  0.2247  0.4917
13377SOL     OW42762   7.315   7.531   3.861 -0.3722 -0.6937  0.1060
13377SOL    HW142763   7.319   7.558   3.953 -0.2327  0.7169 -0.2962
13377SOL    HW242764   7.226   7.496   3.851 -1.0597  0.8830  0.3480
13378SOL     OW42765   8.965   3.800   0.629 -0.4635  0.5213 -0.1361
13378SOL    HW142766   8.982   3.809   0.723 -2.2437  0.3125  0.2476
13378SOL    HW242767   9.051   3.805   0.588  0.3070  1.0534  1.4725
13379SOL     OW42768   3.707   1.264   1.255 -0.5545 -0.2060 -0.4289
13379SOL    HW142769   3.798   1.286   1.275 -1.2053  1.7485  0.8113
13379SOL    HW242770   3.703   1.259   1.160  0.9815 -1.1036 -0.4743
13380SOL     OW42771   9.421   0.404   9.606  0.1142  0.0195  0.3810
13380SOL    HW142772   9.391   0.492   9.584  3.6686  1.5501  1.0364
13380SOL    HW242773   9.474   0.416   9.685  0.9558 -2.6788  0.3230
13381SOL     OW42774   7.532   1.788   1.704  0.2091 -0.0295 -0.1950
13381SOL    HW142775   7.550   1.880   1.720 -0.0727 -0.1091  0.6318
13381SOL    HW242776   7.509   1.752   1.790 -1.9307 -0.3569 -0.8458
13382SOL     OW42777   1.463   8.254   4.171 -0.7418 -0.3186 -0.4009
13382SOL    HW142778   1.437   8.163   4.179  0.2413 -0.5574  0.3037
13382SOL    HW242779   1.546   8.251   4.124 -0.1105  0.1067  0.6672
13383SOL     OW42780   7.118   2.894   6.056  0.1277  0.4832 -0.5881
13383SOL    HW142781   7.192   2.947   6.088 -0.2036  0.9030 -0.5062
13383SOL    HW242782   7.138   2.877   5.964  0.3484  0.5560 -0.5534
13384SOL     OW42783   3.470   5.829   3.097 -0.2119  0.1381 -0.2844
13384SOL    HW142784   3.451   5.900   3.160 -0.7497 -0.1978 -0.0627
13384SOL    HW242785   3.545   5.784   3.135 -1.3501 -0.8850  0.8291
13385SOL     OW42786  10.024   9.085   6.348  0.4689 -0.4769  0.1967
13385SOL    HW142787  10.003   8.996   6.321 -1.7599 -0.0927  0.4067
13385SOL    HW242788  10.075   9.074   6.428  2.4226 -1.5407 -1.1204
13386SOL     OW42789   8.568   5.544   2.645 -0.1903 -0.7749  0.2195
13386SOL    HW142790   8.614   5.525   2.727  1.7920 -2.2193 -1.1262
13386SOL    HW242791   8.517   5.465   2.627 -0.1583 -0.6994 -0.2169
13387SOL     OW42792   1.274   5.791   4.731  0.3453  0.4092  0.1652
13387SOL    HW142793   1.193   5.807   4.682 -0.0958 -2.9080 -0.3920
13387SOL    HW242794   1.343   5.800   4.665 -0.1011 -2.1710 -0.7754
13388SOL     OW42795   8.499  10.218   1.909  0.6715  0.4720  0.2994
13388SOL    HW142796   8.416  10.170   1.911  0.1890  1.2944  0.9084
13388SOL    HW242797   8.497  10.272   1.988  1.7463  0.5846  0.2650
13389SOL     OW42798   6.828   6.363   1.883 -0.1830 -0.1752  0.4416
13389SOL    HW142799   6.765   6.365   1.810  0.0056  3.3798  0.1969
13389SOL    HW242800   6.786   6.307   1.948 -2.4625  0.0628 -0.6926
13390SOL     OW42801   1.033   8.904   2.165  0.4468 -0.3013  0.0468
13390SOL    HW142802   0.983   8.860   2.096  0.4249  1.0904 -0.8614
13390SOL    HW242803   1.109   8.941   2.119  1.2832 -0.7064  1.0639
13391SOL     OW42804   1.363   1.631   0.826 -0.5979  0.2069 -0.2180
13391SOL    HW142805   1.296   1.676   0.877 -0.0144 -0.0013  0.7587
13391SOL    HW242806   1.321   1.613   0.742 -1.0777  1.9431 -0.3941
13392SOL     OW42807   3.171   0.396   7.199 -0.1625 -0.0303  0.1142
13392SOL    HW142808   3.179   0.301   7.211 -1.2502 -0.1268  0.1873
13392SOL    HW242809   3.193   0.433   7.284 -0.0492 -0.2356  0.1750
13393SOL     OW42810   3.700   8.255   9.358 -0.3153 -0.1405  0.4121
13393SOL    HW142811   3.664   8.168   9.373  0.4554 -0.6822 -0.7620
13393SOL    HW242812   3.788   8.252   9.396 -0.4990  0.3380  0.9039
13394SOL     OW42813   5.549   9.814  10.046 -0.4778  0.2327 -0.3171
13394SOL    HW142814   5.483   9.784   9.983 -0.0912  0.4685 -0.8349
13394SOL    HW242815   5.563   9.906  10.025 -0.2035  0.2639 -0.0116
13395SOL     OW42816   8.845   4.163   6.953  0.1879 -0.0964 -0.1635
13395SOL    HW142817   8.840   4.124   7.040 -2.6870 -0.6461 -0.4513
13395SOL    HW242818   8.789   4.107   6.899  2.1483  0.0203 -2.4878
13396SOL     OW42819   0.691   3.834   7.487 -0.2998  0.2044 -0.3364
13396SOL    HW142820   0.650   3.753   7.518 -0.4605  0.0107 -1.0515
13396SOL    HW242821   0.774   3.806   7.448 -0.0264  0.4684  0.0458
13397SOL     OW42822   6.851   8.312   3.072  0.7826 -0.3211 -0.2131
13397SOL    HW142823   6.915   8.367   3.117  0.6705 -1.2163  1.0856
13397SOL    HW242824   6.776   8.370   3.057  0.7794 -0.0226  0.8798
13398SOL     OW42825   2.456   3.888   2.615  0.3971 -0.6304  0.3383
13398SOL    HW142826   2.390   3.898   2.685  0.7959 -0.9057  0.7578
13398SOL    HW242827   2.419   3.936   2.541 -1.0072 -2.0615  0.0626
13399SOL     OW42828   8.527   7.324   2.862 -0.2967  0.2597 -0.1087
13399SOL    HW142829   8.464   7.251   2.857 -0.9651  0.7485  0.8216
13399SOL    HW242830   8.551   7.341   2.771 -1.6726  0.1818 -0.5147
13400SOL     OW42831   6.534   3.138   8.480 -0.3971  0.6773  0.5375
13400SOL    HW142832   6.498   3.049   8.485 -0.9364  0.8972  0.6071
13400SOL    HW242833   6.525   3.162   8.388  0.0783  0.5266  0.4497
13401SOL     OW42834   6.825   7.564   3.281  0.5544 -0.5340  0.1073
13401SOL    HW142835   6.867   7.484   3.312  1.0195  0.4331  2.1439
13401SOL    HW242836   6.746   7.572   3.334  0.4284  0.2712 -0.1919
13402SOL     OW42837   0.056   1.800   0.708  0.2393  0.6117 -0.3691
13402SOL    HW142838   0.144   1.789   0.744 -0.0520  0.6650  0.3903
13402SOL    HW242839   0.044   1.895   0.703  0.6670  0.6088 -1.6103
13403SOL     OW42840   2.285   3.620   2.288 -0.5179 -0.1526 -0.4464
13403SOL    HW142841   2.229   3.573   2.349 -1.3111 -1.3848 -2.0495
13403SOL    HW242842   2.329   3.552   2.238  2.5824  0.7635  0.8170
13404SOL     OW42843   5.592  10.294   5.275  0.1980 -0.2298 -0.1566
13404SOL    HW142844   5.529  10.300   5.346  0.5898  1.1754  0.0910
13404SOL    HW242845   5.675  10.321   5.313  0.4216  0.5160 -1.1259
13405SOL     OW42846   4.372   3.017   8.673  0.1410 -0.3568  0.2418
13405SOL    HW142847   4.300   3.076   8.650  0.0912  0.9798  3.3313
13405SOL    HW242848   4.450   3.058   8.635 -0.3235 -0.1961 -0.5613
13406SOL     OW42849   4.512   1.642   8.030 -0.2426  0.2861 -0.0890
13406SOL    HW142850   4.452   1.637   7.956  0.4325  0.3476 -0.6513
13406SOL    HW242851   4.594   1.606   7.997 -0.3188 -1.0308  1.0566
13407SOL     OW42852   9.644   7.967   1.614 -0.3279  0.4536 -0.2341
13407SOL    HW142853   9.613   7.985   1.703 -0.6494 -0.5557 -0.1286
13407SOL    HW242854   9.662   7.873   1.614 -0.6842  0.3784 -1.3511
13408SOL     OW42855   0.325   4.239   6.310  0.3181 -0.2086  0.2239
13408SOL    HW142856   0.261   4.305   6.283 -0.3886 -0.8561  0.2971
13408SOL    HW242857   0.409   4.275   6.282 -0.3372 -0.9489 -3.2697
13409SOL     OW42858   5.031   3.243   3.803 -0.0033  0.5145  0.1293
13409SOL    HW142859   5.108   3.291   3.833 -0.4711  0.6434  1.1375
13409SOL    HW242860   5.048   3.152   3.828  0.1654  0.4007 -0.3675
13410SOL     OW42861   6.600   1.889   4.189 -0.2202  0.1427  0.3776
13410SOL    HW142862   6.574   1.961   4.131 -1.1422 -1.7888 -1.7134
13410SOL    HW242863   6.684   1.860   4.155 -0.4348 -0.5542  0.4395
13411SOL     OW42864   9.150   8.094   8.838  0.3795 -0.7611  0.1124
13411SOL    HW142865   9.127   8.141   8.918 -0.7226  1.8974 -1.6144
13411SOL    HW242866   9.231   8.135   8.808 -0.2605 -0.3227 -1.1017
13412SOL     OW42867   3.739   9.525  10.141  0.0157  0.1692  0.2540
13412SOL    HW142868   3.809   9.571  10.095 -0.4603  0.4578 -0.1917
13412SOL    HW242869   3.746   9.435  10.110 -0.3247  0.3705 -0.4198
13413SOL     OW42870   1.573   2.380   1.163  0.1435  0.3405  0.9454
13413SOL    HW142871   1.477   2.377   1.156  0.2706  0.3028 -1.7572
13413SOL    HW242872   1.597   2.294   1.198 -0.7582 -0.1359  0.4388
13414SOL     OW42873   9.373   9.281  10.339 -0.3281 -0.2084 -0.2776
13414SOL    HW142874   9.314   9.288  10.415 -0.4597  0.1143 -0.4064
13414SOL    HW242875   9.323   9.318  10.267 -1.5043 -3.4265 -1.2953
13415SOL     OW42876   6.913   8.053   8.532  0.0240  0.0922 -0.0521
13415SOL    HW142877   7.004   8.032   8.552 -0.3122  0.0649  1.6261
13415SOL    HW242878   6.884   7.982   8.474  1.0554  0.1059 -0.6065
13416SOL     OW42879   4.036   0.476   2.296 -0.1298 -0.0180  0.1710
13416SOL    HW142880   4.111   0.478   2.355 -0.2427  1.3828  0.3163
13416SOL    HW242881   3.989   0.396   2.320  1.0858 -0.7079  0.3451
13417SOL     OW42882   5.675   0.292   7.391 -0.0106  0.2250  0.1636
13417SOL    HW142883   5.749   0.322   7.338  1.2542  1.1591  2.2921
13417SOL    HW242884   5.599   0.332   7.350  1.0035  1.6333 -0.4558
13418SOL     OW42885   8.556   4.821   1.992 -0.0079  0.0248 -0.4651
13418SOL    HW142886   8.497   4.783   1.927 -1.3876  0.4125  0.5072
13418SOL    HW242887   8.509   4.813   2.075  0.6023  1.8312  0.1102
13419SOL     OW42888   5.093   7.692   6.749 -0.0292  0.0274  0.0826
13419SOL    HW142889   5.154   7.642   6.803 -0.5109  0.5803  1.1778
13419SOL    HW242890   5.008   7.652   6.766 -0.2514  0.4880  0.0850
13420SOL     OW42891   0.078   3.157   0.993 -0.6219  0.4691  0.0431
13420SOL    HW142892   0.144   3.101   0.951  1.0062  2.0111  0.3976
13420SOL    HW242893   0.086   3.136   1.086  0.8647  2.0250  0.3337
13421SOL     OW42894   9.568   5.547   7.558 -0.2412 -0.6478 -0.1706
13421SOL    HW142895   9.480   5.546   7.521 -0.7082 -1.6164  0.9132
13421SOL    HW242896   9.555   5.560   7.652  0.7650 -0.6893 -0.0128
13422SOL     OW42897   3.690   9.158   5.097  0.1910 -0.3456  0.4666
13422SOL    HW142898   3.604   9.171   5.058 -0.2660 -0.2170  1.4928
13422SOL    HW242899   3.728   9.086   5.046 -1.5740 -2.2230  1.6290
13423SOL     OW42900   5.075   6.413   0.672 -0.3221  0.1598 -0.5498
13423SOL    HW142901   5.143   6.417   0.605 -0.5367 -0.6003 -0.8296
13423SOL    HW242902   5.004   6.363   0.631 -1.0531  0.9432 -0.2642
13424SOL     OW42903   6.136   1.144   4.046 -0.2069 -0.4751 -0.0362
13424SOL    HW142904   6.174   1.140   4.134  0.2964  0.2168 -0.2142
13424SOL    HW242905   6.099   1.232   4.040  0.2963 -0.3015 -0.7293
13425SOL     OW42906   4.354   2.209   2.365 -0.3362  0.3147  0.1484
13425SOL    HW142907   4.403   2.155   2.427  2.4425 -0.0546 -2.1861
13425SOL    HW242908   4.262   2.184   2.379  0.4298 -1.7661  2.1324
13426SOL     OW42909   4.112   2.570   9.731 -0.2284 -0.3882  0.3857
13426SOL    HW142910   4.162   2.555   9.812  1.2357  0.1239 -0.3807
13426SOL    HW242911   4.100   2.665   9.728 -0.5721 -0.4383  0.1607
13427SOL     OW42912   7.552   2.922   4.302 -0.2450  0.5930 -0.2486
13427SOL    HW142913   7.505   2.860   4.357  1.1847 -0.2424  0.0950
13427SOL    HW242914   7.509   3.006   4.318 -0.0309  0.3441  2.0141
13428SOL     OW42915   0.960   5.731   2.630  0.2632 -0.1468 -0.3468
13428SOL    HW142916   1.000   5.698   2.711 -0.8154  0.3535  0.4120
13428SOL    HW242917   1.010   5.811   2.610 -1.8895  2.0085  2.0846
13429SOL     OW42918   1.746   3.257   5.723  0.5883 -0.2689  0.1383
13429SOL    HW142919   1.722   3.324   5.660  0.9687  1.6906  1.9613
13429SOL    HW242920   1.685   3.270   5.796 -0.4853 -3.0905 -0.1277
13430SOL     OW42921   8.488   7.237   4.065  0.1597 -0.0042  0.3616
13430SOL    HW142922   8.531   7.231   3.980  2.5944  0.4620  1.4856
13430SOL    HW242923   8.559   7.239   4.128 -1.5721 -2.4419  2.6079
13431SOL     OW42924   1.471   5.338   1.941 -0.4920  0.6367 -0.1348
13431SOL    HW142925   1.424   5.346   1.858 -0.1324 -0.8902 -0.5101
13431SOL    HW242926   1.562   5.321   1.916 -0.5033 -0.5347  0.5362
13432SOL     OW42927   6.190   5.912   8.270 -0.7053 -0.2185  0.1794
13432SOL    HW142928   6.166   5.835   8.322  1.5122 -0.6785  0.6321
13432SOL    HW242929   6.231   5.875   8.192 -0.0151  0.4808  0.2000
13433SOL     OW42930   6.074  10.042   2.854  0.2195 -0.0007  0.4338
13433SOL    HW142931   6.001  10.043   2.792 -1.2836 -0.6071  2.1130
13433SOL    HW242932   6.128   9.968   2.827  0.3813  0.5949 -0.9729
13434SOL     OW42933   1.686   2.658   8.421 -0.1617  0.1607  0.5598
13434SOL    HW142934   1.712   2.749   8.412  2.1629 -0.5583 -0.8941
13434SOL    HW242935   1.748   2.622   8.485 -0.9036 -0.4509  0.9454
13435SOL     OW42936   9.392   1.322   1.088 -0.2032 -0.1784  0.1191
13435SOL    HW142937   9.377   1.412   1.059 -1.2143 -0.5174 -0.4522
13435SOL    HW242938   9.413   1.274   1.008  0.5004 -0.4225  0.4446
13436SOL     OW42939   9.053   3.385   5.311  0.0203 -0.7344 -0.1443
13436SOL    HW142940   9.078   3.377   5.219 -0.1143  1.1225 -0.3662
13436SOL    HW242941   9.124   3.343   5.359  1.3727  0.5103 -0.9857
13437SOL     OW42942   8.359   0.248   8.241  0.4145  0.1529  0.1350
13437SOL    HW142943   8.301   0.310   8.285 -0.7814 -0.5361 -0.3912
13437SOL    HW242944   8.421   0.303   8.194 -0.9576  1.0052 -0.7739
13438SOL     OW42945   3.959   7.857   4.469  0.0513 -0.1231  0.2344
13438SOL    HW142946   3.994   7.805   4.397  2.8857  0.4099  1.0915
13438SOL    HW242947   3.926   7.937   4.427 -0.1389 -0.6479 -0.6361
13439SOL     OW42948   2.143   5.771   1.904  0.0848 -0.1511 -0.4851
13439SOL    HW142949   2.078   5.734   1.844  0.5237 -0.6599 -0.6524
13439SOL    HW242950   2.177   5.695   1.952  0.0078  0.2046  0.1507
13440SOL     OW42951   3.800   2.379   6.990  0.1190 -0.3573  0.1509
13440SOL    HW142952   3.712   2.370   6.952  0.2168 -0.4368 -0.0598
13440SOL    HW242953   3.858   2.341   6.924  0.5006  1.3535 -0.5304
13441SOL     OW42954   3.424   4.963   2.857  0.5229  0.4897  0.1554
13441SOL    HW142955   3.392   5.049   2.884  0.7672  0.5025  0.4133
13441SOL    HW242956   3.456   4.976   2.768 -1.7981  0.0700 -0.7927
13442SOL     OW42957   5.581   9.359   9.796  0.0894  0.3212  0.2108
13442SOL    HW142958   5.506   9.333   9.850  0.0496  0.2020  0.0982
13442SOL    HW242959   5.636   9.411   9.855  0.3892 -0.3762  0.5592
13443SOL     OW42960   5.184   4.679   8.729  0.1101  0.0347  0.2140
13443SOL    HW142961   5.251   4.624   8.769 -0.2434  0.7041  1.8019
13443SOL    HW242962   5.105   4.625   8.732  0.6585 -1.0268 -2.2972
13444SOL     OW42963  10.310   1.005   3.706  0.1541  1.0390  0.0033
13444SOL    HW142964  10.286   0.988   3.797 -0.5123  0.5651 -0.2475
13444SOL    HW242965  10.264   1.087   3.684 -0.9034  0.3824 -0.3328
13445SOL     OW42966   6.769   4.448   4.960  0.5633 -0.0470 -0.4990
13445SOL    HW142967   6.849   4.452   4.908  0.7797 -0.8774 -0.2494
13445SOL    HW242968   6.713   4.516   4.923  1.6965  1.1342 -0.1378
13446SOL     OW42969   7.502   4.072   1.465 -0.0042 -0.2553  0.0506
13446SOL    HW142970   7.412   4.092   1.493 -0.0834 -0.2655 -0.1928
13446SOL    HW242971   7.534   4.153   1.426  0.2773 -0.0976  0.6058
13447SOL     OW42972   1.591   8.682   8.210  0.0531 -0.2866 -0.5434
13447SOL    HW142973   1.508   8.727   8.217  0.7939  1.1669 -0.8127
13447SOL    HW242974   1.657   8.750   8.224  1.2138 -1.7363  1.7513
13448SOL     OW42975   0.049   3.724   9.497  0.2099  0.2211  0.1292
13448SOL    HW142976  -0.025   3.778   9.525 -0.4542  0.0305 -1.2133
13448SOL    HW242977   0.084   3.769   9.420  0.1588 -0.8197 -0.5182
13449SOL     OW42978   7.489   8.071   0.486 -0.6110 -0.3401  0.4270
13449SOL    HW142979   7.548   8.117   0.426  0.3651 -1.8892  0.1331
13449SOL    HW242980   7.419   8.133   0.503  0.8561  1.3877  0.4024
13450SOL     OW42981   3.299   6.783   1.831  0.0378  0.0464  0.1450
13450SOL    HW142982   3.219   6.744   1.795  0.6474 -1.1040 -0.0190
13450SOL    HW242983   3.344   6.819   1.755 -1.2665  2.5899  0.4716
13451SOL     OW42984   4.866   6.078   5.604  0.3029 -0.1962 -0.7176
13451SOL    HW142985   4.819   6.069   5.687  0.6038 -1.4015 -0.6583
13451SOL    HW242986   4.801   6.116   5.544  0.0657  0.6323  0.0339
13452SOL     OW42987   0.145   3.336   2.557 -0.3959  0.5101 -0.0626
13452SOL    HW142988   0.152   3.309   2.649 -0.2489  0.8942  0.0390
13452SOL    HW242989   0.081   3.406   2.557 -2.2415 -1.0864 -0.5982
13453SOL     OW42990   2.084   1.186   2.126  0.1086 -0.0522  0.0515
13453SOL    HW142991   2.064   1.278   2.108  0.3424 -0.2360 -1.2852
13453SOL    HW242992   2.018   1.159   2.190 -0.9371  0.6287 -0.7085
13454SOL     OW42993   0.012   6.539   8.679 -0.6541 -0.6248  0.8128
13454SOL    HW142994   0.017   6.493   8.594 -0.4392 -0.3909  0.6968
13454SOL    HW242995  -0.049   6.610   8.664  0.3919  0.2244  0.4615
13455SOL     OW42996   8.349   5.139   5.678 -0.6692 -0.0356  0.1759
13455SOL    HW142997   8.361   5.095   5.594 -2.2744 -1.0983  0.4469
13455SOL    HW242998   8.421   5.106   5.732  2.3676  3.0895 -1.5751
13456SOL     OW42999   8.861   1.399   3.518  0.1749 -0.2779  0.2143
13456SOL    HW143000   8.767   1.385   3.527  0.0761  0.5684  0.6634
13456SOL    HW243001   8.868   1.482   3.471  0.7152 -2.5598 -4.2262
13457SOL     OW43002   3.444   4.188   9.428 -0.1381  0.2244 -0.2993
13457SOL    HW143003   3.380   4.166   9.361  0.0133  1.6423 -0.9521
13457SOL    HW243004   3.403   4.162   9.510 -1.5265  1.0014 -0.7120
13458SOL     OW43005   6.955   7.610   2.060 -0.3971 -0.3361 -0.0683
13458SOL    HW143006   6.977   7.637   2.150 -2.2642  0.5902  0.1577
13458SOL    HW243007   6.861   7.629   2.052 -0.7255 -2.3465 -1.5525
13459SOL     OW43008   9.641   9.753   6.136 -0.7639 -0.2433 -0.0067
13459SOL    HW143009   9.582   9.816   6.176 -1.1738  0.8206 -2.1548
13459SOL    HW243010   9.690   9.715   6.210 -1.4839  1.5566  1.4584
13460SOL     OW43011   4.622   4.824   9.837 -0.6431  0.5288  0.5109
13460SOL    HW143012   4.709   4.847   9.807 -0.3716  0.9681  1.5943
13460SOL    HW243013   4.607   4.735   9.804 -0.4226  1.0291 -0.9888
13461SOL     OW43014  10.074   9.738   1.208 -0.8366  0.2983  0.1574
13461SOL    HW143015  10.048   9.645   1.211  1.9849 -0.5538  1.1708
13461SOL    HW243016  10.134   9.748   1.281  0.4026  2.4707 -1.0744
13462SOL     OW43017   3.394   7.656   8.347 -0.4560 -0.2709  0.1930
13462SOL    HW143018   3.434   7.569   8.345 -0.0760 -0.1095  0.5975
13462SOL    HW243019   3.368   7.668   8.438  0.6367  0.5439  0.4164
13463SOL     OW43020   6.303  10.078   8.480 -0.2016  0.0458  0.0057
13463SOL    HW143021   6.376  10.017   8.479  1.4415  1.8894  0.9690
13463SOL    HW243022   6.275  10.082   8.571 -1.1944 -0.2395 -0.2683
13464SOL     OW43023   2.852   4.168   6.578  0.0388 -0.6940  0.0422
13464SOL    HW143024   2.895   4.116   6.509 -0.8591  0.1192 -1.1590
13464SOL    HW243025   2.920   4.229   6.607  0.5761 -1.3718  0.2463
13465SOL     OW43026   7.925   6.193   5.410  0.1503 -0.2441  0.0981
13465SOL    HW143027   7.968   6.254   5.351  0.2188 -0.1014  0.2952
13465SOL    HW243028   7.962   6.108   5.388  1.4244  0.0204  1.0580
13466SOL     OW43029   6.352   3.929   6.698  0.0734 -0.3047 -0.0895
13466SOL    HW143030   6.281   3.969   6.748 -0.8687 -0.1563 -1.4983
13466SOL    HW243031   6.314   3.911   6.612  1.5246 -0.9310 -0.6297
13467SOL     OW43032   0.974   4.716   4.312 -0.0701  0.4207 -0.6317
13467SOL    HW143033   1.054   4.756   4.279 -0.2407 -0.5857 -2.3540
13467SOL    HW243034   0.911   4.724   4.240 -1.1907  0.2169  0.2897
13468SOL     OW43035   5.028   9.232   2.064  0.1028 -0.6944  0.0517
13468SOL    HW143036   5.109   9.272   2.033  0.1471 -0.7388  0.1103
13468SOL    HW243037   5.030   9.143   2.030  0.0485 -0.6758  0.0006
13469SOL     OW43038   6.280   8.233   8.706  0.5000 -0.0722  0.1649
13469SOL    HW143039   6.361   8.205   8.748 -0.0772 -0.4376  1.0796
13469SOL    HW243040   6.305   8.255   8.616  1.7014  0.3430  0.5822
13470SOL     OW43041   7.236   2.245   4.649  0.6213  0.1938 -0.4791
13470SOL    HW143042   7.324   2.256   4.684  0.6295  0.4834 -0.5863
13470SOL    HW243043   7.178   2.262   4.723  0.6222  1.4364 -0.7485
13471SOL     OW43044   8.075   1.677   3.773 -0.3272  0.1939  0.6890
13471SOL    HW143045   8.064   1.767   3.801 -0.7081  0.4309 -0.1949
13471SOL    HW243046   7.988   1.648   3.748  0.0232  0.0869 -0.4780
13472SOL     OW43047   2.103   9.453   7.335 -0.6337 -0.3597 -0.1888
13472SOL    HW143048   2.097   9.407   7.418  1.1899 -1.5890 -0.6694
13472SOL    HW243049   2.056   9.397   7.273 -1.5075  0.2712 -0.1134
13473SOL     OW43050   0.002   1.340  10.340  0.2512  0.1543 -0.1680
13473SOL    HW143051  -0.069   1.400  10.317  1.2227  0.5591 -2.3731
13473SOL    HW243052   0.060   1.391  10.395  0.0398  0.5891 -0.3427
13474SOL     OW43053   5.146   6.989   3.521  0.6034 -0.3207 -0.8637
13474SOL    HW143054   5.179   6.900   3.511  0.8103 -0.3696  0.1156
13474SOL    HW243055   5.074   6.996   3.458  1.4439 -0.7379 -1.8842
13475SOL     OW43056   6.954   9.174   8.991  0.3598 -0.3907  0.4189
13475SOL    HW143057   6.862   9.185   8.969  0.7366  0.6584 -0.7182
13475SOL    HW243058   6.968   9.079   8.989 -0.3143 -0.4849 -1.1138
13476SOL     OW43059   9.506   2.268   0.153 -0.1625 -0.7173 -0.8271
13476SOL    HW143060   9.560   2.195   0.124  0.2135 -0.5392 -0.5823
13476SOL    HW243061   9.531   2.282   0.245  0.2610  0.1398 -1.0544
13477SOL     OW43062   0.401   9.636   4.661  0.6236 -0.1183 -0.2878
13477SOL    HW143063   0.417   9.681   4.744  2.3590 -0.8216 -0.2053
13477SOL    HW243064   0.306   9.635   4.652  0.4000 -0.0959  1.7239
13478SOL     OW43065   7.281   0.879   1.891  0.1765  0.4607  0.5389
13478SOL    HW143066   7.374   0.858   1.888  0.0218 -0.2650  0.6478
13478SOL    HW243067   7.251   0.868   1.801 -0.0697 -0.5920  0.7385
13479SOL     OW43068   4.301   0.834   5.922  0.0514 -0.0070 -0.4222
13479SOL    HW143069   4.207   0.831   5.938  0.0325  0.3246 -0.4715
13479SOL    HW243070   4.311   0.894   5.849  0.3309  0.2297 -0.1925
13480SOL     OW43071   0.010   7.037   6.306 -0.4673  0.0042  0.5579
13480SOL    HW143072  -0.039   7.032   6.224  1.4349 -1.7544 -0.5570
13480SOL    HW243073   0.027   7.130   6.319 -0.0117  0.2479 -1.5570
13481SOL     OW43074   0.394   4.126   4.938 -0.0208  0.2515  0.3352
13481SOL    HW143075   0.468   4.079   4.977  0.1414  1.0645  1.0157
13481SOL    HW243076   0.398   4.103   4.845  0.2001 -0.8904  0.6070
13482SOL     OW43077   2.582   2.118   0.877  0.0710 -0.6362 -0.1820
13482SOL    HW143078   2.491   2.142   0.862  0.6328  0.3538 -2.4306
13482SOL    HW243079   2.580   2.066   0.957 -2.3355  0.0567  0.2969
13483SOL     OW43080   3.808   1.088   2.216  0.0858 -0.1507  0.0527
13483SOL    HW143081   3.879   1.028   2.195  1.9995 -0.0092  4.7265
13483SOL    HW243082   3.851   1.174   2.225 -1.7303  1.0685 -1.8894
13484SOL     OW43083   6.350   1.421  10.111  0.4877  0.0152 -0.7079
13484SOL    HW143084   6.300   1.343  10.132  0.7950  0.0406  0.1716
13484SOL    HW243085   6.413   1.393  10.044 -1.1141  0.1459 -2.3411
13485SOL     OW43086   1.836   4.250   8.605 -0.1537  0.3003  0.0825
13485SOL    HW143087   1.814   4.167   8.563  1.1995  1.0298 -2.2626
13485SOL    HW243088   1.790   4.316   8.554  0.8290  1.1668  0.2803
13486SOL     OW43089   7.312   4.698   5.404  0.4116 -0.6891  0.1213
13486SOL    HW143090   7.257   4.678   5.329  0.5111  0.3541 -0.2525
13486SOL    HW243091   7.284   4.637   5.472 -1.6234  0.1906  0.1452
13487SOL     OW43092   6.081   9.435   5.183 -0.0175  0.1571 -0.2262
13487SOL    HW143093   6.090   9.530   5.173 -0.8428  0.3559  0.8204
13487SOL    HW243094   5.988   9.421   5.199  0.2742 -0.6966  0.8710
13488SOL     OW43095   9.758   3.321   9.449 -0.1091  0.0316 -0.1080
13488SOL    HW143096   9.690   3.363   9.502 -0.1891 -0.8926  0.5403
13488SOL    HW243097   9.774   3.383   9.378 -1.4261  0.3965 -0.1185
13489SOL     OW43098   4.556   0.466   4.157 -0.0383 -0.0655 -0.5154
13489SOL    HW143099   4.577   0.482   4.065 -1.0022  1.3035 -0.5117
13489SOL    HW243100   4.532   0.551   4.192 -1.1260 -0.8182  0.6357
13490SOL     OW43101   0.742   2.303   0.011  0.3283  0.2352 -0.1658
13490SOL    HW143102   0.665   2.250   0.030  1.4514 -1.0575  1.0448
13490SOL    HW243103   0.756   2.354   0.091  0.6638  0.5377 -0.4139
13491SOL     OW43104   6.600   8.085   4.431 -0.6433 -0.4925  0.0577
13491SOL    HW143105   6.659   8.011   4.447 -0.0201 -0.1084 -0.4178
13491SOL    HW243106   6.536   8.052   4.369 -0.3974 -0.6521 -0.1107
13492SOL     OW43107   2.320   4.311   9.356  0.4203 -0.2474  0.2145
13492SOL    HW143108   2.317   4.243   9.423  0.5565  0.2909  0.7846
13492SOL    HW243109   2.375   4.380   9.395 -0.1658  0.4217 -0.1133
13493SOL     OW43110   5.768   8.941   5.255 -0.4094 -0.2058 -0.5041
13493SOL    HW143111   5.737   8.850   5.261  1.2064 -0.6989  3.1277
13493SOL    HW243112   5.846   8.936   5.200  0.4358 -1.3305  0.7411
13494SOL     OW43113   2.665   7.454   6.122 -0.0265 -0.1250  0.5944
13494SOL    HW143114   2.734   7.435   6.185  0.1827 -0.2587  0.3269
13494SOL    HW243115   2.641   7.545   6.140  1.0437  0.3182 -0.0737
13495SOL     OW43116   0.964   7.438   8.887  0.3020  0.2345 -0.3573
13495SOL    HW143117   0.943   7.440   8.980 -0.2496  0.2973 -0.4786
13495SOL    HW243118   0.896   7.492   8.846 -0.7830 -1.5476 -1.0436
13496SOL     OW43119   3.000  10.091   5.609 -0.0858  0.2022 -0.3512
13496SOL    HW143120   2.930  10.139   5.564 -0.6391  0.7545  1.0457
13496SOL    HW243121   2.975   9.999   5.600 -1.2426  0.4128  0.4952
13497SOL     OW43122   4.488   5.871   4.371  0.6544 -0.0938 -0.4407
13497SOL    HW143123   4.422   5.821   4.323 -0.2759  0.5751  0.1087
13497SOL    HW243124   4.439   5.940   4.416  1.6836  0.2058  0.2765
13498SOL     OW43125   2.781   2.675   4.645 -0.1767  0.0864 -0.7342
13498SOL    HW143126   2.852   2.635   4.594 -0.7985  1.0634 -2.4685
13498SOL    HW243127   2.701   2.643   4.603 -0.8624 -1.4180  1.5092
13499SOL     OW43128   2.474   6.343   7.103 -0.0808  0.1150 -0.3443
13499SOL    HW143129   2.549   6.287   7.124  0.3699 -0.0597 -2.2875
13499SOL    HW243130   2.500   6.389   7.024 -0.8966  2.2807  0.5706
13500SOL     OW43131   6.777  10.303   6.048 -0.0152 -0.0330  0.3185
13500SOL    HW143132   6.703  10.362   6.064 -1.5297 -2.1497  1.8992
13500SOL    HW243133   6.813  10.286   6.136  2.3125  0.8148 -0.4022
13501SOL     OW43134   8.807   5.453   9.756  0.0483  0.5937  0.1135
13501SOL    HW143135   8.805   5.484   9.846 -1.3520  1.1083 -0.0662
13501SOL    HW243136   8.779   5.362   9.761  1.3867  0.1754  0.3351
13502SOL     OW43137   0.262   0.367   7.483  0.4252  0.4367 -0.9374
13502SOL    HW143138   0.264   0.348   7.576  1.5521  1.2973 -0.7607
13502SOL    HW243139   0.315   0.298   7.443 -1.6164 -1.0544 -1.2024
13503SOL     OW43140   8.547   7.972  10.244 -0.2262  0.1875  0.0878
13503SOL    HW143141   8.493   8.051  10.236  0.3033  0.4469 -1.2569
13503SOL    HW243142   8.502   7.908  10.189  0.0478 -0.0464  0.1363
13504SOL     OW43143   9.025   0.395   3.547  0.8521 -0.1748 -0.0560
13504SOL    HW143144   8.930   0.408   3.549  0.6285 -1.5761 -0.6638
13504SOL    HW243145   9.058   0.474   3.503 -0.0480  0.2040 -0.0844
13505SOL     OW43146   7.549   8.504   2.934  0.3956  0.3007  0.2912
13505SOL    HW143147   7.525   8.501   3.026 -0.5454 -2.3072  0.0658
13505SOL    HW243148   7.502   8.579   2.899  0.4619  1.1023  1.8408
13506SOL     OW43149   7.718   5.630   8.106 -0.2825  0.0052 -0.3469
13506SOL    HW143150   7.737   5.542   8.140 -0.6316 -0.3129 -0.9665
13506SOL    HW243151   7.635   5.620   8.060 -1.1691  1.0230  0.9787
13507SOL     OW43152   3.682   3.685   8.467  0.2907  0.1064 -0.4527
13507SOL    HW143153   3.728   3.742   8.530  1.1854 -1.3225  0.2310
13507SOL    HW243154   3.591   3.685   8.498  0.4497  0.4774  0.0391
13508SOL     OW43155   2.683   4.761   2.155  0.0972 -0.0863  0.7053
13508SOL    HW143156   2.778   4.772   2.148  0.0580 -0.4827 -0.6104
13508SOL    HW243157   2.659   4.813   2.232  1.1032  1.8365 -0.2057
13509SOL     OW43158   1.760   2.579   4.626 -0.0083 -0.8327 -0.1397
13509SOL    HW143159   1.854   2.568   4.614  0.0752 -0.9548  0.5726
13509SOL    HW243160   1.751   2.638   4.700 -0.4954 -0.4138 -0.5254
13510SOL     OW43161   5.242   5.759   8.867  0.2782  0.6771 -0.0414
13510SOL    HW143162   5.209   5.786   8.781  2.3638  2.0517 -0.4949
13510SOL    HW243163   5.243   5.840   8.919  3.1227  0.8447 -0.1923
13511SOL     OW43164   5.392   4.710   7.041  0.2730 -0.0228  0.4301
13511SOL    HW143165   5.399   4.778   6.974 -0.5394  0.1424  0.4987
13511SOL    HW243166   5.404   4.758   7.124 -0.8555  0.1611  0.5136
13512SOL     OW43167   9.744   4.799   8.562 -0.2366  0.1305 -0.3431
13512SOL    HW143168   9.738   4.894   8.551 -0.8214  0.0579 -0.6577
13512SOL    HW243169   9.792   4.788   8.644  0.9760  0.6914 -0.9488
13513SOL     OW43170   6.300   6.897   7.560 -0.1499 -0.5815 -0.6886
13513SOL    HW143171   6.216   6.880   7.517 -1.0494 -1.1442  1.1891
13513SOL    HW243172   6.288   6.865   7.650  1.6689  0.4451 -0.0282
13514SOL     OW43173   3.366   5.552   5.620  0.7648 -0.4077 -0.2521
13514SOL    HW143174   3.435   5.526   5.681  0.5185  0.1323  0.2528
13514SOL    HW243175   3.289   5.502   5.647  0.4549  0.3835  0.3432
13515SOL     OW43176   1.648   7.264   6.316  0.3137  0.2559 -0.8271
13515SOL    HW143177   1.558   7.239   6.337  0.5655 -0.9642 -1.1028
13515SOL    HW243178   1.690   7.277   6.401 -0.5923  2.7241 -0.7037
13516SOL     OW43179   5.694   1.578   7.368 -0.2082  0.2853 -0.4668
13516SOL    HW143180   5.607   1.544   7.389  0.0589 -0.2672 -0.2426
13516SOL    HW243181   5.715   1.540   7.283  0.4051 -0.7388  0.1229
13517SOL     OW43182   2.130   3.101   7.886 -0.5070  0.4460 -0.1225
13517SOL    HW143183   2.173   3.070   7.807 -1.0307  1.0508 -0.6469
13517SOL    HW243184   2.165   3.189   7.900 -0.4460  0.3594  0.3011
13518SOL     OW43185   1.962   5.674   3.954  0.1792  0.0745  0.6899
13518SOL    HW143186   1.952   5.739   4.024 -0.1993  0.9009 -0.1044
13518SOL    HW243187   1.902   5.604   3.977  1.2544 -0.4461  2.0409
13519SOL     OW43188   4.413   3.613   5.360  0.1413  0.6015  0.1631
13519SOL    HW143189   4.449   3.598   5.273  0.6128  2.2687  0.0428
13519SOL    HW243190   4.480   3.581   5.420 -0.0308 -0.2135 -0.0642
13520SOL     OW43191   0.309   1.489   2.319 -0.5058  0.7534 -0.1869
13520SOL    HW143192   0.218   1.518   2.310 -0.2947  1.4758 -0.0689
13520SOL    HW243193   0.313   1.450   2.406 -1.4728 -2.2342 -1.3457
13521SOL     OW43194   4.160   8.387   0.884  0.0276 -0.1354  0.0027
13521SOL    HW143195   4.069   8.399   0.911  0.1631 -0.1685  0.4829
13521SOL    HW243196   4.185   8.302   0.920 -0.5289 -1.3540 -2.2875
13522SOL     OW43197   7.533   4.533   0.018  0.2208  0.2172 -0.1819
13522SOL    HW143198   7.529   4.596  -0.053  1.4352  0.8035  0.2554
13522SOL    HW243199   7.503   4.581   0.096  0.6828  0.1216  0.0590
13523SOL     OW43200   6.607   1.216   5.778  0.4299  0.2595  0.0903
13523SOL    HW143201   6.624   1.309   5.793 -1.1965  0.8183 -1.2560
13523SOL    HW243202   6.669   1.192   5.710 -0.1460  0.7574 -0.6209
13524SOL     OW43203   5.970   8.368   0.061  0.0613 -0.4106 -0.0818
13524SOL    HW143204   5.961   8.286   0.013  1.2270 -1.5158  1.4752
13524SOL    HW243205   6.003   8.342   0.147 -1.7372  1.5007  1.2765
13525SOL     OW43206   8.558   6.708   1.523  0.0120 -0.0144  0.3653
13525SOL    HW143207   8.607   6.785   1.553  1.0253 -0.8460  0.9228
13525SOL    HW243208   8.470   6.720   1.558 -0.1223  1.3665 -0.3911
13526SOL     OW43209   4.683   9.883   1.436 -0.0784  0.2386 -0.4611
13526SOL    HW143210   4.593   9.860   1.462  0.0361  0.9678  0.6505
13526SOL    HW243211   4.690   9.853   1.345 -1.0329 -0.9575 -0.1675
13527SOL     OW43212   4.291   7.448   1.213 -0.6396 -0.2965  0.2817
13527SOL    HW143213   4.255   7.376   1.264  0.4142 -0.2688  1.1081
13527SOL    HW243214   4.324   7.510   1.278 -1.6686  1.0255 -0.4142
13528SOL     OW43215   5.124   6.050   0.235 -0.0460 -0.3688  0.2504
13528SOL    HW143216   5.208   6.096   0.225  0.0298 -0.7313 -0.9652
13528SOL    HW243217   5.149   5.961   0.259 -0.1318 -0.1872  1.0204
13529SOL     OW43218   8.581   9.828   1.634 -0.3520  0.0208  0.2613
13529SOL    HW143219   8.591   9.923   1.645  0.8260  0.1184 -1.3100
13529SOL    HW243220   8.660   9.791   1.673 -0.2828 -0.2214 -0.1056
13530SOL     OW43221   5.193   2.044   0.990  0.3196 -0.4275 -0.0596
13530SOL    HW143222   5.253   2.119   0.985 -0.0254 -0.1776 -0.6312
13530SOL    HW243223   5.225   1.984   0.922  0.4322 -0.6792  0.2148
13531SOL     OW43224  10.096   5.600   9.168  0.1224  0.1412 -0.3224
13531SOL    HW143225  10.111   5.658   9.243  0.3644 -0.5524  0.1726
13531SOL    HW243226  10.001   5.598   9.158 -0.0356 -1.1398  1.0830
13532SOL     OW43227   2.250   5.528   9.859 -0.3467 -0.3088  0.7258
13532SOL    HW143228   2.229   5.614   9.897 -1.9859 -0.0185 -0.7356
13532SOL    HW243229   2.325   5.546   9.801 -1.3477  0.3927 -0.3952
13533SOL     OW43230   9.487   0.596   7.519 -0.8109  0.6398 -0.1462
13533SOL    HW143231   9.434   0.564   7.592  0.7983  0.3282  0.9290
13533SOL    HW243232   9.557   0.646   7.560 -0.3183  1.1482 -1.5383
13534SOL     OW43233   8.425   5.828   0.363  0.3927  0.2294  0.0907
13534SOL    HW143234   8.411   5.786   0.448  2.8194 -1.5169 -0.2653
13534SOL    HW243235   8.346   5.881   0.349 -0.0849  0.5982  3.3936
13535SOL     OW43236   7.263   6.553   6.715 -0.5095 -0.3661  0.0648
13535SOL    HW143237   7.333   6.490   6.699 -0.0554  0.4515 -1.2841
13535SOL    HW243238   7.282   6.626   6.657 -2.0225  0.2455  0.2918
13536SOL     OW43239   6.462   1.375   9.264 -0.2888  0.2542  0.2077
13536SOL    HW143240   6.428   1.407   9.347 -0.1798 -0.7956  0.6695
13536SOL    HW243241   6.482   1.455   9.214  3.0251  1.1035  2.5243
13537SOL     OW43242   3.620   7.721   1.144 -0.3014 -0.0159  0.3145
13537SOL    HW143243   3.560   7.699   1.216 -1.4320 -2.6690 -1.2847
13537SOL    HW243244   3.674   7.643   1.133  1.1142  1.0359 -0.5398
13538SOL     OW43245   1.957   7.636   0.002 -0.4813 -0.5695  0.2615
13538SOL    HW143246   1.979   7.727  -0.017 -0.7162 -0.4254  0.6719
13538SOL    HW243247   1.997   7.586  -0.070  0.2475 -0.2106  0.4052
13539SOL     OW43248   4.487   7.313   7.903 -0.1862  0.3535 -0.2381
13539SOL    HW143249   4.499   7.399   7.944 -1.8306  1.4298 -1.8658
13539SOL    HW243250   4.566   7.300   7.851 -0.8136  1.9178 -1.6716
13540SOL     OW43251   5.681   9.905   9.261  0.3735 -0.2662  0.7993
13540SOL    HW143252   5.613   9.837   9.258  2.0085 -2.1247  2.4413
13540SOL    HW243253   5.754   9.869   9.210 -0.2458  2.3224 -2.1852
13541SOL     OW43254   8.117   0.004   1.176  0.8162 -0.7555  0.2450
13541SOL    HW143255   8.169  -0.047   1.238  0.2104 -1.1611  0.4284
13541SOL    HW243256   8.044   0.039   1.228 -0.1172 -1.7209 -0.3729
13542SOL     OW43257   1.419   6.600   0.945 -0.1618 -0.2045 -0.0953
13542SOL    HW143258   1.469   6.567   0.870 -0.1318 -1.0820  0.2972
13542SOL    HW243259   1.463   6.680   0.971  0.1118 -0.1487 -0.7165
13543SOL     OW43260   2.243   1.435   4.091  0.1440  0.6919  0.1776
13543SOL    HW143261   2.287   1.520   4.090 -0.6067  1.0967 -1.4487
13543SOL    HW243262   2.162   1.449   4.042  0.4788 -1.1816 -1.0314
13544SOL     OW43263   9.017   0.197   1.132 -0.3049  0.0314  0.2433
13544SOL    HW143264   8.921   0.191   1.135 -0.1965 -2.0892  1.4416
13544SOL    HW243265   9.042   0.148   1.054 -0.1719 -0.7013  0.7272
13545SOL     OW43266   9.668   9.746   2.331  0.5721 -0.3592  0.2819
13545SOL    HW143267   9.753   9.744   2.286  0.0157  0.8726 -0.9200
13545SOL    HW243268   9.667   9.830   2.377  0.1215 -0.4984  0.5354
13546SOL     OW43269   5.362   3.722   1.831  0.1390  0.1922  0.0274
13546SOL    HW143270   5.420   3.647   1.823  1.2921  1.0660 -0.0784
13546SOL    HW243271   5.336   3.743   1.741  0.4038  0.3556 -0.0128
13547SOL     OW43272   2.481   8.847   2.727  0.0113  0.5176  0.4339
13547SOL    HW143273   2.441   8.905   2.791  0.8927  1.8376 -0.1612
13547SOL    HW243274   2.517   8.906   2.660  1.4618 -0.6719  0.1117
13548SOL     OW43275   1.228   3.688   5.444 -0.2712  0.0697  0.1731
13548SOL    HW143276   1.178   3.619   5.486 -0.3942  0.1834  0.2151
13548SOL    HW243277   1.311   3.647   5.420 -0.3994 -0.1291  0.0683
13549SOL     OW43278   8.303   0.581   5.574 -0.1940 -0.1502 -0.1724
13549SOL    HW143279   8.265   0.497   5.547 -1.0317  0.0536  0.3134
13549SOL    HW243280   8.248   0.609   5.647  0.9379  0.1460  0.5938
13550SOL     OW43281   8.413   9.195   2.173 -0.1979 -0.3552  0.2174
13550SOL    HW143282   8.388   9.160   2.258 -2.5185  0.3555 -0.1030
13550SOL    HW243283   8.477   9.263   2.192  1.0519 -1.7217  1.1585
13551SOL     OW43284   0.860   1.078   0.282  0.0275  0.1188  0.4244
13551SOL    HW143285   0.851   1.135   0.206 -1.9226  0.5167  0.8974
13551SOL    HW243286   0.847   0.989   0.249  2.0652 -0.0240 -0.1412
13552SOL     OW43287   4.746   5.664   8.190 -0.0774  0.0988  0.0246
13552SOL    HW143288   4.775   5.607   8.261 -1.3937  0.8158  1.1758
13552SOL    HW243289   4.767   5.753   8.220  1.5321  0.3260 -1.5461
13553SOL     OW43290   3.050   5.599   5.887  0.3134 -0.0509  0.2879
13553SOL    HW143291   3.098   5.668   5.934 -1.4404  0.7439  1.0097
13553SOL    HW243292   2.986   5.646   5.834 -2.4530 -1.0418  2.4553
13554SOL     OW43293   8.780   9.629   2.176  1.1672 -0.3807  0.2853
13554SOL    HW143294   8.727   9.568   2.124 -0.1297  0.8502  0.1124
13554SOL    HW243295   8.786   9.707   2.121  1.6231  0.1663  1.1031
13555SOL     OW43296   4.120   2.425   4.331  0.6904  0.3926 -0.1528
13555SOL    HW143297   4.054   2.494   4.323 -0.3229 -0.2080  2.2022
13555SOL    HW243298   4.096   2.360   4.264 -0.1955  0.8886 -0.3261
13556SOL     OW43299   9.594   6.395   2.894 -0.3065  0.0814  0.1400
13556SOL    HW143300   9.576   6.431   2.807  0.2081 -0.9943 -0.4314
13556SOL    HW243301   9.507   6.380   2.932 -0.5649 -0.6216 -0.6942
13557SOL     OW43302   7.725   4.921   4.054 -0.6412  1.0086 -0.1893
13557SOL    HW143303   7.760   4.966   4.131 -0.0475  1.1666 -0.5482
13557SOL    HW243304   7.784   4.946   3.983  0.7657 -1.7462 -0.0878
13558SOL     OW43305   6.542   9.780   8.054 -0.0523 -0.3408 -0.5749
13558SOL    HW143306   6.539   9.765   7.959  2.2892  1.8188 -1.1200
13558SOL    HW243307   6.464   9.833   8.072 -0.4843 -0.7082 -1.2998
13559SOL     OW43308   4.824   1.312   3.644  0.2381 -0.2066  0.3469
13559SOL    HW143309   4.909   1.271   3.662  0.1567 -0.3518  0.4081
13559SOL    HW243310   4.844   1.404   3.628  0.4088 -0.2432  0.3483
13560SOL     OW43311   1.034   8.438   3.923  0.1951  0.0248 -0.5117
13560SOL    HW143312   0.987   8.508   3.967 -0.3256 -1.0859  0.7736
13560SOL    HW243313   1.109   8.420   3.979  0.2415 -0.5359 -0.7456
13561SOL     OW43314   2.919   7.565   0.056  0.3022 -0.3079 -0.7910
13561SOL    HW143315   2.973   7.487   0.039  2.2467  0.8703 -0.3348
13561SOL    HW243316   2.913   7.570   0.151 -0.0862 -0.0756 -0.8264
13562SOL     OW43317   5.557   0.189   9.338 -0.2222  0.3548 -0.0582
13562SOL    HW143318   5.504   0.265   9.362 -0.5849  0.0366  0.1598
13562SOL    HW243319   5.639   0.201   9.386 -0.6041  0.1758  0.6488
13563SOL     OW43320   0.397   0.678   0.587  0.0090 -0.6694 -0.2529
13563SOL    HW143321   0.472   0.706   0.639 -0.6395  0.8019 -0.0476
13563SOL    HW243322   0.328   0.662   0.651 -0.6610  0.7199 -0.5745
13564SOL     OW43323   0.776   4.559   8.484 -0.1641  0.0286 -0.0736
13564SOL    HW143324   0.769   4.539   8.577  0.1579 -1.3076 -0.3107
13564SOL    HW243325   0.842   4.498   8.451 -0.7180  0.0551 -1.2937
13565SOL     OW43326   1.157   6.868   4.499  0.1923  0.3478  0.0190
13565SOL    HW143327   1.146   6.874   4.594 -0.0540  1.3696 -0.0622
13565SOL    HW243328   1.070   6.889   4.464  0.0214 -1.0459 -0.4135
13566SOL     OW43329   6.690   1.803   1.810  0.2616 -0.3725  0.0732
13566SOL    HW143330   6.648   1.847   1.736 -0.7601  2.4261  2.1817
13566SOL    HW243331   6.622   1.746   1.846  0.8609 -2.0066 -1.1972
13567SOL     OW43332   2.269   1.410   6.801  0.1230  0.0454 -0.0587
13567SOL    HW143333   2.252   1.504   6.813  1.0499  0.0611  1.3492
13567SOL    HW243334   2.357   1.406   6.763  0.3770 -0.2525  0.5377
13568SOL     OW43335   6.370   5.119   1.788 -0.3232 -0.0972 -0.4717
13568SOL    HW143336   6.377   5.203   1.744 -0.2209  0.0436 -0.1917
13568SOL    HW243337   6.284   5.085   1.761  0.2845 -0.6325 -1.8282
13569SOL     OW43338   9.005   9.332   5.702  0.1954  0.1350 -0.2118
13569SOL    HW143339   9.035   9.284   5.779  1.3830 -0.3607 -0.9511
13569SOL    HW243340   8.950   9.270   5.654 -0.7829  0.5371  0.3602
13570SOL     OW43341   5.503   6.249   0.128  0.2587  0.0858  0.5941
13570SOL    HW143342   5.474   6.337   0.106  0.4069 -0.3292 -1.3917
13570SOL    HW243343   5.460   6.230   0.212 -0.3150  1.7648  0.7041
13571SOL     OW43344   5.104   2.483   9.016 -0.8157 -0.1665  0.2415
13571SOL    HW143345   5.047   2.425   9.067 -0.7763 -0.2330  0.2096
13571SOL    HW243346   5.046   2.521   8.949 -0.2292 -2.5650 -1.7862
13572SOL     OW43347   9.269   3.421   8.183  0.4574  0.7434  0.3402
13572SOL    HW143348   9.192   3.477   8.196 -0.7628 -0.8893  0.4853
13572SOL    HW243349   9.271   3.365   8.261  1.8945  0.8383  0.3967
13573SOL     OW43350   5.966   3.418   0.054 -0.3761 -0.4289 -0.3706
13573SOL    HW143351   5.884   3.463   0.031  0.0742  0.1063 -0.9554
13573SOL    HW243352   5.961   3.335   0.007 -0.8399 -0.6515  0.0593
13574SOL     OW43353   6.676   2.647   3.812  0.9793 -0.0934  0.1068
13574SOL    HW143354   6.631   2.702   3.876 -0.1843  0.2270 -0.9406
13574SOL    HW243355   6.723   2.582   3.865 -0.8530 -0.5346  1.2745
13575SOL     OW43356   3.278   2.766   7.345  0.4270 -0.2280  0.6105
13575SOL    HW143357   3.225   2.748   7.423  0.7538  0.3168  0.9630
13575SOL    HW243358   3.214   2.771   7.273  0.1907 -1.4112  0.7220
13576SOL     OW43359   2.742   5.517   6.216 -0.3909  0.0252  0.1762
13576SOL    HW143360   2.672   5.573   6.251  0.6603  0.6749  1.3308
13576SOL    HW243361   2.760   5.455   6.287 -0.9435 -1.2558 -0.7673
13577SOL     OW43362   9.134   3.703   2.615 -0.3173  0.0230  0.4375
13577SOL    HW143363   9.160   3.702   2.707 -0.1137 -0.4066  0.3735
13577SOL    HW243364   9.165   3.788   2.583  2.3552 -1.0213 -0.0130
13578SOL     OW43365   7.524   4.745   5.712  0.0761  0.5212 -0.3297
13578SOL    HW143366   7.562   4.682   5.651 -0.1716 -0.8083  0.8329
13578SOL    HW243367   7.594   4.808   5.728 -0.1457  1.4963 -2.6847
13579SOL     OW43368   6.269   4.784   4.177 -0.2581  0.1248  0.0479
13579SOL    HW143369   6.220   4.777   4.258 -2.8136 -1.5329 -1.5039
13579SOL    HW243370   6.261   4.876   4.151 -2.1567  0.0019  0.1166
13580SOL     OW43371   1.505   6.549   8.972  0.2870  0.1703  0.0016
13580SOL    HW143372   1.534   6.581   9.058 -1.2177  1.3764  0.1040
13580SOL    HW243373   1.450   6.473   8.992  0.5307  0.0010  0.0394
13581SOL     OW43374   4.008   3.372   5.994  0.2371  0.2708 -0.2468
13581SOL    HW143375   4.040   3.294   6.040  0.8283  1.1872  0.9450
13581SOL    HW243376   4.087   3.423   5.977 -0.2546  1.1073 -0.0718
13582SOL     OW43377   3.168   5.252   8.410 -0.0441 -0.0190 -0.1126
13582SOL    HW143378   3.221   5.173   8.422  0.0336 -0.0739 -0.7983
13582SOL    HW243379   3.201   5.313   8.476 -0.3096 -0.6592  0.6247
13583SOL     OW43380   0.018   9.708   9.420 -0.4615  0.1540  0.0067
13583SOL    HW143381   0.020   9.803   9.416  0.7696  0.2434  1.5734
13583SOL    HW243382   0.092   9.680   9.367  0.1616  0.1769  0.8325
13584SOL     OW43383   6.627   5.765   9.139 -0.1954 -0.0057 -0.0858
13584SOL    HW143384   6.599   5.708   9.067  0.9335  1.2973 -1.6436
13584SOL    HW243385   6.546   5.796   9.178 -0.8401 -0.7633 -0.7727
13585SOL     OW43386   5.403   2.611   8.467 -0.4975  0.0115  0.0108
13585SOL    HW143387   5.439   2.522   8.464 -0.4416 -0.0371  1.5228
13585SOL    HW243388   5.331   2.605   8.530  0.5896  1.3929  1.4580
13586SOL     OW43389   9.282   6.877   6.758  0.1309 -0.1940  0.3173
13586SOL    HW143390   9.216   6.810   6.745  1.2389 -1.2874  0.1617
13586SOL    HW243391   9.307   6.904   6.669  0.1933 -0.0898  0.3662
13587SOL     OW43392   9.038   5.108   8.703 -0.0359 -0.3347 -0.0971
13587SOL    HW143393   8.950   5.073   8.690  0.0006  0.0807 -1.6767
13587SOL    HW243394   9.052   5.167   8.629  1.5593 -0.3617  0.1356
13588SOL     OW43395   7.326   6.202   8.323  0.4653  0.1973 -0.0758
13588SOL    HW143396   7.277   6.207   8.240 -0.9459 -0.9907  0.6161
13588SOL    HW243397   7.301   6.281   8.371 -0.3932 -0.1375  0.0486
13589SOL     OW43398   9.021   6.507   9.480 -0.2904 -0.2666  0.2869
13589SOL    HW143399   8.982   6.455   9.551 -1.5571 -0.6709 -0.6623
13589SOL    HW243400   8.977   6.476   9.401  0.6765  0.5791 -0.6173
13590SOL     OW43401   0.508   5.994   6.436  0.3024 -0.1774 -0.8310
13590SOL    HW143402   0.435   5.975   6.376 -0.9820  0.3402  0.5027
13590SOL    HW243403   0.520   5.914   6.486  1.3504 -0.5962 -1.7168
13591SOL     OW43404   6.450   8.728   1.771  0.0845  0.2875  0.0990
13591SOL    HW143405   6.407   8.810   1.795  0.6977  0.8135 -0.5358
13591SOL    HW243406   6.396   8.692   1.700  1.5181  1.7839 -1.8616
13592SOL     OW43407   0.047   2.171   7.805  0.5077 -0.1139 -0.6784
13592SOL    HW143408  -0.037   2.125   7.813  1.5698 -1.9807  0.6164
13592SOL    HW243409   0.023   2.262   7.792 -1.7545 -0.3309  1.1732
13593SOL     OW43410   7.942   0.573   0.279  0.1639  0.4586 -0.0903
13593SOL    HW143411   7.994   0.517   0.222  2.1817  1.5441  0.5773
13593SOL    HW243412   7.905   0.514   0.345  1.9505 -0.1836  0.3830
13594SOL     OW43413   6.415  10.245   6.426 -0.0080  0.0832 -0.3649
13594SOL    HW143414   6.373  10.202   6.351 -0.2338  0.2882 -0.3588
13594SOL    HW243415   6.466  10.175   6.468  1.3847  0.3193 -1.6002
13595SOL     OW43416   7.411   7.931   7.556 -0.3089  0.3246  0.4313
13595SOL    HW143417   7.481   7.912   7.619 -0.2961  1.7533  0.8916
13595SOL    HW243418   7.331   7.928   7.608 -0.4961 -0.4290  0.0952
13596SOL     OW43419   0.317   7.757   1.230  0.3813  0.1547  0.0183
13596SOL    HW143420   0.246   7.718   1.178  0.0226  0.4981  0.2463
13596SOL    HW243421   0.374   7.798   1.165  1.3523 -1.6528 -0.3237
13597SOL     OW43422   5.809   4.225   6.273 -0.3304  0.7954 -0.0035
13597SOL    HW143423   5.723   4.188   6.254  1.2923 -2.4322 -1.8110
13597SOL    HW243424   5.799   4.266   6.359 -2.7873 -2.6079  1.5381
13598SOL     OW43425   0.071   4.463   2.186  0.0207  0.5446 -0.2819
13598SOL    HW143426  -0.011   4.418   2.206 -0.5513  1.0031 -1.4497
13598SOL    HW243427   0.139   4.406   2.219 -0.7365 -0.4930 -0.4605
13599SOL     OW43428   2.329   5.563   5.211  0.3067  0.1358 -0.0045
13599SOL    HW143429   2.298   5.637   5.263  1.2031  1.0082 -0.6781
13599SOL    HW243430   2.266   5.557   5.138 -0.3878 -0.4732  0.6261
13600SOL     OW43431   3.026   0.250   1.287  0.6930 -0.4800  0.4482
13600SOL    HW143432   3.010   0.297   1.370 -0.4598 -0.6521  0.3383
13600SOL    HW243433   3.120   0.236   1.286  0.7971  0.0020  1.4836
13601SOL     OW43434   4.194   1.340   5.351 -0.1012 -0.3345  0.2437
13601SOL    HW143435   4.223   1.404   5.416 -0.3388  1.3305 -1.2544
13601SOL    HW243436   4.122   1.383   5.305 -0.7368 -1.9626 -0.3519
13602SOL     OW43437   3.959   1.919   5.493 -0.2617 -0.2043  0.7156
13602SOL    HW143438   3.863   1.928   5.495 -0.4107 -1.6267  1.2714
13602SOL    HW243439   3.991   2.009   5.497 -1.5536  0.5623 -2.7856
13603SOL     OW43440   4.949   4.523   1.674 -0.5342 -0.2213 -0.4429
13603SOL    HW143441   4.996   4.576   1.739 -1.2160 -1.0030  0.7363
13603SOL    HW243442   4.869   4.572   1.656  0.4642  0.8762 -2.0901
13604SOL     OW43443  10.002   1.363   2.924 -0.3610 -0.5028  0.0473
13604SOL    HW143444   9.907   1.347   2.916 -0.5077  0.7011 -0.8525
13604SOL    HW243445  10.011   1.413   3.005 -0.3949 -1.2334  0.5170
13605SOL     OW43446   4.976   3.768   5.968 -0.3303  0.1526 -0.0417
13605SOL    HW143447   5.027   3.768   6.049 -1.7252  0.5519  0.8767
13605SOL    HW243448   4.913   3.697   5.979 -1.0920  0.7545 -0.3877
13606SOL     OW43449   5.571   4.727   8.029 -0.2231  0.4433 -0.4312
13606SOL    HW143450   5.492   4.755   7.983  1.1691 -1.6015 -4.5119
13606SOL    HW243451   5.548   4.642   8.067  0.1541 -0.6400 -2.4843
13607SOL     OW43452   9.737   5.606   1.620 -0.1163 -0.2989  0.4927
13607SOL    HW143453   9.645   5.621   1.643 -0.5785 -2.2619  0.0495
13607SOL    HW243454   9.741   5.615   1.525  0.0495 -0.7341  0.4565
13608SOL     OW43455   4.667   4.872   3.404 -0.0334  0.1971  0.2637
13608SOL    HW143456   4.655   4.967   3.405 -0.4457  0.1819  2.7646
13608SOL    HW243457   4.596   4.839   3.348  1.1775  1.4000 -2.1421
13609SOL     OW43458   0.365   0.065   9.709  0.5972  0.5468 -0.2226
13609SOL    HW143459   0.338  -0.025   9.691 -0.0436  1.0877 -2.1317
13609SOL    HW243460   0.285   0.117   9.701  0.7896  1.2276  1.6810
13610SOL     OW43461   8.431   3.705   4.488 -0.0739 -0.9395 -0.1450
13610SOL    HW143462   8.502   3.689   4.550  0.4419 -0.4849 -0.5933
13610SOL    HW243463   8.454   3.789   4.447 -1.6837  0.0016  0.7939
13611SOL     OW43464   9.303   4.705   1.601  0.5551  0.2815  0.6145
13611SOL    HW143465   9.240   4.755   1.654  0.0598  0.1127  0.1942
13611SOL    HW243466   9.389   4.729   1.636  0.1937 -1.1895  2.7362
13612SOL     OW43467   4.953   1.855   3.409 -0.1777 -0.2974  0.1974
13612SOL    HW143468   4.962   1.854   3.313  0.0842 -1.6703  0.2138
13612SOL    HW243469   4.860   1.842   3.425 -0.0767 -1.2023  0.1182
13613SOL     OW43470   2.725   5.490   0.897 -0.0080  0.1892 -0.2869
13613SOL    HW143471   2.702   5.400   0.921  2.6067 -0.5059 -0.0172
13613SOL    HW243472   2.706   5.496   0.804 -0.7579 -0.4278 -0.1857
13614SOL     OW43473   1.018   3.115  10.315  0.0636 -0.1252  0.4685
13614SOL    HW143474   0.946   3.065  10.352 -1.3745  2.4028  1.2989
13614SOL    HW243475   1.020   3.196  10.365  0.6770  1.7429 -2.3259
13615SOL     OW43476   5.136   2.087   2.293  0.0973  0.2326  0.0258
13615SOL    HW143477   5.174   2.012   2.247  0.0504  0.5034 -0.4511
13615SOL    HW243478   5.199   2.107   2.362  0.2370 -0.0762 -0.0099
13616SOL     OW43479   6.508   0.567   2.411 -0.0654 -0.2623  0.2267
13616SOL    HW143480   6.495   0.565   2.506  4.3323 -0.9868  1.0261
13616SOL    HW243481   6.527   0.659   2.391 -1.7813  0.0326 -0.1512
13617SOL     OW43482   5.809   0.177   4.555 -0.1725 -0.8047  0.1246
13617SOL    HW143483   5.894   0.220   4.549 -0.5310 -0.0014  0.5189
13617SOL    HW243484   5.766   0.220   4.629 -1.4036 -0.2979 -0.8366
13618SOL     OW43485   3.878   0.592   8.322  0.0693 -0.0184 -0.3493
13618SOL    HW143486   3.811   0.559   8.262  0.5621  0.9851 -1.4800
13618SOL    HW243487   3.834   0.660   8.373 -0.3954 -0.9876  0.5766
13619SOL     OW43488   3.621   4.344   9.245 -0.0743 -0.1136  0.4571
13619SOL    HW143489   3.576   4.344   9.161 -0.3371 -0.0348  0.5976
13619SOL    HW243490   3.573   4.281   9.299 -0.1078  0.0799  0.6558
13620SOL     OW43491   0.264   3.695   7.827  0.2391 -0.1343  0.4435
13620SOL    HW143492   0.313   3.716   7.907  1.2862  2.5005 -0.7779
13620SOL    HW243493   0.175   3.675   7.858  1.1234 -1.3402  2.4020
13621SOL     OW43494   1.946   7.005   9.120  0.5239 -0.6453  0.3077
13621SOL    HW143495   1.990   7.075   9.168  0.2713 -0.6328  0.5253
13621SOL    HW243496   1.892   7.050   9.056 -0.5520 -0.5790  1.2221
13622SOL     OW43497  10.149   2.434   9.520  0.3702 -0.2513 -0.2847
13622SOL    HW143498  10.162   2.500   9.588  0.6278  0.3576 -0.9048
13622SOL    HW243499  10.071   2.464   9.473  0.8671 -0.0093 -0.9820
13623SOL     OW43500   4.394   6.068   1.731 -0.4917  0.2952 -0.2307
13623SOL    HW143501   4.422   6.084   1.822  2.5286  1.6856 -1.2612
13623SOL    HW243502   4.369   5.976   1.729 -1.6404  0.4713  2.2003
13624SOL     OW43503   0.918   2.580   2.963  0.1820 -0.1346  0.0771
13624SOL    HW143504   0.891   2.538   2.881 -1.4060 -1.2450  1.1105
13624SOL    HW243505   0.947   2.667   2.937 -1.5314  0.0142 -1.5220
13625SOL     OW43506   1.414   0.924   2.145 -0.1354  0.4400  0.2760
13625SOL    HW143507   1.471   0.873   2.204  0.8251 -0.2674 -1.2133
13625SOL    HW243508   1.330   0.929   2.192  0.0820 -1.5627  0.9769
13626SOL     OW43509   8.440   4.839   6.327 -0.6365 -0.3673 -0.1408
13626SOL    HW143510   8.437   4.772   6.258  1.2316 -0.9220  0.2610
13626SOL    HW243511   8.458   4.791   6.407 -1.0457  0.4584  0.4652
13627SOL     OW43512   9.154   8.830   2.622 -0.2200  0.1782 -0.1277
13627SOL    HW143513   9.184   8.870   2.704  1.9402  0.3182 -0.9278
13627SOL    HW243514   9.222   8.767   2.600 -1.9687 -1.6580 -0.5876
13628SOL     OW43515   7.144   3.761   1.093  0.1663 -0.5470 -0.1366
13628SOL    HW143516   7.191   3.688   1.053 -0.6737 -0.3151 -1.6179
13628SOL    HW243517   7.053   3.730   1.099  0.3453 -0.7739  2.1457
13629SOL     OW43518   3.673   1.585   1.287  0.2188 -0.4077  0.2545
13629SOL    HW143519   3.664   1.643   1.362  1.0502 -0.1192  0.1461
13629SOL    HW243520   3.595   1.530   1.288 -1.6219  2.0305 -0.7833
13630SOL     OW43521   7.138   5.077   0.737  0.4128 -0.0145  0.0446
13630SOL    HW143522   7.096   5.019   0.801 -0.3336  0.4820  0.0233
13630SOL    HW243523   7.079   5.152   0.732  0.2312 -0.2269 -1.5189
13631SOL     OW43524   1.282   9.606   3.542  0.4197  0.0294 -0.5761
13631SOL    HW143525   1.324   9.528   3.577 -0.0841 -0.0600 -0.1494
13631SOL    HW243526   1.328   9.679   3.582  1.5272 -0.0135 -1.7158
13632SOL     OW43527   7.835   7.664   5.601 -0.1249  0.4376 -0.0806
13632SOL    HW143528   7.795   7.680   5.687 -0.7808 -0.2437 -0.2536
13632SOL    HW243529   7.782   7.717   5.541  1.2360  2.0928  0.1063
13633SOL     OW43530   1.700   4.478   3.817  0.2856  0.7015  0.5133
13633SOL    HW143531   1.762   4.470   3.744  0.3747  1.0551  0.5470
13633SOL    HW243532   1.615   4.456   3.778  0.2021  1.7019  0.0871
13634SOL     OW43533   8.723   4.252   2.276 -0.2051 -0.0683 -0.5335
13634SOL    HW143534   8.789   4.187   2.300  0.7955  1.1201  0.1144
13634SOL    HW243535   8.689   4.283   2.360  0.9293  1.7739 -0.6823
13635SOL     OW43536   2.646   1.492   8.502  0.1969  0.1852 -0.0892
13635SOL    HW143537   2.713   1.558   8.486 -2.1556  2.3799 -1.8393
13635SOL    HW243538   2.678   1.414   8.458  1.6873  1.0856 -0.6779
13636SOL     OW43539   8.214   3.810   3.733  0.5286 -0.0091 -0.3273
13636SOL    HW143540   8.118   3.804   3.727  0.5199  0.4714 -0.7477
13636SOL    HW243541   8.246   3.757   3.660  0.5552  0.6590 -0.8108
13637SOL     OW43542   7.728   1.776   8.107 -0.3807 -0.2630 -0.0628
13637SOL    HW143543   7.650   1.721   8.094 -0.0017 -0.3621 -2.1901
13637SOL    HW243544   7.801   1.718   8.089  0.1306  0.2872  0.2139
13638SOL     OW43545   5.066   2.976  10.176 -0.1652  0.5964  0.4310
13638SOL    HW143546   5.012   3.014  10.107  1.6018  2.3435 -0.0614
13638SOL    HW243547   5.005   2.924  10.228 -2.5598  3.3468  0.5695
13639SOL     OW43548   8.339   1.845   6.152 -0.2335  0.4375  0.0160
13639SOL    HW143549   8.248   1.862   6.174 -0.1248  0.1289  0.7170
13639SOL    HW243550   8.336   1.810   6.063 -0.8566 -0.2162  0.2874
13640SOL     OW43551   5.143   9.472   4.271 -0.0048 -0.0869 -0.0893
13640SOL    HW143552   5.091   9.473   4.191 -0.4687  0.9023  0.1970
13640SOL    HW243553   5.096   9.413   4.330  0.4180 -0.9308 -0.5868
13641SOL     OW43554   8.161   1.159   3.236  0.1800  0.2446 -0.9932
13641SOL    HW143555   8.250   1.165   3.201  0.0067 -0.1227 -1.4967
13641SOL    HW243556   8.106   1.148   3.159 -0.3857  1.2554 -0.7487
13642SOL     OW43557   1.161   3.899   5.649  0.4646 -0.2595  0.1401
13642SOL    HW143558   1.196   3.852   5.573  0.2501  0.5309 -0.4577
13642SOL    HW243559   1.076   3.932   5.620  0.3333 -0.0303  0.7635
13643SOL     OW43560   8.493   8.375   0.129  0.2948 -0.4066 -0.2710
13643SOL    HW143561   8.562   8.320   0.165 -1.0429 -2.0650 -0.0765
13643SOL    HW243562   8.474   8.438   0.198  1.7572  0.2368 -0.4326
13644SOL     OW43563   5.692   4.649   3.889 -0.7757 -0.5229 -0.1992
13644SOL    HW143564   5.762   4.691   3.838 -1.8261 -0.0670 -1.3050
13644SOL    HW243565   5.714   4.555   3.887 -1.1818 -0.6102 -2.1584
13645SOL     OW43566   3.505   5.167   6.931 -1.2951 -0.2947  0.0224
13645SOL    HW143567   3.588   5.182   6.884 -0.0039  0.3915  2.3359
13645SOL    HW243568   3.441   5.218   6.882  0.2788  1.6422 -0.1916
13646SOL     OW43569   7.068   0.896   3.830  0.4208  0.4699  0.1466
13646SOL    HW143570   7.100   0.971   3.780  0.7144  0.9889  1.0787
13646SOL    HW243571   6.973   0.897   3.818  0.6523 -1.6370 -3.4214
13647SOL     OW43572   5.854   3.831   5.630  0.3960  0.3068  0.2874
13647SOL    HW143573   5.849   3.785   5.714 -0.2480 -1.4093 -0.6330
13647SOL    HW243574   5.769   3.872   5.620 -0.6479 -1.9184 -0.7691
13648SOL     OW43575   4.263   4.292   9.128 -0.4320  0.4955  0.4319
13648SOL    HW143576   4.326   4.361   9.110 -0.6036  1.0930  1.9837
13648SOL    HW243577   4.202   4.331   9.190 -1.7218 -0.4131 -0.2200
13649SOL     OW43578   1.362   5.918   5.365  0.3324  0.6975 -0.3917
13649SOL    HW143579   1.299   5.984   5.396  1.2265  1.5571 -0.3358
13649SOL    HW243580   1.443   5.939   5.411  0.1633 -1.7110  1.1538
13650SOL     OW43581   0.515   0.341   1.558 -0.1323  0.2475  0.4409
13650SOL    HW143582   0.517   0.250   1.588  0.6788 -0.7160 -2.2429
13650SOL    HW243583   0.590   0.382   1.601  1.1368 -1.1183 -0.3899
13651SOL     OW43584   9.747   4.463   9.513 -0.0113 -0.5596 -0.4230
13651SOL    HW143585   9.799   4.495   9.440  1.2068 -0.8679  0.2860
13651SOL    HW243586   9.666   4.432   9.473 -0.0404  0.7524 -1.4475
13652SOL     OW43587   8.308   2.886   7.100 -0.1639  0.0749  0.2861
13652SOL    HW143588   8.273   2.964   7.144  0.2021  0.5533 -0.2565
13652SOL    HW243589   8.309   2.909   7.007 -0.3482 -0.6984  0.0853
13653SOL     OW43590   4.031  10.350   9.438 -0.8699 -0.5279  0.2780
13653SOL    HW143591   4.099  10.284   9.436 -0.0374  0.3228 -2.0050
13653SOL    HW243592   3.953  10.306   9.403 -0.7070 -0.6901  0.1206
13654SOL     OW43593   8.905   0.223   4.895 -0.6042  0.2731 -0.0422
13654SOL    HW143594   8.970   0.279   4.854  0.3342 -1.1360 -0.5405
13654SOL    HW243595   8.821   0.266   4.879  0.3019  3.6708  3.0424
13655SOL     OW43596   7.186   9.209   6.929  0.1847  0.0538  1.0529
13655SOL    HW143597   7.105   9.204   6.877  1.1779 -1.4701 -0.4780
13655SOL    HW243598   7.184   9.296   6.968 -1.9687  0.2266  0.6920
13656SOL     OW43599   4.088   1.429   1.865  0.5356 -0.0817 -0.1788
13656SOL    HW143600   4.127   1.466   1.944 -0.4381  0.1805  0.1944
13656SOL    HW243601   4.094   1.499   1.800  1.1645 -0.2325 -0.2930
13657SOL     OW43602   6.917   5.508   7.838 -0.2653  0.2144  0.5113
13657SOL    HW143603   6.971   5.557   7.776  0.3539 -1.9345 -0.7335
13657SOL    HW243604   6.958   5.523   7.923  1.1537  0.1819 -0.1409
13658SOL     OW43605   4.290   7.657   1.426  0.3994  0.3698 -0.0335
13658SOL    HW143606   4.292   7.694   1.338  0.6772 -0.7495 -0.5154
13658SOL    HW243607   4.198   7.634   1.440  0.3415  0.6208  0.0125
13659SOL     OW43608   9.455   2.056   9.546  0.6994  0.3766  0.1062
13659SOL    HW143609   9.464   2.077   9.453  1.3240 -3.5597 -0.8823
13659SOL    HW243610   9.541   2.076   9.584  1.1495 -0.0779 -0.6616
13660SOL     OW43611   6.189   5.710   2.658  0.1412  0.1762 -0.1402
13660SOL    HW143612   6.276   5.732   2.691  0.5627 -1.1974 -0.2624
13660SOL    HW243613   6.187   5.745   2.569 -0.2723  2.1496  0.5857
13661SOL     OW43614   0.120   0.723  10.098  0.9143 -0.4552 -0.2231
13661SOL    HW143615   0.058   0.768  10.156 -0.7906 -1.4606 -1.1923
13661SOL    HW243616   0.196   0.781  10.095  0.9628 -0.1917  2.7436
13662SOL     OW43617   3.839   5.671   6.272  0.2350 -0.1888 -0.2218
13662SOL    HW143618   3.785   5.658   6.350  1.6014 -0.6224  0.6871
13662SOL    HW243619   3.924   5.698   6.306  0.6073  0.4977 -1.6183
13663SOL     OW43620   3.587   3.670   5.752  0.4725 -0.0925  0.4837
13663SOL    HW143621   3.626   3.585   5.771 -1.2339 -0.8314  0.8609
13663SOL    HW243622   3.647   3.711   5.689  1.5983 -1.3350  0.7256
13664SOL     OW43623   2.532   5.306   5.680 -0.0780 -0.5413  0.7784
13664SOL    HW143624   2.622   5.290   5.653  0.4218 -1.2697  2.7511
13664SOL    HW243625   2.478   5.263   5.613  1.0565 -1.3241  0.3543
13665SOL     OW43626   0.774   8.086   0.330 -0.4449 -0.0134 -0.3963
13665SOL    HW143627   0.710   8.157   0.323 -0.2099  0.1938 -0.4499
13665SOL    HW243628   0.856   8.124   0.300  0.0406  0.1624  1.0437
13666SOL     OW43629  10.312   2.946   9.024 -0.3641  0.0807 -0.2048
13666SOL    HW143630  10.341   2.997   8.949  0.9172  0.1401  0.3129
13666SOL    HW243631  10.289   2.861   8.988  0.8444 -0.0926 -0.5776
13667SOL     OW43632   1.722   0.932   5.409 -0.5673  0.0760 -0.2551
13667SOL    HW143633   1.663   0.942   5.334 -0.3628 -1.0158 -0.5899
13667SOL    HW243634   1.802   0.977   5.382 -1.1788  1.4882  0.1666
13668SOL     OW43635   2.279   6.439   7.260 -0.4404 -0.1366 -0.2988
13668SOL    HW143636   2.228   6.375   7.310 -0.0748 -1.1301 -1.1563
13668SOL    HW243637   2.361   6.393   7.240  0.3224  1.0305  0.0725
13669SOL     OW43638   2.855   3.784   6.275  0.2538 -0.5047 -0.6322
13669SOL    HW143639   2.823   3.711   6.328  0.5044 -1.2775 -1.5249
13669SOL    HW243640   2.785   3.802   6.213 -0.6603  1.3792  0.8642
13670SOL     OW43641   7.515   7.216  10.232 -0.5014  0.2626  0.4697
13670SOL    HW143642   7.581   7.277  10.198  0.5637 -0.8559  0.4641
13670SOL    HW243643   7.501   7.244  10.322  1.9065 -0.9733  1.3257
13671SOL     OW43644   7.554   1.201   5.133 -0.4338 -0.0009 -0.1731
13671SOL    HW143645   7.535   1.165   5.046  1.0546 -0.7447 -0.2262
13671SOL    HW243646   7.585   1.290   5.116 -0.1130 -0.1564 -0.4042
13672SOL     OW43647   8.208   7.503   1.150  0.0674 -0.0625 -0.4159
13672SOL    HW143648   8.283   7.510   1.209  0.0948 -0.5474 -0.3898
13672SOL    HW243649   8.246   7.478   1.066  0.0671  0.9899 -0.7426
13673SOL     OW43650   8.115   9.638   9.130 -0.1672 -0.5260 -0.2057
13673SOL    HW143651   8.071   9.630   9.214  0.2988 -1.9886 -0.0709
13673SOL    HW243652   8.188   9.698   9.147 -0.5504 -0.1643  0.2102
13674SOL     OW43653   6.113  10.092   5.369  0.3380  0.1110  0.0326
13674SOL    HW143654   6.073  10.053   5.291 -0.0553  1.2032 -0.3329
13674SOL    HW243655   6.144  10.018   5.420  0.2813 -0.6391 -0.9980
13675SOL     OW43656   4.142   4.415   9.913 -0.6217 -0.3378 -0.2052
13675SOL    HW143657   4.099   4.406   9.828 -2.7596 -0.6657  0.8311
13675SOL    HW243658   4.186   4.331   9.926 -2.0835 -1.1363 -0.1157
13676SOL     OW43659   0.305   6.333   5.335  0.4707  0.6574  0.6855
13676SOL    HW143660   0.336   6.422   5.319  1.6272  0.0643 -0.5969
13676SOL    HW243661   0.220   6.330   5.290  0.6405  0.9841  0.3341
13677SOL     OW43662   7.174   4.910   6.816  0.5203  0.3024 -0.3715
13677SOL    HW143663   7.233   4.901   6.741 -0.9907  0.9895 -1.7029
13677SOL    HW243664   7.110   4.840   6.804  0.8779 -0.2705  0.9085
13678SOL     OW43665   3.887   0.738   2.734 -0.1122  0.8080  0.1804
13678SOL    HW143666   3.858   0.743   2.825 -1.1521  0.9729 -0.1542
13678SOL    HW243667   3.922   0.649   2.725 -3.5610 -0.6569 -0.2619
13679SOL     OW43668   7.632   6.353   9.620 -0.0034  0.0699 -0.0176
13679SOL    HW143669   7.637   6.397   9.705 -3.7431  0.0471  0.3873
13679SOL    HW243670   7.632   6.425   9.556 -2.1815  0.5258  0.4072
13680SOL     OW43671   3.085   0.697   8.573  0.5543 -0.1798  0.2081
13680SOL    HW143672   3.085   0.725   8.481  3.0534  0.6722  0.3922
13680SOL    HW243673   3.053   0.607   8.570 -3.1823  1.0199 -0.9537
13681SOL     OW43674   4.533   0.087   2.674 -0.2931  0.2585  0.0572
13681SOL    HW143675   4.446   0.090   2.636 -0.6809  2.0111  0.9918
13681SOL    HW243676   4.527   0.138   2.755  2.4335  3.9301 -1.7504
13682SOL     OW43677   9.535   0.215   0.715 -0.2480  0.0151  0.2526
13682SOL    HW143678   9.589   0.275   0.766  1.6274 -0.2574 -1.2718
13682SOL    HW243679   9.574   0.129   0.732 -1.2388 -0.4190  0.3654
13683SOL     OW43680   8.562   0.917   0.225 -0.0610  0.0477 -0.0769
13683SOL    HW143681   8.536   0.999   0.267  4.0351  0.5405  1.9197
13683SOL    HW243682   8.604   0.944   0.143  0.9742 -0.0415  0.4115
13684SOL     OW43683   0.147   4.937   9.428  0.0290  0.2483  0.4159
13684SOL    HW143684   0.233   4.980   9.428  0.5847 -0.8177 -0.4054
13684SOL    HW243685   0.164   4.848   9.457 -1.2304  0.7117  2.8740
13685SOL     OW43686   6.669   4.949   7.193  0.0220  0.2293 -0.1587
13685SOL    HW143687   6.748   4.905   7.161 -0.2880  0.6057 -1.5297
13685SOL    HW243688   6.599   4.885   7.180 -0.0602  0.2727  0.0712
13686SOL     OW43689   1.238   4.482   2.662  0.5032 -0.3293  0.5401
13686SOL    HW143690   1.148   4.510   2.642  0.8194  0.7073  0.5269
13686SOL    HW243691   1.254   4.516   2.750  0.4006 -1.7442  1.1364
13687SOL     OW43692   9.835   3.345   2.896  0.4298 -0.3801  0.2878
13687SOL    HW143693   9.837   3.327   2.990 -1.4570 -1.3772  0.1913
13687SOL    HW243694   9.926   3.364   2.873  0.7564  1.0701  2.5042
13688SOL     OW43695   6.556   4.427   6.210  0.8053 -0.3648  0.2060
13688SOL    HW143696   6.466   4.409   6.185  0.5027  1.1827  0.1199
13688SOL    HW243697   6.606   4.411   6.130  0.3988  0.3280 -0.1895
13689SOL     OW43698   8.170   9.217   8.765 -0.7893 -0.0639 -0.0129
13689SOL    HW143699   8.079   9.196   8.785 -0.4514  1.3145  3.7220
13689SOL    HW243700   8.221   9.147   8.805 -0.1138 -0.9112 -2.2044
13690SOL     OW43701   6.060   2.935  10.185 -0.1527 -0.2615  0.3778
13690SOL    HW143702   6.106   3.018  10.176  1.5519 -0.9704  1.8899
13690SOL    HW243703   6.089   2.883  10.110  0.7125 -0.3084  0.7259
13691SOL     OW43704   3.981   1.287   9.483 -0.0016  0.3288 -0.2229
13691SOL    HW143705   3.888   1.306   9.492 -0.0280 -0.0048  0.2302
13691SOL    HW243706   4.021   1.371   9.462 -0.7291  0.0697 -2.9976
13692SOL     OW43707   3.492   8.105   6.417  0.2447  0.4012  0.4115
13692SOL    HW143708   3.451   8.114   6.503  0.6722 -2.3287  1.0234
13692SOL    HW243709   3.581   8.074   6.437  0.2522 -0.5788 -0.9942
13693SOL     OW43710   2.665   2.628   0.118 -0.4017  0.3199  0.0121
13693SOL    HW143711   2.736   2.622   0.181 -1.3935 -0.4241  1.1123
13693SOL    HW243712   2.624   2.541   0.120 -2.9542  1.4567  1.3910
13694SOL     OW43713   8.585   5.479   2.039  0.5497  0.5445 -0.3587
13694SOL    HW143714   8.564   5.572   2.052 -2.2752  0.0257 -0.4423
13694SOL    HW243715   8.680   5.476   2.037  0.8119  3.1213  1.9293
13695SOL     OW43716   2.983   8.474   1.905  0.0031 -0.5074  0.4594
13695SOL    HW143717   2.978   8.511   1.816  1.1147  1.2882  1.0970
13695SOL    HW243718   3.016   8.385   1.892 -0.0788 -0.3635 -0.9420
13696SOL     OW43719   9.818   6.215   4.957  0.0136  0.0544  0.0381
13696SOL    HW143720   9.895   6.161   4.941 -0.1430  0.3333 -1.8484
13696SOL    HW243721   9.749   6.153   4.980  0.9709 -0.1306  2.8079
13697SOL     OW43722   7.579   4.718   1.220 -0.1086 -0.2267 -0.9034
13697SOL    HW143723   7.631   4.762   1.287 -1.7709 -0.5353  0.6494
13697SOL    HW243724   7.590   4.772   1.141  1.9483  0.0927 -0.4512
13698SOL     OW43725   5.241   6.863   9.921 -0.1953  0.2480 -0.3649
13698SOL    HW143726   5.211   6.953   9.931  1.2892  0.7741 -0.3266
13698SOL    HW243727   5.201   6.816   9.994  0.9405  1.4309  1.0891
13699SOL     OW43728   7.228   5.418   6.782  0.1012  0.0159 -0.5165
13699SOL    HW143729   7.172   5.468   6.723  0.7015 -0.1831 -1.2804
13699SOL    HW243730   7.282   5.484   6.826 -0.0611  0.1355 -0.4952
13700SOL     OW43731   7.475   3.307   9.654 -0.1302  0.4191 -0.4882
13700SOL    HW143732   7.475   3.308   9.749  1.6219  0.3324 -0.4616
13700SOL    HW243733   7.382   3.315   9.630 -0.8299 -1.6252  1.2250
13701SOL     OW43734   2.140   8.149   7.520 -0.2122 -0.2002  0.4550
13701SOL    HW143735   2.145   8.075   7.580  0.5917  0.8558  1.7499
13701SOL    HW243736   2.183   8.221   7.567 -0.6941  1.0103 -0.8807
13702SOL     OW43737   2.218   6.160   4.613 -0.1855 -0.2217 -0.2527
13702SOL    HW143738   2.216   6.088   4.677 -1.2597  2.5033  3.0811
13702SOL    HW243739   2.302   6.204   4.630 -0.3029  0.3265 -1.0406
13703SOL     OW43740   1.331   4.176  10.085  0.8767  0.0095  0.2158
13703SOL    HW143741   1.421   4.149  10.065  0.8887 -0.3535  0.7296
13703SOL    HW243742   1.337   4.270  10.098  0.9944  0.1473 -0.7386
13704SOL     OW43743   1.896   0.838   4.300 -0.1436 -0.2545 -0.5099
13704SOL    HW143744   1.934   0.838   4.212 -0.0233  3.1905 -0.6045
13704SOL    HW243745   1.821   0.898   4.293  1.1317  1.8164  2.1373
13705SOL     OW43746   3.196   2.377   3.274 -0.0138  0.4008  0.0464
13705SOL    HW143747   3.108   2.361   3.241  0.1708  0.2208 -0.3644
13705SOL    HW243748   3.216   2.467   3.248  0.1175  0.2715 -0.3039
13706SOL     OW43749   9.465   4.740   4.866  0.2129  0.0310  0.1932
13706SOL    HW143750   9.375   4.734   4.895  0.2453 -2.4811 -0.0533
13706SOL    HW243751   9.517   4.703   4.937  0.5831 -2.8992 -1.4485
13707SOL     OW43752   1.504   2.485   3.000  0.4956 -0.2854 -0.0255
13707SOL    HW143753   1.440   2.541   2.956  0.8286 -0.0268 -0.1788
13707SOL    HW243754   1.475   2.396   2.981  0.3095 -0.1692 -0.2816
13708SOL     OW43755   3.340   6.626   5.293  0.3789 -0.1812 -0.2714
13708SOL    HW143756   3.286   6.647   5.369  1.1079 -0.7577  0.4204
13708SOL    HW243757   3.380   6.542   5.314 -1.6382 -1.8392 -2.5210
13709SOL     OW43758   4.281   3.456   1.725  0.1223  0.7007 -0.4768
13709SOL    HW143759   4.347   3.469   1.793 -0.2635  0.7486 -0.1098
13709SOL    HW243760   4.228   3.535   1.728 -0.0014  0.6275 -0.7180
13710SOL     OW43761   9.343   3.698   1.609 -0.1489 -0.2104  0.0815
13710SOL    HW143762   9.347   3.705   1.704 -0.4595  1.7291 -0.0020
13710SOL    HW243763   9.252   3.680   1.589 -0.2657  0.3056  0.1294
13711SOL     OW43764   4.799   4.991   5.976 -0.2179 -0.0268 -0.0849
13711SOL    HW143765   4.765   5.022   6.060  0.3568 -0.4321  0.3110
13711SOL    HW243766   4.878   4.943   6.000 -0.0698 -0.1713 -0.8626
13712SOL     OW43767  10.238   1.894   7.214  0.0085 -0.0174  0.0006
13712SOL    HW143768  10.252   1.866   7.305 -1.1793 -2.1476 -0.4229
13712SOL    HW243769  10.145   1.917   7.210 -0.1081 -0.6029 -0.8400
13713SOL     OW43770   6.019   0.474   6.326  0.6593  0.2816  0.2323
13713SOL    HW143771   6.111   0.476   6.301  1.0591  0.2884  1.6549
13713SOL    HW243772   5.972   0.461   6.243  1.9286  0.2277 -0.4981
13714SOL     OW43773  10.093   1.993   7.810 -0.0405  0.0590  0.2365
13714SOL    HW143774  10.108   1.909   7.768 -0.5596  0.4900 -0.8615
13714SOL    HW243775  10.114   2.058   7.742  2.0065  0.8863  1.5764
13715SOL     OW43776   6.607   5.449  10.255 -0.1415  0.5084 -0.2981
13715SOL    HW143777   6.518   5.417  10.271  0.0926 -0.2785 -0.5053
13715SOL    HW243778   6.609   5.536  10.295 -0.3468 -0.3488  1.6977
13716SOL     OW43779   0.714   6.340   8.509 -0.0169 -0.5252  0.1414
13716SOL    HW143780   0.622   6.340   8.536  0.0279  0.6834  0.3332
13716SOL    HW243781   0.712   6.321   8.416 -0.4713 -0.3485  0.1134
13717SOL     OW43782   0.064   9.686   8.263  0.1971 -0.4350  0.2703
13717SOL    HW143783   0.109   9.758   8.218 -1.1436  0.3152  0.0764
13717SOL    HW243784   0.091   9.694   8.354 -1.5058  1.6658  0.6818
13718SOL     OW43785   7.994   9.188   7.005 -0.2115 -0.0433 -0.6020
13718SOL    HW143786   7.974   9.123   6.937  0.8744  0.5072 -1.4982
13718SOL    HW243787   8.090   9.196   7.001 -0.3594  1.9494 -0.8507
13719SOL     OW43788   7.225   0.760   9.541 -0.3971 -0.0140 -0.4181
13719SOL    HW143789   7.283   0.753   9.617 -0.3005 -1.0569 -0.5587
13719SOL    HW243790   7.191   0.849   9.544 -1.1134 -0.3048  1.3752
13720SOL     OW43791   7.775   0.075   9.832 -0.1907  0.1430 -0.4257
13720SOL    HW143792   7.724   0.090   9.752 -1.1328  0.8776  0.2786
13720SOL    HW243793   7.850   0.134   9.824 -1.4414  1.9225  0.1918
13721SOL     OW43794   3.873   6.429   7.753 -0.1823  0.0482 -0.0407
13721SOL    HW143795   3.855   6.523   7.752  1.3068  0.3973  1.3116
13721SOL    HW243796   3.946   6.418   7.692 -0.5109 -0.2798 -0.3810
13722SOL     OW43797   2.789   9.142   9.101  0.4363  0.4792 -0.4333
13722SOL    HW143798   2.780   9.145   9.196 -0.1769  2.9785 -0.5105
13722SOL    HW243799   2.859   9.205   9.082  0.9268 -0.3867 -1.6304
13723SOL     OW43800   9.112   6.320   4.899 -0.2103  0.6574  0.1265
13723SOL    HW143801   9.048   6.320   4.970 -0.1176  1.3881  0.2162
13723SOL    HW243802   9.181   6.379   4.928  0.5553 -0.1769  0.0603
13724SOL     OW43803   6.776   9.340   4.791  0.4622 -0.0663 -0.1168
13724SOL    HW143804   6.734   9.397   4.855  1.5317  2.3661 -1.4306
13724SOL    HW243805   6.710   9.328   4.722  0.6854  0.7767 -0.4883
13725SOL     OW43806   1.393   5.875  10.255 -0.0603  0.3052  0.1338
13725SOL    HW143807   1.399   5.783  10.230  1.5650  0.4032  0.0881
13725SOL    HW243808   1.465   5.888  10.317  0.1372  1.6906 -0.3535
13726SOL     OW43809   8.914   8.888   1.198 -0.2831  0.1622 -0.4241
13726SOL    HW143810   8.862   8.924   1.127 -1.7256  1.2260  1.0770
13726SOL    HW243811   8.993   8.942   1.201 -0.0233 -0.1452 -1.4197
13727SOL     OW43812   8.725   9.578   0.333 -0.2132 -0.4249  0.0216
13727SOL    HW143813   8.799   9.538   0.379  0.9383  0.4628 -0.9804
13727SOL    HW243814   8.727   9.539   0.246 -1.5470 -1.1045  0.2711
13728SOL     OW43815   0.610   3.161   0.586  0.1733 -0.0332 -0.1344
13728SOL    HW143816   0.527   3.209   0.588 -0.4583 -0.8681  4.5164
13728SOL    HW243817   0.664   3.206   0.651  0.9896 -3.0927  1.4648
13729SOL     OW43818   6.293   3.684   6.263  0.5095  0.0798 -0.8193
13729SOL    HW143819   6.252   3.602   6.290 -2.4332  1.6935  0.0115
13729SOL    HW243820   6.386   3.670   6.278 -0.0494 -2.5215  0.8840
13730SOL     OW43821   5.040   6.483   8.764 -0.3897 -0.1852 -0.1691
13730SOL    HW143822   5.089   6.559   8.797 -0.1358 -0.3913 -0.0675
13730SOL    HW243823   4.949   6.512   8.764 -0.1940  0.4438 -1.0447
13731SOL     OW43824   5.110   8.048   1.205  0.0933 -0.2910  0.6095
13731SOL    HW143825   5.159   8.112   1.152 -1.0881  0.6833  0.6475
13731SOL    HW243826   5.157   8.046   1.288  2.0634 -1.9484 -0.4492
13732SOL     OW43827   7.621   8.576   7.092 -0.2026  0.1700 -0.1799
13732SOL    HW143828   7.602   8.659   7.049  4.3328  1.1609 -0.8210
13732SOL    HW243829   7.655   8.601   7.178  1.2410 -0.9174 -0.3871
13733SOL     OW43830   6.357   9.272   8.907 -0.0023 -0.4871 -0.0453
13733SOL    HW143831   6.288   9.206   8.904 -0.6856  0.0034  2.5255
13733SOL    HW243832   6.309   9.355   8.912  0.8024 -0.0365  0.2500
13734SOL     OW43833   8.648   8.319   4.219 -0.0279 -0.2507  0.1581
13734SOL    HW143834   8.699   8.394   4.190  0.3234  0.0050  1.3911
13734SOL    HW243835   8.650   8.259   4.145 -1.7882  1.6420 -1.5576
13735SOL     OW43836   5.870   7.838   4.154  0.3626 -0.5292  0.1322
13735SOL    HW143837   5.883   7.897   4.228  0.4768 -0.4516  0.0504
13735SOL    HW243838   5.920   7.759   4.176  1.6069  0.0552 -0.5202
13736SOL     OW43839   1.661   2.836   7.854 -0.2471  0.4960  0.3731
13736SOL    HW143840   1.658   2.896   7.929 -1.1743  1.4814 -0.4217
13736SOL    HW243841   1.591   2.773   7.871  1.0065 -0.6582  1.4223
13737SOL     OW43842   5.600  10.259   1.940  0.2121 -0.3402  0.2152
13737SOL    HW143843   5.639  10.189   1.888  0.2862  0.2640 -0.5625
13737SOL    HW243844   5.613  10.231   2.031 -1.2709 -2.1426 -0.0672
13738SOL     OW43845  10.357   6.120   1.622 -0.0860 -0.2931  0.3898
13738SOL    HW143846  10.343   6.184   1.551 -0.3917 -1.4501 -0.6214
13738SOL    HW243847  10.322   6.038   1.588  0.1091 -0.9721  1.7528
13739SOL     OW43848   7.959   6.113   0.863 -0.3057 -0.3650  0.1002
13739SOL    HW143849   7.967   6.178   0.793 -0.0433  0.3717  0.8089
13739SOL    HW243850   8.033   6.054   0.849  0.4075  0.4410  0.4379
13740SOL     OW43851   3.882   2.771   1.455  0.3337 -0.3828  0.2150
13740SOL    HW143852   3.944   2.698   1.464  0.2479 -0.5486 -0.4849
13740SOL    HW243853   3.808   2.746   1.510 -0.0510 -1.2246 -0.6565
13741SOL     OW43854  10.120   0.858   9.120 -0.3982 -0.0999  0.5579
13741SOL    HW143855  10.178   0.808   9.177 -0.1127 -1.0263 -0.5148
13741SOL    HW243856  10.177   0.923   9.078 -0.4435  0.0304  0.6986
13742SOL     OW43857   3.706   6.391   6.168  0.3168  0.4466  0.2582
13742SOL    HW143858   3.613   6.379   6.190  0.3293 -0.5154 -0.1476
13742SOL    HW243859   3.710   6.477   6.128 -0.3462  0.6372  0.5720
13743SOL     OW43860   2.967   7.856   9.616 -0.4441 -0.1961 -0.1465
13743SOL    HW143861   2.880   7.897   9.615 -0.0737  0.6077 -0.4206
13743SOL    HW243862   2.972   7.809   9.533 -0.2316  0.6116 -0.6012
13744SOL     OW43863   7.456   3.224   8.253  0.3578 -0.2504  0.1263
13744SOL    HW143864   7.542   3.264   8.240  0.5305 -0.7208 -0.1631
13744SOL    HW243865   7.462   3.139   8.210  0.3163 -1.0198  1.5624
13745SOL     OW43866   2.770   1.119   8.352 -0.2915  0.1892 -0.2217
13745SOL    HW143867   2.790   1.029   8.326 -1.6477 -0.7543  1.8015
13745SOL    HW243868   2.689   1.113   8.401  0.9283  2.1268  2.2495
13746SOL     OW43869   5.604   7.125  10.074  0.0286  0.4083  0.4152
13746SOL    HW143870   5.661   7.177  10.018  0.1067  0.8213  0.8639
13746SOL    HW243871   5.535   7.186  10.101 -0.0439  0.1990  0.7074
13747SOL     OW43872   0.468   1.237   0.598 -0.5432  0.2538  0.6164
13747SOL    HW143873   0.452   1.146   0.571 -2.2588  0.6509  0.1706
13747SOL    HW243874   0.391   1.284   0.567  1.1305  2.2229 -0.8072
13748SOL     OW43875   9.664   3.466   7.985  0.5483  0.0036 -0.2403
13748SOL    HW143876   9.686   3.389   8.039 -0.9819  0.4076  1.0149
13748SOL    HW243877   9.711   3.451   7.903  2.2929 -1.0491  0.8698
13749SOL     OW43878   4.911   7.388   7.087  0.2184 -0.1324  0.2182
13749SOL    HW143879   4.947   7.335   7.158 -1.8571 -1.9779  0.0196
13749SOL    HW243880   4.823   7.410   7.116 -0.2006  0.2183 -1.2296
13750SOL     OW43881   3.152   0.200   8.666 -0.5357  0.1118  0.5085
13750SOL    HW143882   3.091   0.126   8.672  1.6014 -1.9329 -1.0342
13750SOL    HW243883   3.198   0.200   8.750 -0.4924 -0.3950  0.4882
13751SOL     OW43884   8.249   2.569   4.604 -0.1787  0.2705 -0.1515
13751SOL    HW143885   8.332   2.573   4.652  1.1383 -0.6097 -2.2228
13751SOL    HW243886   8.274   2.582   4.513 -2.4018  0.3447 -0.7995
13752SOL     OW43887   1.132   0.762   2.172  0.0212  0.2146  0.0720
13752SOL    HW143888   1.222   0.729   2.182  0.2044  0.5034 -0.5681
13752SOL    HW243889   1.090   0.741   2.256  0.8162  0.4857  0.5544
13753SOL     OW43890   8.715   6.245   8.055 -0.0799  0.5304  0.4861
13753SOL    HW143891   8.716   6.319   7.994 -1.2333  0.6495  0.5873
13753SOL    HW243892   8.744   6.282   8.138 -1.6060  1.1442  0.7900
13754SOL     OW43893   9.480   0.182   8.573  0.3409 -0.3125 -0.0135
13754SOL    HW143894   9.514   0.271   8.570  1.8816 -0.5972  3.5764
13754SOL    HW243895   9.385   0.194   8.578  0.5703  1.2704  1.7872
13755SOL     OW43896   4.909   0.459   9.115  0.3635 -0.0610  0.3032
13755SOL    HW143897   4.881   0.398   9.183  0.7366 -0.1315  0.3921
13755SOL    HW243898   4.979   0.509   9.155  0.8842 -0.4003 -0.1715
13756SOL     OW43899   4.113   8.689   6.299 -0.4581 -0.5382 -0.9381
13756SOL    HW143900   4.175   8.726   6.362  0.7648 -0.4695 -2.1439
13756SOL    HW243901   4.091   8.603   6.335  0.9603 -0.8919 -0.8863
13757SOL     OW43902   7.507   3.968   4.959 -0.0892 -0.5131 -0.1671
13757SOL    HW143903   7.468   3.973   4.871 -0.3766  0.7179  0.0204
13757SOL    HW243904   7.601   3.979   4.944 -0.3895  3.5677 -0.0751
13758SOL     OW43905   8.778   2.598   3.966 -0.1788  0.5710 -0.6524
13758SOL    HW143906   8.701   2.647   3.994  0.8440  2.1945 -0.5521
13758SOL    HW243907   8.745   2.535   3.902 -2.1904 -1.4114  2.0854
13759SOL     OW43908   4.955   7.931   6.084 -0.3051 -0.0477  0.1110
13759SOL    HW143909   4.961   7.952   6.177 -0.2287  0.5445 -0.0189
13759SOL    HW243910   4.896   7.999   6.048 -0.0436 -0.0473 -0.3318
13760SOL     OW43911   1.277   9.747   8.494  0.3453  0.5890 -0.5770
13760SOL    HW143912   1.344   9.735   8.562 -0.3987 -0.9375 -0.0885
13760SOL    HW243913   1.285   9.670   8.438  0.1114  1.2302 -1.5115
13761SOL     OW43914   3.799   2.025   4.185 -0.3441  0.1967  0.3278
13761SOL    HW143915   3.741   1.991   4.117 -1.4450  2.2861  0.1443
13761SOL    HW243916   3.764   1.989   4.267  1.6092 -3.1916 -0.1351
13762SOL     OW43917   1.417   0.351   0.871 -0.0517  0.3581 -1.1661
13762SOL    HW143918   1.378   0.266   0.893  1.1512 -0.2249 -1.1896
13762SOL    HW243919   1.369   0.414   0.925  1.0721 -0.7225  1.2663
13763SOL     OW43920   2.623  10.353   9.503 -0.5059 -0.2009  0.3255
13763SOL    HW143921   2.539  10.351   9.550 -1.5192  1.6921 -1.2495
13763SOL    HW243922   2.598  10.363   9.411  1.4029 -3.2309 -0.6671
13764SOL     OW43923   4.184   9.177   6.670 -0.2561  0.6068  0.1946
13764SOL    HW143924   4.259   9.155   6.725 -1.8515 -0.8563  1.9068
13764SOL    HW243925   4.148   9.256   6.710 -2.6296 -1.5733  2.7335
13765SOL     OW43926   5.032   7.791   0.381 -0.3370 -0.2805 -0.1060
13765SOL    HW143927   5.032   7.695   0.383 -3.2924 -0.5809 -3.7759
13765SOL    HW243928   5.081   7.813   0.302  1.5265  1.4600  1.4218
13766SOL     OW43929   7.111   1.371   3.285 -0.1580 -0.4436  0.1315
13766SOL    HW143930   7.066   1.452   3.259 -2.7992 -1.7650  0.2592
13766SOL    HW243931   7.084   1.358   3.376  2.0141 -0.3901  0.8360
13767SOL     OW43932   8.782   3.727   1.214 -0.5667 -0.0184 -0.1080
13767SOL    HW143933   8.861   3.709   1.264 -0.6393 -0.0574 -0.0051
13767SOL    HW243934   8.813   3.754   1.127 -0.4277  0.4267  0.0749
13768SOL     OW43935   6.882   5.216   4.853  0.1736 -0.3798 -0.5660
13768SOL    HW143936   6.837   5.243   4.933  0.7346 -1.4250  0.1172
13768SOL    HW243937   6.919   5.298   4.818  0.0956  0.0601  0.3463
13769SOL     OW43938   6.969   3.983   3.036  0.1209  0.5148 -0.6979
13769SOL    HW143939   6.952   4.006   2.945 -0.3446 -0.9030 -1.0024
13769SOL    HW243940   7.007   3.895   3.032 -1.0843 -0.1013  0.5370
13770SOL     OW43941   8.995   7.391   8.877 -0.4889  0.3044  0.6448
13770SOL    HW143942   9.024   7.302   8.897  0.6274  0.7775  1.2286
13770SOL    HW243943   8.948   7.420   8.955  0.1499  0.6217  0.9232
13771SOL     OW43944   8.701   8.995   8.076  0.1727 -0.4986  0.2792
13771SOL    HW143945   8.669   8.993   8.166 -0.0475 -2.9234  0.2223
13771SOL    HW243946   8.723   8.904   8.056  1.7162  0.2030 -1.6094
13772SOL     OW43947   2.929   3.295   3.755  0.6043 -0.2314  0.1437
13772SOL    HW143948   2.922   3.239   3.832 -0.4064  0.1433  0.3436
13772SOL    HW243949   2.851   3.351   3.759  1.1740  0.6276 -0.4843
13773SOL     OW43950   0.480   3.907   5.745  0.0747  0.3368 -0.1796
13773SOL    HW143951   0.519   3.838   5.799 -1.9136 -0.5852  0.1692
13773SOL    HW243952   0.449   3.972   5.808 -0.4287  0.2387 -0.3175
13774SOL     OW43953   5.275   9.920   3.586 -0.0300  0.1693 -0.5282
13774SOL    HW143954   5.352   9.888   3.632  3.4829  2.5698 -4.0857
13774SOL    HW243955   5.246   9.996   3.638 -0.8808 -1.4166  1.4454
13775SOL     OW43956   0.649   3.801   0.940 -0.1945 -0.1562  0.1886
13775SOL    HW143957   0.608   3.876   0.898  0.5129  0.9550  1.3881
13775SOL    HW243958   0.595   3.785   1.018 -0.3598 -0.9208 -0.0775
13776SOL     OW43959   0.635   4.259   8.556 -0.6277  0.5103  0.0807
13776SOL    HW143960   0.660   4.245   8.465 -1.7782  0.0791 -0.1902
13776SOL    HW243961   0.717   4.263   8.604 -0.0361 -2.9094 -0.4217
13777SOL     OW43962   5.215   9.473   0.846 -0.0980  0.0254 -0.7644
13777SOL    HW143963   5.283   9.417   0.884  0.6465  1.2163 -0.2910
13777SOL    HW243964   5.229   9.467   0.751  0.8993  0.5201 -0.6590
13778SOL     OW43965   3.484   8.651   9.507  0.0306 -0.2587  0.3569
13778SOL    HW143966   3.507   8.565   9.471  1.0029  0.0888  0.1075
13778SOL    HW243967   3.481   8.709   9.431  0.8393  0.2224  0.6791
13779SOL     OW43968   4.003   7.088   5.358  0.6091 -0.3253 -0.0525
13779SOL    HW143969   3.938   7.081   5.287  0.7487  0.6149 -0.2844
13779SOL    HW243970   4.085   7.061   5.317  1.1232  2.2426 -0.9130
13780SOL     OW43971  10.172   8.619   3.190  0.0644 -1.2441  0.2509
13780SOL    HW143972  10.099   8.560   3.169 -1.5670 -0.4221  3.0526
13780SOL    HW243973  10.239   8.561   3.225 -0.6008 -1.6936  0.8248
13781SOL     OW43974   1.548   9.509   4.339  0.1558 -0.7264 -0.0196
13781SOL    HW143975   1.475   9.567   4.319 -0.9216 -2.0166 -0.0474
13781SOL    HW243976   1.579   9.480   4.253  0.3207 -0.6206  0.0052
13782SOL     OW43977   7.641   0.060   8.382 -0.4891 -0.4222 -0.3163
13782SOL    HW143978   7.710   0.043   8.318  0.0726  2.2425 -0.5142
13782SOL    HW243979   7.574   0.108   8.333 -0.2611  1.2556  0.9402
13783SOL     OW43980   7.358   4.531   5.829 -0.5443 -0.0521  0.4539
13783SOL    HW143981   7.429   4.592   5.811 -0.8979  0.7868  1.7751
13783SOL    HW243982   7.323   4.558   5.914  0.7688 -3.4569  2.2595
13784SOL     OW43983   3.057   2.758   5.785 -0.1210 -0.4321 -0.5125
13784SOL    HW143984   3.057   2.669   5.820 -1.1782 -0.8179 -1.4580
13784SOL    HW243985   2.999   2.806   5.844 -0.5451 -0.6728 -0.7298
13785SOL     OW43986   2.393   6.334   9.095 -0.6934  0.1922 -0.4089
13785SOL    HW143987   2.414   6.424   9.121 -1.3633  0.3614 -0.4183
13785SOL    HW243988   2.300   6.337   9.073 -1.3925 -1.0528  2.0474
13786SOL     OW43989   6.819   7.214   8.258 -0.6145 -0.0074  0.1685
13786SOL    HW143990   6.729   7.193   8.233 -0.3270 -0.7168 -0.2903
13786SOL    HW243991   6.812   7.298   8.302 -1.5777 -0.2863  0.5823
13787SOL     OW43992   0.938   1.413   3.843 -0.3632 -0.0050 -0.4411
13787SOL    HW143993   1.008   1.476   3.829 -0.1324 -0.4791 -1.4407
13787SOL    HW243994   0.897   1.441   3.925  0.4378  0.7829 -0.3013
13788SOL     OW43995   3.891   7.286  10.260 -0.0802  0.2229 -0.2310
13788SOL    HW143996   3.942   7.254  10.185 -0.1848  1.0120 -0.6558
13788SOL    HW243997   3.923   7.236  10.335 -0.1379 -0.7531 -0.8429
13789SOL     OW43998   9.478   8.536   5.386 -0.4886 -0.4986 -0.2089
13789SOL    HW143999   9.527   8.488   5.319 -1.6042  0.4801 -1.7925
13789SOL    HW244000   9.506   8.627   5.375 -1.0876 -0.2493  0.2846
13790SOL     OW44001   4.923   0.695   7.962 -0.2539  0.9023  0.1200
13790SOL    HW144002   4.943   0.776   7.915 -1.7169  0.8009 -0.7169
13790SOL    HW244003   4.832   0.675   7.940 -0.1742 -0.5528  0.9408
13791SOL     OW44004   6.296   8.589   4.616  0.3307  0.0467  0.7830
13791SOL    HW144005   6.376   8.585   4.565 -0.2423 -0.0568 -0.1263
13791SOL    HW244006   6.322   8.561   4.704  1.0585 -1.0836  0.2297
13792SOL     OW44007   1.104   0.244   7.574  0.2807 -0.0198  0.1788
13792SOL    HW144008   1.047   0.269   7.647 -0.7728  1.1701 -1.0192
13792SOL    HW244009   1.095   0.149   7.569 -1.4185  0.1138  0.1740
13793SOL     OW44010   6.687   5.046   5.172 -0.4866  0.2304 -0.4929
13793SOL    HW144011   6.689   4.966   5.226 -2.0104  0.6214  0.1908
13793SOL    HW244012   6.614   5.097   5.208  1.8796  3.0557  0.6579
13794SOL     OW44013   8.619   0.982   3.293 -0.0682  0.4032 -0.0588
13794SOL    HW144014   8.572   0.914   3.245  0.4683 -0.1356  0.1716
13794SOL    HW244015   8.704   0.987   3.250  0.6089 -0.4434  1.1274
13795SOL     OW44016   1.340   0.649   8.200  0.2516  0.0660 -0.2338
13795SOL    HW144017   1.278   0.691   8.140  0.6002 -0.4131 -0.9465
13795SOL    HW244018   1.363   0.567   8.157  0.1081 -0.5442  0.8214
13796SOL     OW44019   6.683   4.038   3.441 -0.0984  0.6599 -0.5204
13796SOL    HW144020   6.620   3.971   3.466  0.3713  0.1062 -0.7958
13796SOL    HW244021   6.720   4.007   3.358 -1.3443  2.2575 -1.7620
13797SOL     OW44022   2.298   7.416   8.662  0.0866  0.2726 -0.4423
13797SOL    HW144023   2.369   7.422   8.599 -0.1402 -0.1697 -0.7465
13797SOL    HW244024   2.304   7.496   8.714 -0.4508  1.2273 -1.8077
13798SOL     OW44025   1.622   2.320   9.203 -0.4266 -0.1245  0.0388
13798SOL    HW144026   1.558   2.250   9.216  1.2487 -2.0852 -1.5813
13798SOL    HW244027   1.706   2.275   9.197  1.0153  2.2526  1.0013
13799SOL     OW44028   0.086   6.958   7.817  0.2158  0.8770 -0.4624
13799SOL    HW144029  -0.007   6.975   7.828 -0.1483 -1.6113  1.2225
13799SOL    HW244030   0.103   6.881   7.872  2.7627 -0.1838 -2.4891
13800SOL     OW44031   5.565   0.520   8.710 -0.2746  0.6671 -0.0781
13800SOL    HW144032   5.595   0.437   8.746  1.5197  1.2301 -0.1481
13800SOL    HW244033   5.633   0.583   8.735 -0.0694  1.5159 -2.5061
13801SOL     OW44034   5.711   1.508   0.027  0.0955  0.4042 -0.2390
13801SOL    HW144035   5.749   1.453   0.096  1.9727 -0.5000 -1.8952
13801SOL    HW244036   5.694   1.592   0.070  0.7833 -0.2585  1.4173
13802SOL     OW44037   3.446   4.338   7.664 -0.2285 -0.1413  0.5051
13802SOL    HW144038   3.405   4.294   7.590 -1.4174 -0.2029  1.1771
13802SOL    HW244039   3.469   4.425   7.631 -0.9026 -0.1077  0.1092
13803SOL     OW44040   0.673   0.309   7.555  0.3030 -0.1686  0.8521
13803SOL    HW144041   0.638   0.376   7.497  0.1203 -0.2549  0.8599
13803SOL    HW244042   0.749   0.274   7.509  1.7915  1.5937  1.8242
13804SOL     OW44043   2.461   7.576  10.164 -0.0743  0.4512 -0.0364
13804SOL    HW144044   2.538   7.520  10.169  0.3926  1.1127  0.2541
13804SOL    HW244045   2.418   7.566  10.249  0.0556  0.5998  0.0465
13805SOL     OW44046   5.049   4.013   4.030 -0.0270 -0.1117 -0.5515
13805SOL    HW144047   4.961   4.051   4.022  0.4702  1.2503  0.0959
13805SOL    HW244048   5.046   3.962   4.110  0.2711  1.4730  0.5151
13806SOL     OW44049   3.493   9.757   1.911 -0.3481 -0.3495 -0.7213
13806SOL    HW144050   3.530   9.780   1.825 -0.0678 -0.5502 -0.6563
13806SOL    HW244051   3.563   9.778   1.973 -0.4725 -0.4096 -0.5613
13807SOL     OW44052   3.750   3.414   0.753  0.3292 -0.0357 -0.2442
13807SOL    HW144053   3.688   3.392   0.684  0.8766 -0.0585 -0.7310
13807SOL    HW244054   3.697   3.456   0.821 -0.4787 -1.4339  0.0230
13808SOL     OW44055   8.281   0.591   7.142  0.7968  0.0358 -0.0367
13808SOL    HW144056   8.319   0.555   7.222  0.5430 -1.4000 -0.5191
13808SOL    HW244057   8.187   0.574   7.151  0.5214  1.6049  0.1969
13809SOL     OW44058   1.803   8.552   4.064 -0.1320 -0.0101 -0.4457
13809SOL    HW144059   1.751   8.633   4.059  1.1258  0.7629 -1.5023
13809SOL    HW244060   1.872   8.572   4.128  0.5206 -0.0336 -1.1333
13810SOL     OW44061   7.290   2.745   3.785  0.4160 -0.5024  0.2705
13810SOL    HW144062   7.343   2.709   3.857 -0.2611 -0.9012  0.5785
13810SOL    HW244063   7.205   2.703   3.795 -0.3526  1.0378  0.5258
13811SOL     OW44064   5.822   5.844   4.959 -0.0060 -0.4166  0.9431
13811SOL    HW144065   5.904   5.803   4.987  0.5658 -0.0167 -0.0863
13811SOL    HW244066   5.836   5.937   4.974  0.2730 -0.2001 -0.4845
13812SOL     OW44067   5.879   5.862   2.009  0.4743 -0.0471 -0.0891
13812SOL    HW144068   5.880   5.907   2.093  1.2151 -0.8309  0.3378
13812SOL    HW244069   5.847   5.774   2.029  0.7655 -0.2741 -0.6062
13813SOL     OW44070   3.758   7.717   6.343 -0.5373 -0.8560  0.1507
13813SOL    HW144071   3.672   7.690   6.309 -1.7405  2.7470 -0.0707
13813SOL    HW244072   3.743   7.727   6.437 -0.5863  0.3694  0.0268
13814SOL     OW44073   0.597   9.513   0.919 -0.0279  0.2127  0.0994
13814SOL    HW144074   0.570   9.533   0.829  1.6412 -1.4546 -0.8292
13814SOL    HW244075   0.690   9.535   0.922  0.0723 -0.3101  1.2494
13815SOL     OW44076   8.014   7.354   3.454 -0.1753  0.1535 -0.4206
13815SOL    HW144077   7.929   7.362   3.497  0.2514 -0.7806  0.6276
13815SOL    HW244078   8.063   7.431   3.484 -0.3811  0.2808 -0.4108
13816SOL     OW44079   0.498   8.565   7.222 -0.2288  0.4196  0.0748
13816SOL    HW144080   0.428   8.631   7.229  1.5593  2.5090 -0.5867
13816SOL    HW244081   0.553   8.581   7.298 -0.4607 -1.2815  0.6446
13817SOL     OW44082   6.522   7.957  10.217 -0.5111  0.2383 -0.1038
13817SOL    HW144083   6.463   7.977  10.290 -0.4804 -0.6103  0.1611
13817SOL    HW244084   6.541   7.864  10.226 -0.3239  0.1702 -1.0671
13818SOL     OW44085   2.816   3.564   1.973  0.0706  0.1047 -0.2398
13818SOL    HW144086   2.872   3.487   1.958  0.4756  0.3893 -0.1995
13818SOL    HW244087   2.809   3.605   1.887 -0.2691 -0.0596 -0.2907
13819SOL     OW44088   5.923   7.445   4.827 -0.1332 -0.0932 -0.0367
13819SOL    HW144089   5.857   7.376   4.829 -0.5070 -0.0417 -3.3923
13819SOL    HW244090   5.886   7.516   4.879 -1.1680 -1.2762  0.8944
13820SOL     OW44091   6.640   7.431   9.418  0.2354 -0.9116 -0.3250
13820SOL    HW144092   6.687   7.352   9.444 -0.0611 -1.1937 -0.6335
13820SOL    HW244093   6.640   7.486   9.496  1.0925 -0.8980 -0.3230
13821SOL     OW44094   6.245   3.064   9.981  0.5666  0.4224  0.3555
13821SOL    HW144095   6.278   2.975   9.993  0.6831  0.4796  0.4590
13821SOL    HW244096   6.180   3.056   9.911  0.6109  0.2648  0.3322
13822SOL     OW44097   0.991   2.989   5.462 -0.3628  0.2845 -0.0519
13822SOL    HW144098   0.977   2.900   5.497 -2.8313  1.4085  2.2337
13822SOL    HW244099   1.041   2.976   5.382  1.2953 -2.9756  1.3255
13823SOL     OW44100   9.304   5.136   1.597 -0.1292 -0.0838  0.3951
13823SOL    HW144101   9.303   5.230   1.616 -0.4263 -0.1132  0.5299
13823SOL    HW244102   9.331   5.095   1.679 -2.8412 -0.3159  1.2749
13824SOL     OW44103   1.960   1.295   7.446 -0.0830  0.7033 -0.1332
13824SOL    HW144104   1.939   1.387   7.426  1.0569  0.8890 -0.5581
13824SOL    HW244105   2.050   1.284   7.415 -0.5697 -0.8698 -1.1029
13825SOL     OW44106   9.529   7.130   3.460  0.6889 -0.1487  0.2323
13825SOL    HW144107   9.481   7.163   3.384 -0.0016 -2.0412 -0.2125
13825SOL    HW244108   9.471   7.145   3.534  1.2667  1.4911  0.4013
13826SOL     OW44109   9.916   8.105   7.656 -0.1448 -0.2610  0.1526
13826SOL    HW144110   9.949   8.043   7.721 -0.5944  0.2547  0.8944
13826SOL    HW244111   9.978   8.099   7.583  1.2535  0.2520  1.2642
13827SOL     OW44112   1.998   6.060   7.454  0.2210 -0.7583 -0.4102
13827SOL    HW144113   2.023   5.988   7.512  0.6695 -1.3001 -1.2499
13827SOL    HW244114   1.984   6.018   7.369  4.8532  0.5544 -2.1213
13828SOL     OW44115   0.100   2.457   7.295  0.2745 -0.7270 -0.1581
13828SOL    HW144116   0.074   2.375   7.336  1.4549  0.2976  2.8854
13828SOL    HW244117   0.113   2.434   7.203 -2.7600 -3.1220 -0.1468
13829SOL     OW44118   6.520   4.167   6.040  0.3700  0.0415 -0.6131
13829SOL    HW144119   6.540   4.079   6.008 -0.5415 -0.7900  0.9649
13829SOL    HW244120   6.462   4.152   6.115  0.3037  1.9899 -0.2353
13830SOL     OW44121   1.386   5.413   1.682 -0.5136  0.1271 -0.1360
13830SOL    HW144122   1.447   5.463   1.628 -0.3797 -0.5323 -0.5940
13830SOL    HW244123   1.391   5.324   1.649  0.0276 -0.4269  1.3512
13831SOL     OW44124   2.537   6.842   3.757 -0.0253 -0.2336  0.2665
13831SOL    HW144125   2.539   6.890   3.674  1.9869 -1.2594 -0.3503
13831SOL    HW244126   2.509   6.906   3.822  0.3689  1.1500 -0.8859
13832SOL     OW44127   4.102   6.101   5.239 -0.2809  0.8159  0.1991
13832SOL    HW144128   4.146   6.144   5.312  0.0662  0.1582  0.3804
13832SOL    HW244129   4.019   6.148   5.230 -0.4035  0.7915  1.1203
13833SOL     OW44130   9.795   5.003  10.063 -0.5688  0.5489 -0.0383
13833SOL    HW144131   9.723   5.040  10.115 -0.4500  0.2201  0.3645
13833SOL    HW244132   9.753   4.970   9.983 -0.7289  1.2004 -0.2285
13834SOL     OW44133   4.692   5.210   5.164 -0.6094  0.0119  0.1203
13834SOL    HW144134   4.741   5.266   5.104 -0.0245  0.5332  1.0700
13834SOL    HW244135   4.611   5.190   5.117 -0.7260  1.4593 -0.3372
13835SOL     OW44136   2.079   2.850  10.024 -0.2465  0.0911  0.2367
13835SOL    HW144137   2.119   2.928   9.985  0.6730  0.0934  1.1465
13835SOL    HW244138   2.024   2.885  10.095 -0.7449 -0.0109 -0.0974
13836SOL     OW44139   6.677   6.460   7.243  0.0253  0.0870 -0.1050
13836SOL    HW144140   6.596   6.425   7.207  0.0811 -0.2525  0.0980
13836SOL    HW244141   6.669   6.446   7.338  1.9553 -3.4832 -0.3057
13837SOL     OW44142   5.799   0.296   0.091  0.1887  0.2521  0.0260
13837SOL    HW144143   5.791   0.267   0.182 -0.7259  0.9423  0.1685
13837SOL    HW244144   5.709   0.311   0.062  0.4928  0.3328 -0.9024
13838SOL     OW44145  10.360   2.439   7.761  0.5330 -0.2170  0.3005
13838SOL    HW144146  10.314   2.499   7.702  1.1662  0.0519  0.0766
13838SOL    HW244147  10.343   2.474   7.848  1.3727  0.6375  0.1415
13839SOL     OW44148   9.839   4.856   1.111  0.5089 -0.1189 -0.3058
13839SOL    HW144149   9.833   4.889   1.200 -0.6831 -1.8315  0.3159
13839SOL    HW244150   9.821   4.932   1.055 -1.8340  0.3993  1.0132
13840SOL     OW44151   5.165   1.990   9.043 -0.1121  0.1827 -0.9272
13840SOL    HW144152   5.194   2.065   9.096 -0.3039  0.0206 -0.5903
13840SOL    HW244153   5.110   2.029   8.975  0.2478  0.4089 -1.0927
13841SOL     OW44154   6.097   1.667   4.534 -0.0871 -0.5703  0.0540
13841SOL    HW144155   6.124   1.652   4.624 -1.1714 -0.7094  0.3757
13841SOL    HW244156   6.016   1.717   4.541  0.5475  0.6533 -0.8892
13842SOL     OW44157   0.633   4.635   1.189 -0.0324 -0.0194  0.3664
13842SOL    HW144158   0.585   4.590   1.259  1.4588  0.2553  1.6326
13842SOL    HW244159   0.608   4.727   1.198 -0.1017 -0.0343  0.3238
13843SOL     OW44160   0.017   8.480   9.230  0.4261 -0.8845  0.2407
13843SOL    HW144161   0.061   8.564   9.233  0.3525 -0.8624  0.8608
13843SOL    HW244162  -0.060   8.495   9.175  0.5866 -0.6301  0.0874
13844SOL     OW44163   5.933   7.967   2.871 -0.2262  0.4809 -0.2798
13844SOL    HW144164   6.013   8.012   2.841 -0.6098 -0.1507 -2.4324
13844SOL    HW244165   5.952   7.874   2.857 -0.6294  0.1756  1.0972
13845SOL     OW44166   9.783   2.783   9.480 -0.6217 -0.0629 -0.2034
13845SOL    HW144167   9.811   2.873   9.491 -0.8339 -0.2919  4.6307
13845SOL    HW244168   9.687   2.789   9.471 -0.5879  0.2149 -0.3805
13846SOL     OW44169   8.388   4.091   1.659  0.4511  0.1592  0.1613
13846SOL    HW144170   8.370   4.021   1.722  0.6329  0.8375  0.9925
13846SOL    HW244171   8.327   4.161   1.684  0.2705  0.3012 -0.6576
13847SOL     OW44172   8.389   6.524   1.188  0.1554 -0.6400 -0.2479
13847SOL    HW144173   8.375   6.527   1.283  0.2558 -1.4161 -0.1943
13847SOL    HW244174   8.483   6.506   1.179 -0.0276 -1.5550 -0.4608
13848SOL     OW44175   6.572   9.503   8.107 -0.1379 -0.2802 -0.4693
13848SOL    HW144176   6.659   9.503   8.066  0.5491 -2.1011  0.8620
13848SOL    HW244177   6.565   9.589   8.148  1.6502 -0.5367  0.5107
13849SOL     OW44178   4.499   7.443   6.861 -0.0367 -0.4224 -0.1765
13849SOL    HW144179   4.434   7.501   6.900 -0.7366 -1.4395  0.2003
13849SOL    HW244180   4.575   7.500   6.844 -0.0017  0.2332  1.8914
13850SOL     OW44181   4.027   2.404   5.181  0.0161  0.2510 -0.2810
13850SOL    HW144182   4.036   2.497   5.159  2.2140  0.2665  0.4484
13850SOL    HW244183   4.110   2.381   5.222  0.2058 -2.4625 -1.9370
13851SOL     OW44184   6.443   0.630   7.568 -0.1470  0.4563 -0.2622
13851SOL    HW144185   6.457   0.711   7.616  0.4260  0.0483  0.2629
13851SOL    HW244186   6.368   0.649   7.511  0.6825  1.7132 -0.9869
13852SOL     OW44187   3.710   7.688   7.823 -0.2478 -0.0793 -0.3733
13852SOL    HW144188   3.738   7.751   7.756 -0.4445  0.1713 -0.2241
13852SOL    HW244189   3.792   7.649   7.854 -0.1730 -0.3767 -0.9281
13853SOL     OW44190   5.892   1.211   1.686 -0.2968  0.0997  0.6168
13853SOL    HW144191   5.830   1.200   1.759  2.1404 -0.4708  2.7560
13853SOL    HW244192   5.845   1.180   1.609 -3.0603  0.8533  1.8910
13854SOL     OW44193   8.162   4.874   6.307 -0.5424  0.2303  0.5621
13854SOL    HW144194   8.177   4.961   6.344  0.2355  0.6156 -0.5838
13854SOL    HW244195   8.246   4.830   6.317 -0.7426 -0.1550  0.5508
13855SOL     OW44196   8.688   4.759  10.143  0.3435 -0.0004 -0.0565
13855SOL    HW144197   8.720   4.836  10.097  0.9930  2.1531  3.6148
13855SOL    HW244198   8.749   4.689  10.118  2.1973  1.6776 -0.4527
13856SOL     OW44199   4.476   2.665   0.795  0.4299 -0.1917 -0.6284
13856SOL    HW144200   4.516   2.692   0.712  0.9529  1.9891  0.2708
13856SOL    HW244201   4.518   2.719   0.861 -1.1983 -0.6486  0.8678
13857SOL     OW44202   2.691   6.093   4.170  0.4527 -0.2862 -0.1610
13857SOL    HW144203   2.749   6.113   4.096 -0.1981  0.4999 -0.4773
13857SOL    HW244204   2.617   6.048   4.131  0.4684 -0.5669  0.1296
13858SOL     OW44205   0.842   5.375   8.128  0.3896  0.1077 -0.1034
13858SOL    HW144206   0.907   5.445   8.125  0.4232  0.0594 -0.7187
13858SOL    HW244207   0.894   5.294   8.128  0.3529  0.0809  0.6951
13859SOL     OW44208   2.167   1.030   3.848  0.3503 -0.1399 -0.2283
13859SOL    HW144209   2.073   1.033   3.869  0.3795 -2.7096  0.6132
13859SOL    HW244210   2.175   0.957   3.787  1.6279  1.1346 -1.6673
13860SOL     OW44211   8.501   4.433   3.870 -0.2925 -0.3222 -0.2316
13860SOL    HW144212   8.425   4.380   3.846 -1.6642  1.4762 -0.0654
13860SOL    HW244213   8.473   4.483   3.946  0.8313  0.8832 -0.5636
13861SOL     OW44214   5.094   9.661   9.029  0.5498 -0.2447 -0.0502
13861SOL    HW144215   5.036   9.617   8.967  0.1770  1.7605 -1.1864
13861SOL    HW244216   5.183   9.643   8.996  1.1008 -5.4834  3.0513
13862SOL     OW44217   2.619   4.128   4.705 -0.5445 -0.0183  0.0178
13862SOL    HW144218   2.713   4.128   4.688 -0.4548  0.1316  0.4978
13862SOL    HW244219   2.596   4.221   4.707 -1.0151 -0.0470 -1.7163
13863SOL     OW44220   9.194   6.576   1.394 -0.3896  0.2206 -0.4230
13863SOL    HW144221   9.110   6.586   1.349 -0.3135  0.3344 -0.5427
13863SOL    HW244222   9.190   6.489   1.434 -0.0337 -0.3286 -1.5411
13864SOL     OW44223   3.392   4.903   1.278 -0.3901 -0.0886 -0.0741
13864SOL    HW144224   3.310   4.898   1.229 -1.0416  0.0142  0.9778
13864SOL    HW244225   3.402   4.996   1.299 -0.4296 -0.2060  0.4865
13865SOL     OW44226   6.737   6.286   5.841  0.1015 -0.1465  0.4386
13865SOL    HW144227   6.715   6.364   5.789  1.0449 -1.3859 -1.9415
13865SOL    HW244228   6.807   6.316   5.899 -0.2833  1.0355  0.3284
13866SOL     OW44229   5.920   2.214   3.484  0.0318  0.0050 -0.0511
13866SOL    HW144230   5.983   2.254   3.425  0.2610  0.3998  0.4582
13866SOL    HW244231   5.968   2.201   3.566 -0.0759 -1.1773 -0.1499
13867SOL     OW44232   8.156  10.137   2.853 -0.0102  0.2467  0.3213
13867SOL    HW144233   8.189  10.218   2.891 -0.0861  0.0979  0.7093
13867SOL    HW244234   8.222  10.071   2.876 -0.8407 -0.1772  1.6246
13868SOL     OW44235   2.209   6.236   5.039 -0.4800 -0.4500 -0.2234
13868SOL    HW144236   2.139   6.188   5.084  0.7167 -1.5813  0.5027
13868SOL    HW244237   2.272   6.257   5.108  0.0713  0.2276 -0.9213
13869SOL     OW44238   2.962   6.387   7.090  0.1518  0.1351 -0.1428
13869SOL    HW144239   2.910   6.400   7.169 -0.1882 -0.7336 -0.2071
13869SOL    HW244240   3.043   6.434   7.106 -0.1814  0.5270  0.4452
13870SOL     OW44241   4.774   5.679   2.801 -0.1977  0.4962  0.1648
13870SOL    HW144242   4.861   5.656   2.768 -0.5372 -1.0443  0.2480
13870SOL    HW244243   4.747   5.753   2.746  0.6296  0.1655 -0.7352
13871SOL     OW44244   9.235   3.018   1.405  0.7415 -0.4670  0.1442
13871SOL    HW144245   9.207   3.066   1.483 -2.5481 -2.3922  0.3442
13871SOL    HW244246   9.206   3.071   1.331 -0.5213 -0.8786  0.3307
13872SOL     OW44247   7.683   6.335   5.508 -0.3069  0.2919  0.4118
13872SOL    HW144248   7.773   6.302   5.500 -0.2442 -0.3821  2.8966
13872SOL    HW244249   7.675   6.401   5.440  2.2467  0.7220  0.4434
13873SOL     OW44250   1.969   4.350   3.594  0.4109 -0.0423  0.3766
13873SOL    HW144251   2.054   4.350   3.550  0.7984 -2.6635  0.9043
13873SOL    HW244252   1.954   4.441   3.619  2.9197  0.5419 -0.0060
13874SOL     OW44253   4.709   7.979   6.428 -0.1860 -0.1370  0.6199
13874SOL    HW144254   4.728   7.886   6.439 -0.5677 -0.1467  1.2718
13874SOL    HW244255   4.623   7.981   6.385  0.6136 -0.0857 -1.0400
13875SOL     OW44256   1.515   7.143   4.004 -0.0138 -0.3137  0.5707
13875SOL    HW144257   1.550   7.212   4.061  2.6119 -0.5859 -0.5253
13875SOL    HW244258   1.528   7.177   3.915 -0.0325 -1.6009  0.0532
13876SOL     OW44259   9.436   7.655   9.259  0.0270 -0.2552 -0.3629
13876SOL    HW144260   9.413   7.571   9.300 -0.0150  0.4375  1.1351
13876SOL    HW244261   9.375   7.664   9.186 -1.7156 -0.4152  0.9822
13877SOL     OW44262   5.590   6.604   7.298  0.2282  0.2880 -0.2007
13877SOL    HW144263   5.563   6.650   7.218  0.3300 -0.3320 -0.6006
13877SOL    HW244264   5.508   6.581   7.341  0.1695  0.4624 -0.2168
13878SOL     OW44265   7.360   3.117   2.056  0.1582 -0.7758 -0.1290
13878SOL    HW144266   7.406   3.033   2.055 -0.8792 -1.3606 -1.1146
13878SOL    HW244267   7.286   3.102   2.115 -0.9436 -1.0850 -1.5558
13879SOL     OW44268   9.629   2.258   5.357  0.1404 -0.1524  0.1361
13879SOL    HW144269   9.564   2.189   5.365 -0.6022  0.5902  0.7176
13879SOL    HW244270   9.588   2.334   5.399  1.2221  0.4394  0.1467
13880SOL     OW44271   2.797   4.723  10.115 -0.1048 -0.8175  0.6846
13880SOL    HW144272   2.765   4.762  10.197 -1.4872  0.8362 -0.5715
13880SOL    HW244273   2.868   4.781  10.087 -0.8115 -0.3360 -0.1558
13881SOL     OW44274   7.122   1.209   1.404 -0.4962  1.0966 -0.1736
13881SOL    HW144275   7.108   1.300   1.376 -0.8062  0.4335 -2.4126
13881SOL    HW244276   7.098   1.209   1.497  0.2972  3.4530  0.1039
13882SOL     OW44277   1.141   3.174   9.686  0.0149 -0.5315  0.8441
13882SOL    HW144278   1.167   3.128   9.607 -0.3951  0.2425  0.2477
13882SOL    HW244279   1.053   3.140   9.706  1.0332 -2.5370  2.3930
13883SOL     OW44280   0.624   8.314   0.269  0.0666  0.6730  0.5336
13883SOL    HW144281   0.538   8.353   0.287  0.1299  0.8952  0.3553
13883SOL    HW244282   0.686   8.376   0.307  0.2491  1.6028 -1.2091
13884SOL     OW44283   5.889   9.926   2.166  0.1187 -0.0206 -0.1823
13884SOL    HW144284   5.984   9.915   2.176  0.4241  0.6893 -1.8747
13884SOL    HW244285   5.857   9.838   2.149  0.2063 -0.5228  2.0394
13885SOL     OW44286   1.104   0.883   0.262 -0.1693 -0.5706  0.0947
13885SOL    HW144287   1.034   0.912   0.204 -0.1124 -2.2027 -0.8399
13885SOL    HW244288   1.061   0.862   0.344 -0.6446 -0.7946 -0.2120
13886SOL     OW44289   4.916  10.277   0.926  0.1480  0.0272 -1.0493
13886SOL    HW144290   4.865  10.333   0.984  0.3756  0.6236 -1.4198
13886SOL    HW244291   4.855  10.209   0.898 -0.4601  0.7722 -1.5430
13887SOL     OW44292   3.603   8.448   2.585  0.7062  0.3715 -0.5722
13887SOL    HW144293   3.582   8.440   2.492 -0.0638 -2.0098 -0.2484
13887SOL    HW244294   3.694   8.419   2.592  0.6181  0.1057 -0.5245
13888SOL     OW44295   8.745   4.317   4.057 -0.3698  0.1667 -0.4414
13888SOL    HW144296   8.783   4.394   4.100  1.1674 -0.7535 -0.0660
13888SOL    HW244297   8.720   4.348   3.970  2.2051  0.6519 -1.0948
13889SOL     OW44298   0.710   6.819   4.453  0.0644 -0.2189  0.2169
13889SOL    HW144299   0.703   6.898   4.507 -1.9793  0.2668 -0.6753
13889SOL    HW244300   0.649   6.757   4.493  1.9080 -1.5322  1.1192
13890SOL     OW44301   9.336   0.568   7.787 -0.4440 -0.4566  0.0288
13890SOL    HW144302   9.364   0.507   7.855  0.1653  0.3188  0.4906
13890SOL    HW244303   9.360   0.654   7.821  0.1062 -0.0712 -1.2674
13891SOL     OW44304   2.676   3.484   7.899 -0.2023 -0.1213  0.1801
13891SOL    HW144305   2.757   3.434   7.897  0.5416  0.9956  0.9881
13891SOL    HW244306   2.704   3.576   7.900 -1.4430  0.2857  1.4012
13892SOL     OW44307   4.034  10.275   6.319 -0.4303 -0.0407  0.5304
13892SOL    HW144308   4.108  10.335   6.315  0.3552 -0.9784  0.7692
13892SOL    HW244309   4.069  10.196   6.360 -1.8087 -0.1396  1.5845
13893SOL     OW44310   3.626   2.023   2.213  0.7270  0.0526 -0.0296
13893SOL    HW144311   3.572   2.086   2.262  1.7275  0.6661  0.3223
13893SOL    HW244312   3.712   2.064   2.211  0.9204 -0.3947 -1.5331
13894SOL     OW44313   3.098   1.188   9.698 -0.0123  0.4802  0.1918
13894SOL    HW144314   3.125   1.166   9.609  0.6260  2.7885 -0.2477
13894SOL    HW244315   3.004   1.172   9.699  0.3644 -2.2808  0.0376
13895SOL     OW44316   2.551   7.898   3.463 -0.1029 -0.1960 -0.2828
13895SOL    HW144317   2.508   7.966   3.411 -2.6043  1.1715  3.2095
13895SOL    HW244318   2.642   7.899   3.433 -1.2265  0.6596 -4.2523
13896SOL     OW44319   9.719   6.037  10.281 -0.2079  0.6818  0.3316
13896SOL    HW144320   9.678   6.094  10.347  0.3001  1.7725 -0.2647
13896SOL    HW244321   9.670   6.055  10.201 -0.2428  0.0302  0.2026
13897SOL     OW44322   5.589   8.441   4.817 -0.5125 -0.2566 -0.0915
13897SOL    HW144323   5.630   8.379   4.878 -1.0891 -1.1872 -0.6194
13897SOL    HW244324   5.656   8.458   4.751 -1.0347 -2.0661 -1.1634
13898SOL     OW44325   3.154   1.337   6.098 -0.5109  0.0939 -0.2763
13898SOL    HW144326   3.135   1.387   6.019 -1.7709  1.5129  0.8618
13898SOL    HW244327   3.069   1.318   6.136  0.0918  0.3632  1.2790
13899SOL     OW44328   0.474   3.196   5.418  0.0099 -0.0536  0.1413
13899SOL    HW144329   0.538   3.183   5.348  1.1533  0.0711  1.1295
13899SOL    HW244330   0.516   3.258   5.478 -0.9301 -0.1834  0.9659
13900SOL     OW44331   8.697   0.133   2.843  0.3122  0.0634 -0.3125
13900SOL    HW144332   8.695   0.207   2.782 -0.7491  1.2812  1.1490
13900SOL    HW244333   8.790   0.108   2.846  0.7609  1.6134 -0.5076
13901SOL     OW44334   9.948   8.500   1.589  0.0512 -0.0869 -1.0407
13901SOL    HW144335  10.020   8.438   1.596 -1.4783 -1.8605 -0.0064
13901SOL    HW244336   9.959   8.558   1.664 -1.6197 -2.7523  1.4843
13902SOL     OW44337   6.597  10.283   3.770 -0.3101  0.6334  0.4411
13902SOL    HW144338   6.666  10.293   3.836 -0.9175 -2.3876  1.6843
13902SOL    HW244339   6.538  10.357   3.785  0.0627  0.5374  2.6965
13903SOL     OW44340   3.513   9.420   0.761  0.3491 -0.1681  0.2723
13903SOL    HW144341   3.423   9.399   0.734  0.1174 -1.2560  1.7573
13903SOL    HW244342   3.502   9.494   0.821  0.4807 -0.0418  0.1379
13904SOL     OW44343   7.207   8.031   6.292 -0.2875  0.0179  0.3748
13904SOL    HW144344   7.300   8.014   6.304  0.0061  0.6188 -0.8369
13904SOL    HW244345   7.167   7.944   6.284  0.4977 -0.2433 -1.1525
13905SOL     OW44346   2.518   4.567   3.484  0.1955  0.8235  0.7695
13905SOL    HW144347   2.521   4.652   3.527  2.2969  1.5426 -0.6207
13905SOL    HW244348   2.495   4.586   3.393  2.2690  0.1754  0.0430
13906SOL     OW44349   8.100   8.487   0.621 -0.2825  0.1413 -0.4020
13906SOL    HW144350   8.101   8.455   0.531  1.6739 -0.4361 -0.2261
13906SOL    HW244351   8.091   8.409   0.675 -0.0015  0.3325 -0.0708
13907SOL     OW44352   3.585   4.730   0.593  0.8858 -0.0402 -0.5497
13907SOL    HW144353   3.634   4.811   0.579  0.9197 -0.0447 -0.4581
13907SOL    HW244354   3.583   4.688   0.507  0.3896  0.3268 -0.7236
13908SOL     OW44355   2.911   9.423   1.601  0.2154  0.7018 -0.2481
13908SOL    HW144356   2.818   9.422   1.622  0.5348  0.7002  1.2882
13908SOL    HW244357   2.914   9.437   1.506 -1.3088  2.0157 -0.1456
13909SOL     OW44358   7.863  10.115   6.081 -0.0831 -0.1408 -0.0493
13909SOL    HW144359   7.867  10.157   6.167 -1.6638  0.5130 -0.2642
13909SOL    HW244360   7.863  10.021   6.100  0.8602 -0.0358  0.5686
13910SOL     OW44361   6.067   6.735   2.701  0.2184 -0.1758  0.4108
13910SOL    HW144362   5.980   6.720   2.739 -0.6626 -0.0455 -1.4478
13910SOL    HW244363   6.077   6.830   2.703  0.1832 -0.1706  0.3640
13911SOL     OW44364   0.564   4.818   1.874  0.0927 -0.4828 -0.3788
13911SOL    HW144365   0.526   4.757   1.937 -0.2760  0.7524  0.6484
13911SOL    HW244366   0.495   4.830   1.808 -0.3325 -0.1995  0.1099
13912SOL     OW44367   6.933   2.440   1.142  1.0129  0.2201 -0.9348
13912SOL    HW144368   6.887   2.510   1.097  1.8566  1.9334  0.7134
13912SOL    HW244369   6.999   2.485   1.195  1.3509 -1.7966  0.4860
13913SOL     OW44370   4.628   7.368   7.539 -0.1809 -0.2056 -0.6969
13913SOL    HW144371   4.640   7.323   7.623  1.5684 -0.3317 -0.9600
13913SOL    HW244372   4.604   7.299   7.478 -2.6396  0.0633 -0.1098
13914SOL     OW44373   0.549   9.768   2.171  0.3530 -0.0470  0.3241
13914SOL    HW144374   0.603   9.829   2.121  2.8328 -0.9464  1.7209
13914SOL    HW244375   0.532   9.696   2.111  0.5512  0.3418 -0.2048
13915SOL     OW44376   3.942   2.656   3.957  0.0312  0.0944 -0.4227
13915SOL    HW144377   3.907   2.653   3.868  1.9046 -0.6792 -1.1886
13915SOL    HW244378   3.914   2.741   3.991 -1.8178 -0.1324 -1.2461
13916SOL     OW44379   2.094   8.113   0.651 -0.5064 -0.0672 -0.3176
13916SOL    HW144380   2.070   8.184   0.711 -1.3236 -0.7799  0.2342
13916SOL    HW244381   2.074   8.147   0.564 -0.5560  0.5028 -0.0876
13917SOL     OW44382   8.975   6.698   2.072  0.2507 -0.3591  0.0486
13917SOL    HW144383   8.983   6.731   2.162 -0.2793 -0.3677  0.1008
13917SOL    HW244384   8.959   6.776   2.019  0.4403 -0.3688 -0.0230
13918SOL     OW44385   3.312   1.453   6.708  0.2123 -0.5413  0.2179
13918SOL    HW144386   3.233   1.458   6.654  0.7957 -0.8933 -0.6974
13918SOL    HW244387   3.315   1.536   6.755  0.2657  0.2404 -1.1174
13919SOL     OW44388   8.049   3.010   5.813 -0.3056 -0.4847  0.4064
13919SOL    HW144389   8.002   3.069   5.754 -0.5549  0.4654  1.5124
13919SOL    HW244390   8.137   3.004   5.776 -0.5997 -0.3161 -0.3368
13920SOL     OW44391   1.213   9.829   1.922 -0.2511 -0.4711 -0.1227
13920SOL    HW144392   1.228   9.735   1.909  0.1635 -0.8041  2.2302
13920SOL    HW244393   1.119   9.841   1.904 -0.0724 -1.0806 -1.5806
13921SOL     OW44394   0.025   5.145   9.623 -0.4372 -0.4518 -0.9265
13921SOL    HW144395  -0.014   5.206   9.561 -1.1036 -0.4540 -0.5223
13921SOL    HW244396   0.041   5.065   9.572 -0.1911 -0.1737 -1.2919
13922SOL     OW44397   5.229   8.671   3.917  0.0259  0.3390 -0.1882
13922SOL    HW144398   5.310   8.624   3.899 -0.7886  0.0409 -4.0605
13922SOL    HW244399   5.247   8.761   3.889 -0.8086  0.3780 -0.6489
13923SOL     OW44400   8.500   6.770   8.073 -0.2083  0.2406 -0.2182
13923SOL    HW144401   8.407   6.781   8.093  0.1361  1.1552  0.9881
13923SOL    HW244402   8.542   6.759   8.159  0.8170 -0.0152 -0.7380
13924SOL     OW44403   6.094   6.625   4.618  0.8056 -0.4165 -0.2498
13924SOL    HW144404   6.173   6.621   4.671  0.5137  1.5089  0.4265
13924SOL    HW244405   6.121   6.596   4.531  1.8657 -1.2733  0.3403
13925SOL     OW44406   3.691   1.621   3.508 -0.3000  0.1233  0.1712
13925SOL    HW144407   3.653   1.659   3.429  0.8026 -0.3904 -0.6314
13925SOL    HW244408   3.617   1.578   3.552 -1.0290  0.8823 -0.2808
13926SOL     OW44409   7.293   2.110   7.664 -0.0599  0.6502  0.2391
13926SOL    HW144410   7.251   2.105   7.750  0.2507  0.9986  0.4160
13926SOL    HW244411   7.385   2.088   7.682  0.2105  1.6656  0.1613
13927SOL     OW44412   3.443   7.363   1.161  0.6579  0.2796  0.4224
13927SOL    HW144413   3.520   7.345   1.106 -0.4516 -0.2706 -1.0059
13927SOL    HW244414   3.475   7.355   1.251  1.9607 -1.2946 -0.1448
13928SOL     OW44415   0.832   5.092   7.438  0.4875  0.4716  0.3455
13928SOL    HW144416   0.799   5.093   7.348  0.0373  3.0552  0.4470
13928SOL    HW244417   0.869   5.179   7.450  2.2510 -0.4517  2.0974
13929SOL     OW44418   9.780   5.984   0.337  0.1124 -0.1458 -0.2658
13929SOL    HW144419   9.694   5.985   0.297  0.3564  0.7676 -0.8069
13929SOL    HW244420   9.835   6.033   0.277  0.8138  0.0430  0.5018
13930SOL     OW44421   5.412   7.617   5.083 -0.2714 -0.1483 -0.0321
13930SOL    HW144422   5.465   7.544   5.052 -1.9161 -1.6867  0.5704
13930SOL    HW244423   5.340   7.623   5.020  0.3166  1.5923 -0.5856
13931SOL     OW44424   8.482   4.821   8.822 -0.3919  0.5039 -0.0107
13931SOL    HW144425   8.546   4.793   8.887 -0.3273  0.2032 -0.2019
13931SOL    HW244426   8.418   4.872   8.872 -0.7515 -0.3529  0.4228
13932SOL     OW44427   2.340   0.390   1.497  0.5070  0.5178 -0.3624
13932SOL    HW144428   2.353   0.317   1.436  0.6411  2.1833 -2.4071
13932SOL    HW244429   2.246   0.409   1.493  0.5144  0.6414 -0.0134
13933SOL     OW44430   1.359   3.625   5.006  0.3816  0.0699  0.0409
13933SOL    HW144431   1.310   3.605   5.085  0.8825 -1.8284 -0.0751
13933SOL    HW244432   1.305   3.592   4.935  0.8696 -0.1195 -0.2500
13934SOL     OW44433   9.856  10.035   7.478  0.9879  0.1172 -0.8523
13934SOL    HW144434   9.787  10.092   7.443  2.2771  1.7337 -0.9118
13934SOL    HW244435   9.904  10.005   7.401  0.9068 -0.2774 -0.7532
13935SOL     OW44436   2.059   0.817   5.837 -0.0867 -0.1364 -0.5628
13935SOL    HW144437   2.116   0.785   5.767  1.7696  1.3783  0.1782
13935SOL    HW244438   2.009   0.888   5.797  1.7419  1.4528 -0.1745
13936SOL     OW44439   7.975   0.770   7.354  0.0496 -0.2918 -0.1429
13936SOL    HW144440   7.913   0.794   7.286  0.6099 -0.2509 -0.6504
13936SOL    HW244441   7.928   0.707   7.409 -0.5825  0.0790 -0.2576
13937SOL     OW44442   8.656   3.200   2.647 -0.3062  0.0977 -0.2620
13937SOL    HW144443   8.672   3.289   2.618  0.1776 -0.2119 -0.9682
13937SOL    HW244444   8.570   3.178   2.613 -0.8736  0.6352  0.7759
13938SOL     OW44445   6.151   9.693   0.608 -0.3794  1.0227  0.1880
13938SOL    HW144446   6.201   9.617   0.638 -1.3623  0.1682 -0.3190
13938SOL    HW244447   6.148   9.751   0.684  1.8685  1.3896  0.0848
13939SOL     OW44448  10.009   1.149   6.433 -0.0147 -0.0726  0.0370
13939SOL    HW144449  10.045   1.234   6.405  1.6939 -0.8410 -0.2298
13939SOL    HW244450  10.044   1.137   6.521 -1.1453 -0.0298  0.5069
13940SOL     OW44451   5.729   9.241   2.361  0.6930  0.3811 -0.5989
13940SOL    HW144452   5.766   9.153   2.354  0.3949 -0.0765  2.4060
13940SOL    HW244453   5.648   9.237   2.309  2.1351 -0.1265 -2.9790
13941SOL     OW44454   6.924   3.140   4.760  0.0083  0.1979 -0.1138
13941SOL    HW144455   6.952   3.155   4.851  0.5474 -0.6164 -0.1348
13941SOL    HW244456   7.004   3.152   4.708  0.6005 -2.8966 -0.1042
13942SOL     OW44457   7.906   9.782   8.781  0.2038 -0.2608  0.5328
13942SOL    HW144458   7.812   9.798   8.775  0.0007 -0.4253  2.6707
13942SOL    HW244459   7.928   9.796   8.873  2.1430 -0.9239  0.2291
13943SOL     OW44460   7.500   8.075   0.990  0.3090 -0.0132  0.6078
13943SOL    HW144461   7.518   8.005   0.926 -1.4644  0.1097 -0.0828
13943SOL    HW244462   7.502   8.030   1.074  3.8016  0.0253  0.6892
13944SOL     OW44463  10.018   7.810   8.988  0.6218 -0.2062  0.0246
13944SOL    HW144464  10.034   7.772   9.075  0.8380  1.1475  0.6069
13944SOL    HW244465  10.096   7.787   8.938  0.4030 -1.1847  0.1087
13945SOL     OW44466   0.125   1.085   1.372 -0.0856 -0.2724  0.0389
13945SOL    HW144467   0.201   1.121   1.325  0.5782 -0.0795  1.1948
13945SOL    HW244468   0.056   1.151   1.360  0.2398  0.0288 -0.2110
13946SOL     OW44469   4.799   8.735   9.990 -0.4453  0.5056  0.6295
13946SOL    HW144470   4.731   8.668   9.980 -0.9435  0.9607  0.9553
13946SOL    HW244471   4.772   8.787  10.065  0.9780 -0.1508  1.6510
13947SOL     OW44472   1.855   4.725   0.921  0.2088  0.3657 -0.2505
13947SOL    HW144473   1.785   4.667   0.951 -0.2008  1.1028  0.2616
13947SOL    HW244474   1.829   4.752   0.833  1.0250 -1.1909 -1.0075
13948SOL     OW44475   0.493   3.868   8.939 -0.8898  0.0996 -0.2263
13948SOL    HW144476   0.517   3.844   8.850  1.0040 -1.2084  0.5380
13948SOL    HW244477   0.418   3.926   8.930 -0.6219  0.1667 -2.6571
13949SOL     OW44478   9.220   2.300   9.875 -0.6585 -0.3580  0.1358
13949SOL    HW144479   9.214   2.241   9.950  1.8198 -1.3405 -0.3659
13949SOL    HW244480   9.211   2.243   9.799  2.5947 -0.3412 -0.3814
13950SOL     OW44481   3.348   8.350   5.252 -0.7020  0.0340 -0.4276
13950SOL    HW144482   3.261   8.315   5.234 -1.5301  0.8867  1.5649
13950SOL    HW244483   3.403   8.273   5.266 -1.3678 -0.5161 -0.7708
13951SOL     OW44484   2.998   5.082   9.673 -0.6273  0.1425 -0.5769
13951SOL    HW144485   3.024   5.051   9.760 -0.1673  0.6950 -0.5128
13951SOL    HW244486   2.967   5.004   9.628 -3.3013  0.1866  0.9354
13952SOL     OW44487   1.276   6.545   8.120 -0.5636  0.3418 -0.7971
13952SOL    HW144488   1.183   6.550   8.140 -0.1975 -1.9211  2.0089
13952SOL    HW244489   1.294   6.452   8.112  1.6473  0.6883 -0.3591
13953SOL     OW44490   8.381   1.597   7.654  0.0320 -0.1727  0.4018
13953SOL    HW144491   8.427   1.605   7.738 -0.5917  0.4521  0.6915
13953SOL    HW244492   8.322   1.522   7.666  0.2485 -0.3505  0.3695
13954SOL     OW44493   2.256   6.711   7.222  0.1058 -0.3877 -0.7682
13954SOL    HW144494   2.265   6.616   7.216 -0.6697 -0.5859  0.6359
13954SOL    HW244495   2.162   6.727   7.213 -0.4295 -0.2344  3.2624
13955SOL     OW44496   5.863   6.448  10.079 -0.1904 -0.9404 -0.1887
13955SOL    HW144497   5.860   6.476   9.988  1.3743 -1.4512 -0.4361
13955SOL    HW244498   5.846   6.354  10.076 -1.6214 -0.7148  0.2255
13956SOL     OW44499   6.662   5.587   3.432  0.0532 -0.3230  0.2333
13956SOL    HW144500   6.651   5.581   3.337  1.5813  0.1283 -0.0035
13956SOL    HW244501   6.595   5.649   3.460  0.6773  0.8948 -0.8308
13957SOL     OW44502   0.179   1.048   2.447  0.3303  0.2506  0.1428
13957SOL    HW144503   0.237   0.996   2.391 -0.1565 -0.7938  0.5982
13957SOL    HW244504   0.238   1.097   2.504  0.8640  1.7392 -1.6019
13958SOL     OW44505   0.774   3.214   9.016  0.2643  0.4395 -0.0054
13958SOL    HW144506   0.725   3.289   8.983  0.1631 -0.2088 -1.4456
13958SOL    HW244507   0.809   3.172   8.937 -1.3081 -2.1395  0.5314
13959SOL     OW44508   6.318   6.319   5.840 -0.0525 -0.5964 -0.0572
13959SOL    HW144509   6.238   6.308   5.788 -0.7695  0.9739  0.6661
13959SOL    HW244510   6.373   6.245   5.813 -1.1765 -0.9485 -1.5845
13960SOL     OW44511   7.936   1.978   5.759 -0.2724 -0.6375  0.6532
13960SOL    HW144512   8.001   1.909   5.746 -0.1266 -0.6051  1.1914
13960SOL    HW244513   7.874   1.966   5.687  1.1886  0.3639 -0.8266
13961SOL     OW44514   6.567   6.837   0.059  0.4301  0.2639 -0.0780
13961SOL    HW144515   6.593   6.804   0.145  2.6204  0.2622 -0.6696
13961SOL    HW244516   6.592   6.768  -0.002 -0.6417  0.4710 -0.7715
13962SOL     OW44517   1.460   4.822   1.442 -0.2647 -0.7181 -0.0875
13962SOL    HW144518   1.371   4.795   1.463 -0.4373  1.2767  2.0832
13962SOL    HW244519   1.450   4.884   1.369 -0.8135  0.4120  0.9228
13963SOL     OW44520   5.708  10.101   0.507 -0.0485 -0.1197  0.3755
13963SOL    HW144521   5.714  10.154   0.427 -1.0844 -0.0908  0.3052
13963SOL    HW244522   5.615  10.077   0.513 -0.2748  0.9920  2.2707
13964SOL     OW44523   8.917   2.038   3.568 -0.4101 -0.1636  0.1043
13964SOL    HW144524   8.916   1.961   3.624 -0.6115  1.1119  1.9440
13964SOL    HW244525   8.997   2.029   3.516 -0.2774 -1.4466  0.4980
13965SOL     OW44526   6.329   2.538   5.053 -0.0123  0.3374 -0.4461
13965SOL    HW144527   6.325   2.617   4.998  1.2319  2.1759  1.8933
13965SOL    HW244528   6.259   2.482   5.020  0.3063  1.5236 -3.4760
13966SOL     OW44529   1.702   8.794   2.821  0.2584  0.0379 -0.5228
13966SOL    HW144530   1.715   8.770   2.913 -0.2196  1.3174 -0.0917
13966SOL    HW244531   1.665   8.883   2.825 -1.7724 -0.6845 -1.8934
13967SOL     OW44532   1.818   3.114   2.188 -0.0573  0.3551  0.8152
13967SOL    HW144533   1.844   3.197   2.150  2.0804 -1.5380 -2.2960
13967SOL    HW244534   1.758   3.076   2.124  2.5712 -2.3533 -0.2739
13968SOL     OW44535   1.376   0.661   1.747 -0.0868  0.1367  0.6829
13968SOL    HW144536   1.428   0.653   1.827 -1.0490 -0.1645  1.3048
13968SOL    HW244537   1.410   0.740   1.704  0.9804 -0.1481  0.9698
13969SOL     OW44538   5.963   2.988   0.066  0.0040 -0.2790 -0.2382
13969SOL    HW144539   6.018   2.952   0.135  0.1642 -0.6007 -0.5287
13969SOL    HW244540   5.996   2.947  -0.015 -1.2901 -1.2318 -0.3097
13970SOL     OW44541   6.317   7.500   8.334 -0.2242 -0.4339  0.0838
13970SOL    HW144542   6.247   7.512   8.399 -1.8045  0.2468 -1.6490
13970SOL    HW244543   6.323   7.406   8.322  0.2105 -0.5805  1.3123
13971SOL     OW44544   0.063   4.616   4.836  0.4348  0.2756  0.3940
13971SOL    HW144545   0.124   4.555   4.794 -1.5270 -1.3337 -0.2372
13971SOL    HW244546   0.065   4.694   4.780 -2.0045 -1.7416 -2.8769
13972SOL     OW44547  10.061   0.476   5.429 -0.6091  0.2004 -0.2708
13972SOL    HW144548   9.978   0.433   5.451  0.4587 -1.9687 -0.1456
13972SOL    HW244549  10.117   0.457   5.504  1.2129 -1.9857 -2.0327
13973SOL     OW44550   5.891   7.859   7.388  0.1627  0.0336 -0.1437
13973SOL    HW144551   5.943   7.911   7.326 -0.0495  1.6915  1.0172
13973SOL    HW244552   5.925   7.883   7.474 -0.7180 -0.9109  0.4930
13974SOL     OW44553   3.943   2.738   6.253 -0.4853 -0.1640 -0.0638
13974SOL    HW144554   3.853   2.758   6.277 -0.1702  1.3765 -0.0724
13974SOL    HW244555   3.995   2.807   6.293  0.2712  1.3293 -3.2819
13975SOL     OW44556   7.914   7.139   6.100  0.7168 -0.0907  0.0327
13975SOL    HW144557   7.849   7.201   6.133  0.9747  0.2022 -0.0038
13975SOL    HW244558   7.863   7.060   6.080  0.3783  0.1180  0.0471
13976SOL     OW44559   0.888   6.575   8.683 -0.6154 -0.6206 -0.1483
13976SOL    HW144560   0.886   6.589   8.777  0.9604  1.1816 -0.3329
13976SOL    HW244561   0.942   6.496   8.672 -0.3650 -0.5372  0.4388
13977SOL     OW44562   4.987   8.302   5.723  0.0844  0.5355  0.1421
13977SOL    HW144563   4.987   8.334   5.813  2.1713  0.6774  0.1334
13977SOL    HW244564   5.051   8.231   5.722 -0.6335 -0.1272 -1.0147
13978SOL     OW44565   2.798   2.886   1.082 -0.5868  0.3815 -0.3676
13978SOL    HW144566   2.854   2.815   1.051 -1.1601  0.2915 -1.2170
13978SOL    HW244567   2.819   2.894   1.175  2.4562  1.7997 -1.0329
13979SOL     OW44568   9.554   2.990   9.503 -0.0443  0.1826  0.1887
13979SOL    HW144569   9.522   3.078   9.482  1.3712  1.0521  1.4313
13979SOL    HW244570   9.487   2.953   9.560 -0.8459  0.2714 -0.6705
13980SOL     OW44571   4.718   8.916   3.819  0.0007 -0.3965  0.0048
13980SOL    HW144572   4.726   8.982   3.888  0.0382  1.1023 -1.3752
13980SOL    HW244573   4.642   8.864   3.844  0.0228  0.1084  1.1715
13981SOL     OW44574   7.488   2.471   2.968  0.2797  0.0038 -0.4341
13981SOL    HW144575   7.394   2.474   2.984  0.2890 -0.4823 -0.2553
13981SOL    HW244576   7.527   2.460   3.054  0.4850 -0.0032 -0.5264
13982SOL     OW44577   7.070   1.871   3.449  0.1213  0.1949  0.3937
13982SOL    HW144578   7.051   1.863   3.355 -2.1560  0.1405  0.8218
13982SOL    HW244579   7.067   1.965   3.467 -0.7644  0.1201  0.6564
13983SOL     OW44580   8.497   3.866   1.020 -0.2060  0.5340  0.5354
13983SOL    HW144581   8.592   3.870   1.012  0.1677 -1.9338  2.6332
13983SOL    HW244582   8.481   3.855   1.113 -2.5243  0.0875  0.1404
13984SOL     OW44583   4.765   4.127   3.392 -0.0737  0.7322  0.5141
13984SOL    HW144584   4.776   4.171   3.476  2.6190 -2.1310  1.8477
13984SOL    HW244585   4.849   4.137   3.348 -0.2134 -0.9372 -0.2006
13985SOL     OW44586   3.142   7.328   5.003  0.9592 -0.3842 -0.0857
13985SOL    HW144587   3.137   7.235   5.024 -1.1787 -0.3312 -0.1756
13985SOL    HW244588   3.109   7.334   4.913 -1.2695  0.6777  0.7319
13986SOL     OW44589   7.225   6.899  10.280 -0.5584  0.1673 -0.4515
13986SOL    HW144590   7.281   6.882  10.204  0.9104  2.1708  0.1017
13986SOL    HW244591   7.272   6.966  10.330 -3.2825  1.6989  0.2655
13987SOL     OW44592   6.478   5.207   7.914  0.1152 -0.1436 -0.0760
13987SOL    HW144593   6.484   5.122   7.871  0.3541 -0.0638 -0.2029
13987SOL    HW244594   6.386   5.215   7.938  0.7239 -2.1892  3.5822
13988SOL     OW44595   3.762   7.491   5.939  0.5444  0.3084  0.0332
13988SOL    HW144596   3.710   7.445   6.005 -1.0551  1.1453 -0.5963
13988SOL    HW244597   3.750   7.440   5.859  1.4510  0.0139  0.0650
13989SOL     OW44598   9.424   1.396   7.929  0.7852  0.0021  0.1386
13989SOL    HW144599   9.495   1.390   7.993  1.6209  1.3995 -0.6023
13989SOL    HW244600   9.346   1.412   7.982  1.0976 -0.9194  0.9222
13990SOL     OW44601   3.265   3.417   3.205  0.8332 -0.2640 -0.3234
13990SOL    HW144602   3.203   3.372   3.148 -0.8333  0.8442  0.5101
13990SOL    HW244603   3.318   3.348   3.244 -1.9606 -1.6493  1.3267
13991SOL     OW44604   7.231   3.273   4.464 -0.0990 -0.5623 -0.1464
13991SOL    HW144605   7.200   3.194   4.509 -2.7017  0.1820 -0.4490
13991SOL    HW244606   7.154   3.304   4.415  1.0406  1.7692 -0.5939
13992SOL     OW44607   1.375   4.224   2.418 -0.4536 -0.1645  0.1861
13992SOL    HW144608   1.312   4.152   2.409 -0.0080 -0.4123 -1.2247
13992SOL    HW244609   1.422   4.225   2.334 -0.1670  1.5179  0.3390
13993SOL     OW44610   0.754   0.299   4.939  0.3194 -0.1915  0.2004
13993SOL    HW144611   0.744   0.378   4.885  1.5194  0.4709  0.8997
13993SOL    HW244612   0.675   0.297   4.994 -0.1865 -0.0410 -0.5006
13994SOL     OW44613   1.826   5.031   6.524 -0.5000  0.4115 -0.3884
13994SOL    HW144614   1.904   5.011   6.575 -0.3786 -0.4250 -0.8918
13994SOL    HW244615   1.822   4.963   6.457 -1.5992  0.5004 -0.4439
13995SOL     OW44616   6.793   1.648   9.838  0.6020 -0.0240 -0.0209
13995SOL    HW144617   6.850   1.698   9.897 -0.0102  1.3149 -0.5109
13995SOL    HW244618   6.803   1.692   9.753 -0.8531 -0.0108 -0.2088
13996SOL     OW44619   6.748   0.316   9.763 -0.0937  0.0636 -0.2465
13996SOL    HW144620   6.666   0.352   9.729 -1.1321 -0.0069  2.0417
13996SOL    HW244621   6.750   0.226   9.730  0.0241  0.6086 -1.8349
13997SOL     OW44622   4.479   4.206   6.314 -0.5173  0.4711  0.3718
13997SOL    HW144623   4.454   4.246   6.231  2.1049  0.6468 -0.4402
13997SOL    HW244624   4.440   4.119   6.312  0.2761  0.1027 -1.5489
13998SOL     OW44625   4.135   9.532   5.558 -0.3066 -0.0703  0.2553
13998SOL    HW144626   4.095   9.531   5.645  0.0186  1.2655  0.4496
13998SOL    HW244627   4.103   9.453   5.515  1.1121 -1.8964  2.2916
13999SOL     OW44628   5.681   5.831   2.356 -0.4154 -0.3639  0.3920
13999SOL    HW144629   5.715   5.901   2.299 -0.4108 -0.9468 -0.3409
13999SOL    HW244630   5.604   5.869   2.397  0.1539  0.4097  0.7710
14000SOL     OW44631   6.334   4.639   7.050  0.0689  0.3839  0.0411
14000SOL    HW144632   6.256   4.646   7.105 -0.4977 -1.1602 -0.5130
14000SOL    HW244633   6.347   4.727   7.014 -1.4018  0.6679  0.1682
14001SOL     OW44634   2.223   9.088  10.292 -0.5706  0.0574  0.0665
14001SOL    HW144635   2.284   9.159  10.310 -1.8865  1.0307  0.8779
14001SOL    HW244636   2.250   9.017  10.350 -0.7250  0.7886  1.0480
14002SOL     OW44637   1.763   6.160   8.177  0.0230  0.2032  0.5985
14002SOL    HW144638   1.822   6.091   8.209  1.1100  1.9549  2.6508
14002SOL    HW244639   1.792   6.175   8.087  0.4493 -1.2701  0.4531
14003SOL     OW44640   0.520   5.337   9.376  0.1237  0.1618 -0.3773
14003SOL    HW144641   0.561   5.326   9.290  0.6855 -1.2196  0.0479
14003SOL    HW244642   0.512   5.249   9.410  2.6562  0.7904  2.2383
14004SOL     OW44643   8.692   5.036   4.424 -0.5498  0.2508  0.3105
14004SOL    HW144644   8.676   4.942   4.428 -0.5205  0.2426  0.2136
14004SOL    HW244645   8.614   5.075   4.466 -0.6623  0.1943  0.1524
14005SOL     OW44646   3.678   3.673   0.899 -0.4149 -0.0350 -0.0319
14005SOL    HW144647   3.612   3.706   0.838  0.8492  0.8439 -0.9594
14005SOL    HW244648   3.727   3.750   0.925  1.3243 -0.8724 -0.6834
14006SOL     OW44649   3.248   5.797   6.017 -0.1510 -0.2011  0.8705
14006SOL    HW144650   3.238   5.828   6.107  1.5420  0.8758  0.7242
14006SOL    HW244651   3.281   5.707   6.027 -1.8725 -0.8256  1.2888
14007SOL     OW44652   5.719   0.336   2.381 -0.3209  0.2380  0.0963
14007SOL    HW144653   5.692   0.417   2.337 -0.3427  0.4630  0.5191
14007SOL    HW244654   5.808   0.354   2.411  0.5709 -0.7184 -1.8374
14008SOL     OW44655   5.696   5.247   0.912 -0.0967  0.0332  0.9062
14008SOL    HW144656   5.607   5.281   0.924 -0.6262  0.2636 -2.6107
14008SOL    HW244657   5.748   5.325   0.890 -0.2303 -0.6289 -2.1532
14009SOL     OW44658   6.231   0.106   8.461  0.1436  0.5008  0.4299
14009SOL    HW144659   6.193   0.164   8.395  3.0929 -0.2991 -2.2307
14009SOL    HW244660   6.203   0.143   8.544 -2.8256  2.2870 -1.1912
14010SOL     OW44661   4.306   5.608   9.528 -0.4324 -0.2982 -0.2558
14010SOL    HW144662   4.239   5.540   9.536 -1.5619  0.4480 -2.4887
14010SOL    HW244663   4.385   5.569   9.566 -1.8027 -1.6500  1.3695
14011SOL     OW44664   7.012   5.980   3.708 -0.0315 -0.5981 -0.2352
14011SOL    HW144665   7.071   6.015   3.642 -1.8624 -0.6353 -1.9710
14011SOL    HW244666   6.984   6.056   3.759 -0.9441 -0.0710 -1.4762
14012SOL     OW44667   0.312   9.819   4.878  0.3785 -0.2992 -0.4705
14012SOL    HW144668   0.308   9.914   4.881 -0.6654 -0.3406  0.0706
14012SOL    HW244669   0.227   9.793   4.843  0.1037 -1.0769  0.7424
14013SOL     OW44670   8.786   4.730   6.698  0.4535 -0.8093 -0.4154
14013SOL    HW144671   8.778   4.720   6.793 -2.0192  0.7480 -0.3990
14013SOL    HW244672   8.774   4.641   6.664  1.4033 -1.3932  0.6721
14014SOL     OW44673   4.443   1.654   8.889  0.3911 -0.0480 -1.0602
14014SOL    HW144674   4.377   1.585   8.903  1.0630 -0.3829  0.7400
14014SOL    HW244675   4.414   1.726   8.945  0.6132  0.4942 -1.6316
14015SOL     OW44676   1.698   8.341   0.286 -0.4785  0.0590 -0.4063
14015SOL    HW144677   1.750   8.387   0.352  1.0317 -1.4559 -0.4637
14015SOL    HW244678   1.752   8.345   0.207 -1.0205 -0.4746 -0.8102
14016SOL     OW44679   0.660   8.576   7.450  0.1791  0.2993  0.7530
14016SOL    HW144680   0.733   8.630   7.480 -0.1860  1.3639 -0.1794
14016SOL    HW244681   0.590   8.593   7.514 -0.0345  1.2053  0.2949
14017SOL     OW44682   7.439   2.883   8.868 -0.5907 -0.0500 -0.4064
14017SOL    HW144683   7.493   2.943   8.816 -0.4238  0.7639  0.6438
14017SOL    HW244684   7.495   2.860   8.943 -1.7966  1.1357  0.9284
14018SOL     OW44685   9.928   4.133   1.926 -0.3211  0.5106 -0.3248
14018SOL    HW144686   9.890   4.092   2.003 -0.6877 -0.0186 -0.7788
14018SOL    HW244687  10.021   4.143   1.948 -0.2768 -0.3216 -0.0986
14019SOL     OW44688   2.846   9.824   1.104  0.6422 -0.5824 -0.1838
14019SOL    HW144689   2.887   9.773   1.174  1.9427  3.7907  2.6341
14019SOL    HW244690   2.918   9.873   1.065 -0.6383 -0.1066 -2.1006
14020SOL     OW44691   4.816   6.278   1.739 -0.1173 -0.2004 -0.1305
14020SOL    HW144692   4.772   6.291   1.823  1.0910  0.0216  0.4953
14020SOL    HW244693   4.750   6.238   1.683 -1.5339  1.3647  0.3344
14021SOL     OW44694   6.040   3.101   0.532  0.2461 -0.3586  0.2585
14021SOL    HW144695   6.122   3.078   0.575  2.4421 -0.9455 -3.7577
14021SOL    HW244696   6.054   3.189   0.498 -0.8272 -0.3966 -0.3443
14022SOL     OW44697   2.511   1.646   4.638  0.3231 -0.0843  0.3818
14022SOL    HW144698   2.470   1.712   4.582  0.9326  0.0692  0.1050
14022SOL    HW244699   2.546   1.695   4.712 -0.4732 -0.2863  0.9023
14023SOL     OW44700   3.427   1.058   1.617 -0.1055 -0.1087 -0.1688
14023SOL    HW144701   3.389   1.090   1.535  0.4373 -1.0908 -0.8248
14023SOL    HW244702   3.510   1.019   1.591 -0.9988 -2.6552  0.4536
14024SOL     OW44703   2.173   3.670   7.604 -0.2052 -0.3776  0.0935
14024SOL    HW144704   2.259   3.684   7.643  0.0565  1.7605 -1.1025
14024SOL    HW244705   2.177   3.582   7.568  0.9009 -0.9117  1.4258
14025SOL     OW44706   5.897   4.106  10.235  0.1727  0.6871  0.0678
14025SOL    HW144707   5.881   4.185  10.182  2.6280  0.6076 -0.9396
14025SOL    HW244708   5.831   4.044  10.205  0.3302  1.2763 -1.6320
14026SOL     OW44709   2.450   0.712   9.382  0.0943  0.0167  0.7920
14026SOL    HW144710   2.364   0.706   9.424 -0.3992 -2.2589 -0.3579
14026SOL    HW244711   2.433   0.695   9.290  1.6289  0.9999  0.2807
14027SOL     OW44712   7.287   2.167   7.300  0.3841  0.1635 -0.0281
14027SOL    HW144713   7.205   2.118   7.295  0.7025 -0.5610  1.3710
14027SOL    HW244714   7.302   2.198   7.210 -0.7569 -0.7744 -0.5664
14028SOL     OW44715   8.343   0.208   7.556  0.4570 -0.8771 -0.4205
14028SOL    HW144716   8.332   0.152   7.479 -0.4921  0.1267 -1.0431
14028SOL    HW244717   8.254   0.228   7.584  0.7705 -2.0171  1.5607
14029SOL     OW44718   2.451   4.972   3.153  0.0280 -0.2462 -0.2035
14029SOL    HW144719   2.453   5.068   3.161 -1.2387 -0.1341 -1.0415
14029SOL    HW244720   2.492   4.954   3.069 -1.8761 -0.2548 -1.1655
14030SOL     OW44721   1.426   4.228   4.488  0.0181 -0.1068 -0.1014
14030SOL    HW144722   1.513   4.263   4.503  0.3005  0.8038 -3.1244
14030SOL    HW244723   1.441   4.152   4.431 -1.1210 -0.1703 -0.3342
14031SOL     OW44724   6.958  10.309   7.135  0.2181  0.0576  0.4617
14031SOL    HW144725   7.027  10.328   7.072  1.8310 -0.2819  2.0365
14031SOL    HW244726   6.984  10.226   7.175 -2.0707 -1.0152 -0.1445
14032SOL     OW44727   2.322   2.541   2.418  0.1163  0.0098  0.1631
14032SOL    HW144728   2.347   2.456   2.380 -2.1094 -1.2106  1.2427
14032SOL    HW244729   2.239   2.562   2.377 -0.7812  0.2030  1.9877
14033SOL     OW44730   6.149   7.112   9.800 -0.2720  0.7364  0.2365
14033SOL    HW144731   6.242   7.126   9.782  0.2300 -0.6529  1.5482
14033SOL    HW244732   6.123   7.189   9.851  0.5691  0.4325  1.1587
14034SOL     OW44733   4.591   2.820   7.870  0.1235 -0.1893 -0.0972
14034SOL    HW144734   4.505   2.820   7.828 -0.1140  0.5103  0.3718
14034SOL    HW244735   4.607   2.912   7.891  1.6145 -0.1135 -1.4406
14035SOL     OW44736   5.147   2.422   1.822  0.6048  0.4130 -0.2142
14035SOL    HW144737   5.054   2.430   1.800  0.6515  0.1513 -0.5221
14035SOL    HW244738   5.155   2.461   1.909  0.0680 -0.2356  0.1359
14036SOL     OW44739   3.898   1.222   7.624 -0.4024 -0.2952  0.5037
14036SOL    HW144740   3.849   1.249   7.546  0.2173 -1.1485 -0.1986
14036SOL    HW244741   3.833   1.177   7.679 -1.3219  2.0295  1.4511
14037SOL     OW44742   0.043  10.083   6.391 -0.6864 -0.2559  0.8634
14037SOL    HW144743   0.129  10.112   6.422 -0.6617  0.9803 -0.3009
14037SOL    HW244744  -0.002  10.054   6.470  0.8296 -1.0431  1.4808
14038SOL     OW44745   9.054   1.331   2.927 -0.0886  0.3526 -0.1664
14038SOL    HW144746   9.044   1.297   3.015 -0.6256  0.7215 -0.0800
14038SOL    HW244747   9.138   1.378   2.928 -0.8051  1.6637  0.5903
14039SOL     OW44748   6.852   1.293   0.456  0.5651  0.2061 -0.4251
14039SOL    HW144749   6.873   1.352   0.384  0.5733 -0.9137 -1.3627
14039SOL    HW244750   6.799   1.347   0.515 -1.4371  0.5704 -2.3811
14040SOL     OW44751   6.652   0.514   3.275 -0.5352  0.6629 -0.3684
14040SOL    HW144752   6.674   0.602   3.305  1.1184  0.3464 -0.5320
14040SOL    HW244753   6.685   0.511   3.185 -0.0494 -0.2926 -0.1725
14041SOL     OW44754   1.398   3.736   6.073  0.0928  0.5143 -0.5299
14041SOL    HW144755   1.332   3.803   6.086  0.0178  0.2288  0.7802
14041SOL    HW244756   1.449   3.766   5.998  0.7450  2.6220  0.6474
14042SOL     OW44757   3.634  10.214   3.751  0.4630 -0.1145  0.3622
14042SOL    HW144758   3.702  10.275   3.779  1.2077 -0.4240 -0.7434
14042SOL    HW244759   3.681  10.142   3.710 -0.5476  0.0005 -1.0668
14043SOL     OW44760   5.675   0.058   7.988 -0.1006  0.5022 -0.7858
14043SOL    HW144761   5.587   0.084   7.962  0.2196  2.4620 -0.0779
14043SOL    HW244762   5.688   0.099   8.074  1.7848  0.9729 -1.2278
14044SOL     OW44763   9.585   0.734   9.398  0.4262 -0.3127 -1.0805
14044SOL    HW144764   9.555   0.685   9.321  1.3023 -0.7942 -1.1314
14044SOL    HW244765   9.641   0.673   9.445  0.2524  0.1287 -0.2890
14045SOL     OW44766   1.619   4.609   0.952  0.6705 -0.3165 -0.4107
14045SOL    HW144767   1.561   4.656   1.012  1.0702  0.8612 -0.9262
14045SOL    HW244768   1.605   4.516   0.973 -0.6820 -0.0143  0.1150
14046SOL     OW44769   6.941   4.672   1.950  0.4310  0.2103  0.0426
14046SOL    HW144770   6.872   4.606   1.958 -0.5962  1.3447  1.0749
14046SOL    HW244771   7.020   4.623   1.928 -0.0720 -1.4836  1.8039
14047SOL     OW44772   0.484   7.385   9.438  0.1335  0.4546 -0.0086
14047SOL    HW144773   0.447   7.355   9.355  1.8704 -0.7884 -0.4004
14047SOL    HW244774   0.415   7.437   9.478 -1.4128 -0.4522 -1.3865
14048SOL     OW44775   7.007   5.889  10.188 -0.0819  0.0729 -0.1813
14048SOL    HW144776   7.055   5.840  10.254 -0.4352 -0.8407 -0.5893
14048SOL    HW244777   6.920   5.849  10.186 -0.6634  1.2737  0.0839
14049SOL     OW44778   4.196   6.960   1.814  0.4343  0.2373 -0.0848
14049SOL    HW144779   4.203   7.027   1.881 -0.3198  0.4390 -0.1930
14049SOL    HW244780   4.147   6.889   1.856  0.8730 -0.0762 -0.0982
14050SOL     OW44781   9.711   6.332   0.295 -0.5736 -0.5052 -0.1609
14050SOL    HW144782   9.697   6.298   0.383  0.4789  0.0512  0.2381
14050SOL    HW244783   9.690   6.425   0.302  0.9210 -0.1555 -0.1236
14051SOL     OW44784   1.084   3.988   9.076  0.7836 -0.5921  0.2445
14051SOL    HW144785   1.178   3.977   9.062  0.6796 -2.0626  0.4676
14051SOL    HW244786   1.053   3.900   9.099 -0.7226 -0.2294 -0.2681
14052SOL     OW44787   0.916   7.111  10.129 -0.1654 -0.5290  0.3849
14052SOL    HW144788   0.876   7.172  10.067  2.1262  1.1341  0.4348
14052SOL    HW244789   0.892   7.146  10.215 -1.2595 -1.4066  0.4562
14053SOL     OW44790   9.304   6.548   9.523  0.5270 -0.4577 -0.0093
14053SOL    HW144791   9.349   6.465   9.508  0.8805  0.0879 -2.4109
14053SOL    HW244792   9.211   6.526   9.519  0.5460 -1.0848  1.8806
14054SOL     OW44793   8.492   1.937   4.116  0.6320 -0.5984 -0.8621
14054SOL    HW144794   8.506   1.842   4.110  0.0788 -0.6860 -0.8524
14054SOL    HW244795   8.416   1.953   4.059 -0.2454 -0.3936  0.3374
14055SOL     OW44796   4.806   6.028   9.609  1.0247 -0.4633  0.2064
14055SOL    HW144797   4.833   6.115   9.580 -0.7125  0.6804  1.7761
14055SOL    HW244798   4.710   6.030   9.604  0.9251 -2.0465  0.9190
14056SOL     OW44799   4.291   9.827   1.051 -0.1341 -0.3852  0.1933
14056SOL    HW144800   4.201   9.807   1.075 -0.4084  1.0208  0.4419
14056SOL    HW244801   4.283   9.886   0.976  0.3799  2.7487  2.3914
14057SOL     OW44802   0.802   5.229   5.092 -0.5059  0.0203 -0.1387
14057SOL    HW144803   0.740   5.300   5.075 -1.4736 -0.2934  1.7845
14057SOL    HW244804   0.747   5.151   5.101  0.6358 -1.3503 -3.6039
14058SOL     OW44805   9.400   4.608   7.869 -0.4980  0.6454 -0.3260
14058SOL    HW144806   9.492   4.615   7.896 -0.1667  2.3666 -1.7047
14058SOL    HW244807   9.399   4.536   7.806  0.0886  1.1155 -0.8916
14059SOL     OW44808   7.337   9.469   6.415 -0.0598 -0.1783  0.0271
14059SOL    HW144809   7.415   9.515   6.447 -0.3852  1.6097 -1.5539
14059SOL    HW244810   7.371   9.397   6.362  0.4653 -0.7566  1.1073
14060SOL     OW44811   3.756   2.710   3.352  0.2068  0.1985  0.0105
14060SOL    HW144812   3.830   2.702   3.292  2.1149 -0.4158  2.2878
14060SOL    HW244813   3.684   2.665   3.308  1.8502 -1.2595 -1.3094
14061SOL     OW44814   3.256   2.652   8.300  0.3603 -0.1418  0.4068
14061SOL    HW144815   3.208   2.727   8.263 -0.3254 -0.8475 -0.1762
14061SOL    HW244816   3.330   2.639   8.240  0.7023  0.2997  0.7250
14062SOL     OW44817   8.402   8.695  10.160 -0.0198 -0.3269  0.0744
14062SOL    HW144818   8.333   8.755  10.186 -0.0935 -0.7365  0.8376
14062SOL    HW244819   8.356   8.615  10.133  0.0244  0.2356 -1.7737
14063SOL     OW44820   0.578   9.142  10.316  0.0601 -0.5584 -0.4960
14063SOL    HW144821   0.616   9.075  10.374 -2.7541 -1.6827  0.2468
14063SOL    HW244822   0.538   9.205  10.376 -1.5304 -0.8796 -1.1820
14064SOL     OW44823   9.439   7.639   4.942  0.1653  0.1647  0.1713
14064SOL    HW144824   9.475   7.625   5.030  2.4711  0.2276 -0.7097
14064SOL    HW244825   9.502   7.696   4.898 -1.3390  0.7857 -1.3042
14065SOL     OW44826   7.477   0.935   2.161 -0.2421 -0.1288  0.0484
14065SOL    HW144827   7.454   1.024   2.136  1.9142  0.3853 -0.2880
14065SOL    HW244828   7.530   0.902   2.088 -1.6457 -2.0127 -0.2079
14066SOL     OW44829   5.489   5.460  10.046  0.2373 -0.5848  0.1118
14066SOL    HW144830   5.551   5.530  10.067 -1.1773  1.5264 -2.1728
14066SOL    HW244831   5.407   5.506  10.028 -1.1766 -3.0178 -0.0571
14067SOL     OW44832   0.148   0.119   1.395 -0.2599  0.2609  0.2853
14067SOL    HW144833   0.177   0.077   1.476 -0.6654 -0.4698  0.0586
14067SOL    HW244834   0.197   0.201   1.392 -0.4352  0.4253  1.4036
14068SOL     OW44835  10.244   7.264   3.972 -0.1889  0.0766 -0.1760
14068SOL    HW144836  10.194   7.241   4.050 -1.1692  0.9869 -0.5054
14068SOL    HW244837  10.251   7.182   3.923 -1.5978 -0.0485 -0.2263
14069SOL     OW44838   2.161   5.363   7.552  0.1967 -0.2001 -0.5350
14069SOL    HW144839   2.136   5.272   7.565  2.1930 -0.5784  1.2512
14069SOL    HW244840   2.238   5.359   7.495 -0.4809  0.5115 -1.5445
14070SOL     OW44841   6.282   0.961   1.685  0.1591  0.8210 -0.6114
14070SOL    HW144842   6.264   0.868   1.672  2.1536  0.1874  0.6678
14070SOL    HW244843   6.311   0.991   1.599 -0.0465  0.1463 -0.9255
14071SOL     OW44844   7.795   5.834   2.206  0.1250 -0.6129  0.5949
14071SOL    HW144845   7.726   5.892   2.240  0.3890 -1.6264  3.1062
14071SOL    HW244846   7.877   5.872   2.239  0.2908 -2.4031  2.4717
14072SOL     OW44847  10.189   5.018   2.025  0.2701 -0.6419 -0.2457
14072SOL    HW144848  10.230   5.067   2.096  0.3475 -0.2137 -0.5868
14072SOL    HW244849  10.136   4.952   2.070 -0.0610 -0.0666  0.2228
14073SOL     OW44850   4.219   9.833   2.351 -0.6591  0.4199 -0.1342
14073SOL    HW144851   4.272   9.788   2.285 -1.5941 -1.3348  0.2685
14073SOL    HW244852   4.262   9.812   2.434 -0.7686  0.7760  0.0146
14074SOL     OW44853   3.812   4.286   6.124  0.5581 -0.2125 -0.1491
14074SOL    HW144854   3.864   4.311   6.048  1.2375  1.5983  0.8566
14074SOL    HW244855   3.721   4.301   6.097  0.8060  0.6379 -0.5374
14075SOL     OW44856   6.312   8.056   2.028  0.2318 -0.1036  0.5312
14075SOL    HW144857   6.221   8.080   2.010  0.2634 -0.4066 -0.0263
14075SOL    HW244858   6.363   8.129   1.993  0.3775 -1.2742 -1.8806
14076SOL     OW44859   3.873   3.558   9.798  0.0770 -0.1663 -0.4637
14076SOL    HW144860   3.940   3.502   9.759 -0.2755 -0.3213 -0.8525
14076SOL    HW244861   3.899   3.566   9.890 -0.8265 -2.4389  0.0607
14077SOL     OW44862   0.945   2.492   8.493  0.0138  0.0663  0.0441
14077SOL    HW144863   1.013   2.542   8.448 -0.4059  1.0616  0.5007
14077SOL    HW244864   0.886   2.465   8.423 -0.0622  0.6924 -0.1384
14078SOL     OW44865   7.583   1.089   0.796  0.3286 -0.5328 -0.7108
14078SOL    HW144866   7.659   1.033   0.781  0.0514 -0.9436 -0.6014
14078SOL    HW244867   7.571   1.089   0.891 -0.2007 -1.0076 -0.7683
14079SOL     OW44868   0.624   6.225   3.667  0.3145  0.1638  0.9876
14079SOL    HW144869   0.584   6.140   3.647 -1.1525  1.1661 -0.6060
14079SOL    HW244870   0.552   6.288   3.662  1.2763  1.4776  2.6068
14080SOL     OW44871   2.235   9.334   4.617  0.3110 -0.7529 -0.1561
14080SOL    HW144872   2.150   9.340   4.572  0.3413  0.4402 -0.0869
14080SOL    HW244873   2.230   9.401   4.685  0.4347 -2.2286  1.3768
14081SOL     OW44874   8.662   8.670   4.351 -0.1217 -0.2495  0.7437
14081SOL    HW144875   8.687   8.760   4.330 -1.0239 -0.4573 -1.4430
14081SOL    HW244876   8.699   8.617   4.280 -2.2555 -1.1702  0.2506
14082SOL     OW44877   4.828   0.743  10.126 -0.1572  0.0786  0.3218
14082SOL    HW144878   4.866   0.788  10.202 -1.3635 -0.1842  1.1134
14082SOL    HW244879   4.886   0.669  10.111  1.2493  1.2716 -0.3206
14083SOL     OW44880   4.012   9.591   9.088  0.2497 -0.6683 -0.5134
14083SOL    HW144881   4.080   9.546   9.138  0.0562 -0.3417  0.0415
14083SOL    HW244882   4.054   9.673   9.060  0.2182 -0.6541 -0.5205
14084SOL     OW44883   9.831   1.771   1.255  0.3829  0.5139 -0.5310
14084SOL    HW144884   9.902   1.724   1.212  0.6439  2.1631 -2.0011
14084SOL    HW244885   9.844   1.863   1.229 -0.7578  1.2505  1.3001
14085SOL     OW44886   3.552   0.343   2.892  0.4773  0.0417  0.0574
14085SOL    HW144887   3.631   0.289   2.898 -0.3791 -1.2669 -0.0033
14085SOL    HW244888   3.495   0.295   2.832 -0.2605  1.1155 -0.1309
14086SOL     OW44889   0.071   5.959   0.948 -0.4956 -0.5427  0.0908
14086SOL    HW144890   0.091   5.896   1.018 -0.8629  0.4541  1.1314
14086SOL    HW244891   0.144   6.020   0.948  0.4445 -1.5946 -1.7174
14087SOL     OW44892   7.580   5.056   9.030 -1.2214 -0.4113 -0.1395
14087SOL    HW144893   7.634   4.981   9.055 -2.4267 -1.4241 -0.4838
14087SOL    HW244894   7.561   5.100   9.113  0.7305  0.4491 -0.0690
14088SOL     OW44895   0.785   6.789   5.268  0.2180 -0.2697 -0.0314
14088SOL    HW144896   0.786   6.761   5.360 -0.8099  0.7614  0.3210
14088SOL    HW244897   0.702   6.757   5.234  0.2163  0.0847 -0.3670
14089SOL     OW44898   4.587   4.402   7.004  0.3797  0.3324 -0.1341
14089SOL    HW144899   4.499   4.441   7.006  0.4520  0.5365 -0.7682
14089SOL    HW244900   4.610   4.392   7.096 -0.0135  0.9685  0.0450
14090SOL     OW44901   2.626   7.519   5.487 -0.5231  0.3898  0.0367
14090SOL    HW144902   2.684   7.466   5.433 -0.2428  1.9638 -1.3167
14090SOL    HW244903   2.662   7.514   5.575 -0.0829 -1.0244 -0.2106
14091SOL     OW44904   6.970   4.779   0.090 -0.1703 -0.2589  0.8797
14091SOL    HW144905   6.942   4.691   0.115  0.1170 -0.8098 -0.6273
14091SOL    HW244906   7.057   4.788   0.129  0.5059 -1.3093 -0.3078
14092SOL     OW44907   1.978   7.798   1.681  0.3075 -0.2922 -0.0310
14092SOL    HW144908   1.942   7.885   1.696 -0.5133 -0.3305 -1.5900
14092SOL    HW244909   2.062   7.814   1.637  0.1969 -0.2803 -0.2393
14093SOL     OW44910   0.660   4.137   0.904  0.6008  0.5224 -0.4822
14093SOL    HW144911   0.734   4.198   0.899 -0.3068  1.7485  0.3902
14093SOL    HW244912   0.605   4.172   0.974 -0.2944 -0.9515 -0.4086
14094SOL     OW44913   4.107   5.759   8.207 -0.3180 -0.1196  0.4151
14094SOL    HW144914   4.091   5.848   8.239  0.2051  0.2715 -0.3652
14094SOL    HW244915   4.173   5.771   8.138 -0.8942 -1.0084 -0.2996
14095SOL     OW44916   6.652   5.859   6.373  0.0524 -0.0131  0.4282
14095SOL    HW144917   6.583   5.869   6.308 -0.7147 -1.9578  0.8630
14095SOL    HW244918   6.673   5.766   6.372  1.2738  0.2093  1.7173
14096SOL     OW44919   7.878   0.859   1.144  0.8351  0.7814  0.1036
14096SOL    HW144920   7.860   0.953   1.150  2.0537  1.0070  0.5687
14096SOL    HW244921   7.803   0.823   1.097  0.5370  2.0457 -0.4312
14097SOL     OW44922   6.933   0.240   4.331 -0.0635 -0.3079  0.1607
14097SOL    HW144923   6.872   0.245   4.257  0.7231  0.6983 -0.4542
14097SOL    HW244924   6.991   0.167   4.308 -1.6743 -2.0357  1.2995
14098SOL     OW44925   5.865   4.589   9.547 -0.1800  0.6813 -0.4876
14098SOL    HW144926   5.901   4.666   9.503  0.2421 -0.5662 -2.4384
14098SOL    HW244927   5.914   4.583   9.629 -0.8432  2.9540  0.1657
14099SOL     OW44928   9.617   0.907   6.345  0.0134 -0.2748  0.2662
14099SOL    HW144929   9.539   0.878   6.298 -0.9533  0.8436  1.0969
14099SOL    HW244930   9.617   0.857   6.426 -0.7547  0.8264  0.9744
14100SOL     OW44931   4.456   4.161   1.419 -0.5694 -0.4305 -0.3951
14100SOL    HW144932   4.545   4.168   1.452 -0.3872  0.3973 -1.0286
14100SOL    HW244933   4.437   4.247   1.381 -1.3399 -0.8447 -0.9893
14101SOL     OW44934   9.027   5.819   5.186 -0.1679  0.0492  0.0172
14101SOL    HW144935   8.934   5.807   5.165 -0.8367 -0.0648  2.7429
14101SOL    HW244936   9.042   5.913   5.170 -0.1194 -0.2839 -2.3903
14102SOL     OW44937   6.194   4.321   0.818 -0.7757 -0.7609  0.1904
14102SOL    HW144938   6.283   4.356   0.820 -0.8271 -0.6377  0.5466
14102SOL    HW244939   6.140   4.392   0.853 -1.1197 -0.5438 -0.7472
14103SOL     OW44940   3.464   2.201   0.170  0.1133 -0.2165 -0.1140
14103SOL    HW144941   3.423   2.253   0.239 -1.3249  1.0001 -1.7902
14103SOL    HW244942   3.393   2.146   0.137  0.8085 -0.8641 -0.5511
14104SOL     OW44943   3.063   1.562   7.507  0.0246  0.4748 -0.2692
14104SOL    HW144944   3.018   1.631   7.555 -1.5394 -0.9732  0.4423
14104SOL    HW244945   3.006   1.542   7.433  0.0974 -0.5121 -0.0762
14105SOL     OW44946   1.659   6.121   0.170  0.0507 -0.2091 -0.1491
14105SOL    HW144947   1.734   6.106   0.227 -1.1965 -2.2603  1.0585
14105SOL    HW244948   1.611   6.194   0.210  1.4007  1.2155 -1.0123
14106SOL     OW44949   6.892   4.241   9.361  0.6208 -0.8148 -0.1004
14106SOL    HW144950   6.838   4.205   9.431  1.8586 -0.2519  1.1762
14106SOL    HW244951   6.830   4.260   9.291 -0.6912 -1.1343  0.9356
14107SOL     OW44952   2.812  10.168   1.693  0.0818  0.3392 -0.3538
14107SOL    HW144953   2.786  10.126   1.610 -0.0239  0.1912 -0.2462
14107SOL    HW244954   2.902  10.195   1.678  0.7767 -1.5145  0.1836
14108SOL     OW44955   2.184   4.542   3.368  0.4242  0.5532 -0.0108
14108SOL    HW144956   2.233   4.603   3.423  0.5707  0.5608 -0.1471
14108SOL    HW244957   2.233   4.541   3.285  1.2057 -0.7749  0.4353
14109SOL     OW44958   3.503   0.604   3.633 -0.5852  0.5855  0.0600
14109SOL    HW144959   3.439   0.614   3.563 -0.3087  0.1036 -0.2612
14109SOL    HW244960   3.454   0.626   3.713 -0.8708  1.2333 -0.2867
14110SOL     OW44961   2.138   4.957   2.889 -0.3718  0.2870  0.2503
14110SOL    HW144962   2.098   4.876   2.918 -0.3743  0.0020 -0.5261
14110SOL    HW244963   2.103   5.024   2.947 -2.2494  0.1101 -0.6300
14111SOL     OW44964   9.462   1.562   2.515  0.1079  0.2479 -0.0724
14111SOL    HW144965   9.428   1.579   2.602 -0.9878 -4.5831  0.7210
14111SOL    HW244966   9.387   1.574   2.457  0.9207  3.8279 -0.6519
14112SOL     OW44967   2.014   8.630   9.601 -0.6576  0.3632  0.1675
14112SOL    HW144968   2.085   8.691   9.581  1.6182 -2.5178 -1.3747
14112SOL    HW244969   1.940   8.660   9.548  0.0011  2.3959  0.3481
14113SOL     OW44970   0.005   9.824   6.337  0.3664 -0.0823 -0.2159
14113SOL    HW144971   0.070   9.767   6.296 -0.7599  0.2169 -2.6054
14113SOL    HW244972   0.056   9.900   6.367  1.3959 -0.7688 -0.1642
14114SOL     OW44973   9.031   9.408   1.263  0.1003 -0.0152  0.0202
14114SOL    HW144974   9.040   9.401   1.358  0.3455 -1.6874 -0.0961
14114SOL    HW244975   9.111   9.369   1.228 -0.4966 -0.4753 -0.8825
14115SOL     OW44976   6.157   2.022   3.953 -0.0960  0.1718 -0.4773
14115SOL    HW144977   6.175   2.110   3.985  1.6515  0.0116 -0.9093
14115SOL    HW244978   6.138   1.971   4.031 -3.1060  1.2957 -0.3567
14116SOL     OW44979   4.863   2.903   3.243  0.1402  0.2121 -0.1611
14116SOL    HW144980   4.950   2.881   3.276 -0.2610 -2.9396 -0.9098
14116SOL    HW244981   4.804   2.881   3.315 -0.1466  1.6470  0.0783
14117SOL     OW44982   6.440   7.486   4.543 -0.3164 -0.0035  0.7747
14117SOL    HW144983   6.401   7.460   4.460 -0.6365 -0.9243  1.1987
14117SOL    HW244984   6.405   7.573   4.560  0.9923  0.8737 -0.8169
14118SOL     OW44985   0.408   6.406   4.784  0.4839 -0.1875 -0.2573
14118SOL    HW144986   0.392   6.312   4.777  2.4316 -0.6030  0.1650
14118SOL    HW244987   0.365   6.432   4.866  0.4051 -0.8217 -0.0943
14119SOL     OW44988   6.204   0.863   8.227  0.2107  0.2510 -0.1635
14119SOL    HW144989   6.247   0.947   8.243 -0.3714  0.3898  0.7156
14119SOL    HW244990   6.119   0.871   8.269 -0.3889 -0.3008 -1.2413
14120SOL     OW44991   7.694  10.235   2.573 -0.3798 -0.4092 -0.0410
14120SOL    HW144992   7.715  10.307   2.513 -0.4135 -1.2188 -1.0618
14120SOL    HW244993   7.777  10.214   2.616 -0.7357  1.4500  1.6839
14121SOL     OW44994   6.565   0.034   5.394  0.5156 -0.5057  0.1404
14121SOL    HW144995   6.598   0.045   5.483 -0.9177 -0.6280  0.7201
14121SOL    HW244996   6.524   0.118   5.373  0.2959 -0.6818 -0.1481
14122SOL     OW44997   3.092   4.573   9.056  0.2448  0.1371 -0.0288
14122SOL    HW144998   3.139   4.622   8.989 -1.2404  0.5744 -0.7917
14122SOL    HW244999   3.046   4.641   9.107 -0.3713 -0.3345  0.0552
14123SOL     OW45000   5.065   5.548   2.574  0.3152 -0.0944  0.3588
14123SOL    HW145001   5.002   5.620   2.563  0.4925 -0.1155 -0.9635
14123SOL    HW245002   5.151   5.590   2.567  0.4393 -0.2239  1.0705
14124SOL     OW45003   8.448   9.489   9.179  0.4650  0.5932  0.6083
14124SOL    HW145004   8.397   9.570   9.179  0.3555  0.5415 -0.3884
14124SOL    HW245005   8.389   9.424   9.142  0.7964  0.2215  0.7264
14125SOL     OW45006   0.707   2.609   2.150 -0.3461 -0.9462  0.4356
14125SOL    HW145007   0.653   2.537   2.183  0.1425 -1.0809  0.9612
14125SOL    HW245008   0.751   2.643   2.228  0.6657 -1.1198 -0.0456
14126SOL     OW45009   3.941   4.695   5.012 -0.0198  0.2127  0.3932
14126SOL    HW145010   3.937   4.733   4.924 -0.4441  0.3487  0.4664
14126SOL    HW245011   4.013   4.741   5.054 -0.1390  0.5087  0.2798
14127SOL     OW45012   3.596  10.017   4.533  0.2748 -0.1093  0.2872
14127SOL    HW145013   3.526   9.992   4.594  1.2488 -0.7131  1.1887
14127SOL    HW245014   3.552  10.072   4.468 -1.1030 -0.7533  0.6335
14128SOL     OW45015   2.788   0.589   0.906 -0.4450  0.1549  0.4460
14128SOL    HW145016   2.786   0.685   0.902 -2.7009  0.1308 -0.0522
14128SOL    HW245017   2.770   0.568   0.997 -1.0284  0.2013  0.3432
14129SOL     OW45018   1.493   6.050   7.406 -0.3839  0.0397  0.1131
14129SOL    HW145019   1.443   6.112   7.460  0.3013 -0.3796  1.2816
14129SOL    HW245020   1.566   6.024   7.463 -0.7187 -1.9206 -0.3124
14130SOL     OW45021  10.022   3.843   8.113 -0.3885  0.4979  0.6130
14130SOL    HW145022  10.073   3.799   8.181 -0.9971  1.6262  1.8531
14130SOL    HW245023  10.088   3.881   8.055  0.1389 -0.9128  0.2463
14131SOL     OW45024   8.485   3.707   5.525 -0.3685 -0.8603  0.1080
14131SOL    HW145025   8.487   3.761   5.604 -0.4016 -2.6420  1.4090
14131SOL    HW245026   8.578   3.691   5.505 -0.3252 -2.5084  1.3838
14132SOL     OW45027   3.470   5.049   5.219  0.9153 -0.2974  0.2162
14132SOL    HW145028   3.411   5.068   5.292  0.6173  1.5025 -0.4349
14132SOL    HW245029   3.553   5.027   5.260  0.3587 -0.7552  1.1178
14133SOL     OW45030   9.016   7.576   8.676  0.0804  0.5110  0.2463
14133SOL    HW145031   9.013   7.541   8.765 -0.9023  1.0424  0.4341
14133SOL    HW245032   8.935   7.626   8.667 -2.5833 -3.6687 -2.6451
14134SOL     OW45033   5.068   6.536   4.659  0.2028 -0.5859 -0.5188
14134SOL    HW145034   5.054   6.446   4.630 -0.5671 -0.2887 -1.1248
14134SOL    HW245035   5.158   6.556   4.632  0.3953 -1.1895 -0.3327
14135SOL     OW45036   6.540   7.067   2.427  0.1222 -0.3415 -0.2728
14135SOL    HW145037   6.595   7.059   2.505  0.9754  3.3809 -0.3019
14135SOL    HW245038   6.454   7.092   2.462  0.8455  2.7110 -0.4058
14136SOL     OW45039  10.064   8.079   5.354  0.1244 -0.0676 -0.0694
14136SOL    HW145040  10.139   8.021   5.344 -0.6440 -1.2646  0.8170
14136SOL    HW245041   9.991   8.030   5.316 -0.6484  0.0761  1.1965
14137SOL     OW45042   5.983   9.085   0.535  0.2889  0.2213 -0.0844
14137SOL    HW145043   5.973   9.011   0.475  0.0702  2.7889 -3.5264
14137SOL    HW245044   6.076   9.083   0.559  0.2275 -1.2732  0.1421
14138SOL     OW45045   6.703   9.627   9.637  0.5386  0.8794 -0.0062
14138SOL    HW145046   6.699   9.645   9.543  0.4634 -0.5386 -0.2989
14138SOL    HW245047   6.740   9.539   9.643 -1.2287  0.1505  1.1873
14139SOL     OW45048   5.881   3.765   9.874 -0.1917  0.1155  0.1343
14139SOL    HW145049   5.887   3.710   9.952 -3.9731  0.2239  0.7068
14139SOL    HW245050   5.797   3.811   9.884 -0.2932  1.0141 -3.4546
14140SOL     OW45051   6.340  10.034   4.725  0.2241  0.8352 -0.2378
14140SOL    HW145052   6.434  10.038   4.711  0.2199 -0.0117 -0.5667
14140SOL    HW245053   6.330  10.040   4.820  0.6195  0.6899 -0.1860
14141SOL     OW45054   4.098   3.086   4.675 -0.4696 -0.4260  0.3778
14141SOL    HW145055   4.164   3.074   4.607 -0.3722 -1.2847  0.6216
14141SOL    HW245056   4.014   3.073   4.630 -0.3594 -3.2856  0.8269
14142SOL     OW45057   1.457   6.564   3.718  0.0502 -0.4736  0.8090
14142SOL    HW145058   1.413   6.529   3.796  0.0477  0.1780  1.1120
14142SOL    HW245059   1.546   6.582   3.747 -0.0620  0.1598  0.7896
14143SOL     OW45060   6.535   9.029   7.900  0.1308  0.2973  0.2067
14143SOL    HW145061   6.559   8.975   7.975 -0.6925 -0.1445  0.1523
14143SOL    HW245062   6.600   9.100   7.901  1.2882 -0.7212  0.2120
14144SOL     OW45063   6.913   2.837   3.867 -0.5034 -0.8594  0.0311
14144SOL    HW145064   6.941   2.752   3.834  0.4363 -0.6007  0.1368
14144SOL    HW245065   6.953   2.845   3.954  2.9374  1.3554 -1.5261
14145SOL     OW45066   4.626   8.525   0.546 -0.5943 -0.3270  0.3990
14145SOL    HW145067   4.703   8.469   0.551 -1.1577 -1.0279  1.6761
14145SOL    HW245068   4.654   8.608   0.584 -0.2177 -0.2490 -0.0299
14146SOL     OW45069   8.679   6.370   1.517 -0.0225  0.1114  0.0220
14146SOL    HW145070   8.610   6.383   1.582  0.6293  0.5626  0.6330
14146SOL    HW245071   8.750   6.427   1.545 -0.4155  1.7572 -2.1101
14147SOL     OW45072   4.956   7.335   1.985  0.0650 -0.0211  0.1030
14147SOL    HW145073   4.995   7.412   2.027 -2.4956 -0.0106  2.8279
14147SOL    HW245074   4.915   7.370   1.906  0.1371  1.1472  0.5501
14148SOL     OW45075   9.215   5.537   0.985  0.6522 -0.1243  0.0553
14148SOL    HW145076   9.196   5.451   1.021 -1.0869  0.9551  1.9432
14148SOL    HW245077   9.310   5.545   0.991  0.6945 -1.2456  1.5736
14149SOL     OW45078   7.210   8.481   3.015  0.4480 -0.3477  0.0972
14149SOL    HW145079   7.173   8.443   3.095  0.4029 -0.8029 -0.1363
14149SOL    HW245080   7.271   8.415   2.983  1.1424  0.2075  0.2357
14150SOL     OW45081   4.105   6.683   0.280  0.1185 -0.2846  0.1438
14150SOL    HW145082   4.101   6.674   0.375  1.5712  0.7115  0.3280
14150SOL    HW245083   4.075   6.773   0.264  0.1639 -0.3493 -0.3129
14151SOL     OW45084  10.160   2.729   1.028 -0.1920  0.5218  0.1085
14151SOL    HW145085  10.134   2.757   0.941 -1.0407  0.0102  0.1869
14151SOL    HW245086  10.122   2.794   1.087 -1.2614 -0.1818  0.2175
14152SOL     OW45087   3.756   4.586   4.199 -0.3116 -0.0268  0.1666
14152SOL    HW145088   3.838   4.626   4.169 -0.7776 -1.4089 -3.4293
14152SOL    HW245089   3.781   4.499   4.228 -0.0998  0.7786  2.6528
14153SOL     OW45090   3.911   8.765   3.758  0.0747 -0.0969  0.1274
14153SOL    HW145091   3.927   8.842   3.704 -0.2691  0.6639  1.0957
14153SOL    HW245092   3.817   8.748   3.749 -0.7447  2.1060  3.0990
14154SOL     OW45093   2.029   5.037   7.994  0.0233 -0.2509 -0.0417
14154SOL    HW145094   1.940   5.073   7.991 -0.0114 -0.1365  1.5341
14154SOL    HW245095   2.079   5.090   7.931 -1.3629 -1.4455 -2.2833
14155SOL     OW45096   5.564   3.699   7.504  0.2707 -0.4256 -0.3663
14155SOL    HW145097   5.488   3.643   7.493 -0.7760  0.3787  2.0502
14155SOL    HW245098   5.548   3.774   7.446  0.2340 -1.2019 -1.3741
14156SOL     OW45099   2.375   0.023   5.816  0.3819  0.2003 -0.2985
14156SOL    HW145100   2.316   0.083   5.771  2.2077  2.3363 -0.0369
14156SOL    HW245101   2.457   0.028   5.767  0.3226 -3.1052 -1.0002
14157SOL     OW45102   1.460  10.032   1.482  0.9042  0.0699  0.1027
14157SOL    HW145103   1.511  10.031   1.563 -0.0987  0.5641  0.7559
14157SOL    HW245104   1.373  10.061   1.509  0.7900  1.1317 -1.2909
14158SOL     OW45105   2.513   5.719   4.990  0.1245 -0.0559 -0.8859
14158SOL    HW145106   2.500   5.814   5.000 -0.4635  0.0172 -2.1187
14158SOL    HW245107   2.487   5.683   5.074  3.4618  1.1019  0.8058
14159SOL     OW45108   3.603   0.538   3.266  0.2758  0.6887  0.1613
14159SOL    HW145109   3.658   0.537   3.344  1.4213 -0.6331 -0.6123
14159SOL    HW245110   3.659   0.502   3.197 -1.0611  0.7991 -1.0295
14160SOL     OW45111   6.280   8.112  10.325  0.5870 -0.4622 -0.6231
14160SOL    HW145112   6.192   8.107  10.362  0.2912 -0.1116 -1.2557
14160SOL    HW245113   6.338   8.115  10.401  0.0694 -0.9297 -0.2021
14161SOL     OW45114   3.986   3.477   2.078  0.2841 -0.4511 -0.4942
14161SOL    HW145115   3.992   3.407   2.013  1.6042 -0.8326  0.0127
14161SOL    HW245116   4.046   3.544   2.047 -1.1973  0.6317 -1.1388
14162SOL     OW45117   6.633   7.395   3.118  0.7966  0.1182 -0.2526
14162SOL    HW145118   6.705   7.453   3.141  0.5710  0.1113  0.4908
14162SOL    HW245119   6.595   7.433   3.039  0.1657  1.4309  0.6561
14163SOL     OW45120   1.013   8.319   4.787 -0.2947 -0.1436 -0.0617
14163SOL    HW145121   1.017   8.309   4.883  0.2441  1.6642  0.1439
14163SOL    HW245122   1.071   8.393   4.769 -0.3815 -0.4768 -1.8040
14164SOL     OW45123   2.815   9.259   8.426 -0.4197  0.0709  0.5282
14164SOL    HW145124   2.860   9.182   8.459 -1.7699 -1.7376 -1.5691
14164SOL    HW245125   2.868   9.333   8.456  2.2311 -1.7578  0.6755
14165SOL     OW45126   8.080   6.867   8.889  0.1514 -0.0268  0.5236
14165SOL    HW145127   8.061   6.861   8.796  1.0996  0.4222  0.2905
14165SOL    HW245128   8.168   6.904   8.894  0.0728  0.0645  1.6001
14166SOL     OW45129   0.173   4.497   5.309  0.0397 -0.2695 -0.3938
14166SOL    HW145130   0.080   4.486   5.329  0.1949 -0.6362  0.1563
14166SOL    HW245131   0.174   4.546   5.227 -0.6113  2.9947  1.3898
14167SOL     OW45132   8.365   0.521   9.632  0.1283  0.3580  0.0591
14167SOL    HW145133   8.324   0.476   9.558 -0.6194  2.0007 -0.5868
14167SOL    HW245134   8.447   0.555   9.596  0.2389  0.3076  0.2662
14168SOL     OW45135   1.573   8.204   7.731  0.4867 -0.6749 -0.0210
14168SOL    HW145136   1.550   8.181   7.821 -0.1167  0.8339  0.2324
14168SOL    HW245137   1.550   8.296   7.723 -0.2701 -0.9966 -1.9897
14169SOL     OW45138   6.520   6.503   4.582 -0.0746  0.4393  0.4836
14169SOL    HW145139   6.561   6.573   4.531 -0.5640  0.0398 -0.4819
14169SOL    HW245140   6.484   6.546   4.659 -0.2328  1.2190 -0.0236
14170SOL     OW45141   3.333   9.123   0.885 -0.4671 -0.3752 -0.1140
14170SOL    HW145142   3.360   9.039   0.923 -0.8460 -0.6912 -0.5361
14170SOL    HW245143   3.405   9.183   0.906 -1.0964 -0.2777  1.9529
14171SOL     OW45144   8.684   9.957   9.198  0.1405  0.1280 -0.3667
14171SOL    HW145145   8.604   9.905   9.212 -0.0519  0.3963 -0.4645
14171SOL    HW245146   8.661  10.045   9.226 -0.0254  0.5146 -1.6413
14172SOL     OW45147   9.196   1.594   0.389 -0.0326 -0.0189  0.6355
14172SOL    HW145148   9.222   1.684   0.407  2.0828 -0.6825  1.1981
14172SOL    HW245149   9.219   1.580   0.297  3.6603 -1.1488  1.5781
14173SOL     OW45150   5.821   0.581   5.907  0.2851  0.6105 -0.0693
14173SOL    HW145151   5.831   0.668   5.868 -2.0262  1.1585  0.4240
14173SOL    HW245152   5.762   0.535   5.848  0.7195 -0.3059  0.1932
14174SOL     OW45153   0.363   2.654   8.049 -0.2234  0.1718  0.7332
14174SOL    HW145154   0.441   2.693   8.086  0.8883 -0.7103 -0.5860
14174SOL    HW245155   0.395   2.600   7.976 -2.0280 -0.3818  0.2959
14175SOL     OW45156   4.235   4.756   5.179 -0.6967  0.1739  0.0110
14175SOL    HW145157   4.288   4.687   5.138  0.0012 -0.1769  1.4652
14175SOL    HW245158   4.272   4.838   5.145  0.0736 -0.1013  0.1815
14176SOL     OW45159   7.826   3.655   3.887  0.1711 -0.0995  0.1206
14176SOL    HW145160   7.743   3.611   3.905 -0.3110  1.0127  0.7405
14176SOL    HW245161   7.893   3.595   3.921 -0.3330 -1.2623 -0.9060
14177SOL     OW45162   2.769   6.301   4.345  0.1963  0.9841 -0.2538
14177SOL    HW145163   2.729   6.236   4.287 -0.5728  0.2188  1.0707
14177SOL    HW245164   2.796   6.372   4.287 -2.1571  1.0833 -1.3541
14178SOL     OW45165   7.718   4.929   5.762  0.5720 -0.0576  0.5413
14178SOL    HW145166   7.799   4.932   5.814  0.7884  0.8699  0.1812
14178SOL    HW245167   7.721   5.009   5.709 -1.0394  0.4836  1.2088
14179SOL     OW45168   0.296   7.188   8.072  0.3934  0.2424  0.4764
14179SOL    HW145169   0.349   7.155   7.999 -0.4272 -0.4510  0.1657
14179SOL    HW245170   0.247   7.111   8.102  0.0395  0.7275  1.1688
14180SOL     OW45171   5.344  10.128   5.755  0.0259  0.6869 -0.4065
14180SOL    HW145172   5.253  10.112   5.730  0.1494 -0.0987 -0.3567
14180SOL    HW245173   5.373  10.199   5.696 -1.5567  3.2259  1.6534
14181SOL     OW45174   3.077   7.051   9.832  0.1996  0.3184  0.0865
14181SOL    HW145175   3.060   6.961   9.862  0.2363  0.3000  0.0525
14181SOL    HW245176   3.017   7.064   9.759  0.7526  0.0415 -0.4305
14182SOL     OW45177   4.805   1.243   7.221  0.1547 -0.1672 -0.5398
14182SOL    HW145178   4.757   1.162   7.206  0.6239 -0.4975 -0.2764
14182SOL    HW245179   4.738   1.305   7.250  0.3243 -1.6754  3.7771
14183SOL     OW45180   9.188   1.547   0.028  0.2059  0.7088 -0.0334
14183SOL    HW145181   9.134   1.505   0.095  0.9683  0.9119  0.7156
14183SOL    HW245182   9.187   1.485  -0.045  0.3770 -0.0809  0.6261
14184SOL     OW45183   0.187   7.411   0.968 -0.0813  0.3543  0.0606
14184SOL    HW145184   0.141   7.418   1.052  1.9692 -2.7671  1.6556
14184SOL    HW245185   0.233   7.494   0.959 -0.6627  0.9171  1.8483
14185SOL     OW45186   2.596   2.638   2.240 -0.0062 -0.4998 -0.1091
14185SOL    HW145187   2.632   2.549   2.237 -1.6603 -1.1908 -0.5941
14185SOL    HW245188   2.629   2.674   2.322 -0.9040 -2.2942  1.1125
14186SOL     OW45189   2.853   3.535   8.209  0.5231 -0.0196 -1.1061
14186SOL    HW145190   2.838   3.462   8.269  0.9462  0.2077 -0.7208
14186SOL    HW245191   2.794   3.604   8.240  0.7038  0.0796 -0.9822
14187SOL     OW45192   9.858   9.357   1.111  0.3646  0.4262 -0.0479
14187SOL    HW145193   9.951   9.379   1.098 -0.1949  1.4450 -3.4242
14187SOL    HW245194   9.860   9.281   1.169  3.2982  0.5516  0.2022
14188SOL     OW45195   9.558   3.760   5.393 -0.5204  0.2819  0.2282
14188SOL    HW145196   9.502   3.829   5.427 -0.8050  0.8593 -1.3425
14188SOL    HW245197   9.609   3.801   5.324 -0.0395 -0.8681 -0.1346
14189SOL     OW45198   8.254   8.756   2.844  0.3810  0.3052  0.4970
14189SOL    HW145199   8.172   8.709   2.825  0.2429  0.1175  1.4834
14189SOL    HW245200   8.302   8.697   2.902  1.3219  0.3241 -0.2566
14190SOL     OW45201   1.049   8.651   1.543 -0.3601  0.7566 -0.2479
14190SOL    HW145202   1.001   8.731   1.565 -0.1849  0.6099  0.6967
14190SOL    HW245203   1.113   8.641   1.613 -0.3113 -0.1629 -0.4115
14191SOL     OW45204   7.168   4.842   7.170  0.1575  0.1448 -0.0293
14191SOL    HW145205   7.200   4.842   7.260  0.7742 -1.0377 -0.2307
14191SOL    HW245206   7.238   4.882   7.118 -0.0409  0.4823 -0.0415
14192SOL     OW45207   5.556   5.345   5.205 -0.4188 -0.3379 -0.0079
14192SOL    HW145208   5.467   5.331   5.238 -1.1154  1.3189 -1.0378
14192SOL    HW245209   5.613   5.316   5.276 -1.7738 -1.2348  0.7647
14193SOL     OW45210   3.035   0.593   1.325 -0.2756  0.2256  0.1712
14193SOL    HW145211   2.988   0.666   1.364 -0.5199 -0.1331  0.5444
14193SOL    HW245212   3.080   0.550   1.398 -0.5826 -0.3345  0.0369
14194SOL     OW45213   6.962   1.661   4.152  0.7418  0.0693 -0.5437
14194SOL    HW145214   6.899   1.672   4.223  0.1338 -0.9329 -0.9111
14194SOL    HW245215   7.037   1.617   4.193 -0.4410 -2.4252 -0.8960
14195SOL     OW45216   6.837  10.183   1.067  0.5720  0.3214 -0.2027
14195SOL    HW145217   6.767  10.215   1.124  0.2077 -0.9246  0.0826
14195SOL    HW245218   6.794  10.167   0.984  0.1844 -1.6755  0.3314
14196SOL     OW45219   6.537   6.153   6.966  0.0308 -0.1792  0.5164
14196SOL    HW145220   6.544   6.197   6.881 -0.5339  0.1828  0.6622
14196SOL    HW245221   6.583   6.070   6.952  0.6362  0.2165  0.0902
14197SOL     OW45222   8.093   1.724   5.784  0.3637 -0.0941  0.3309
14197SOL    HW145223   8.104   1.652   5.721  1.6343 -1.3993  1.9504
14197SOL    HW245224   8.178   1.767   5.787 -0.3280  1.4202 -0.4590
14198SOL     OW45225   1.063   6.126   0.831  0.0605 -0.2617  0.0389
14198SOL    HW145226   1.105   6.040   0.837  0.1178 -0.1832  1.1068
14198SOL    HW245227   1.134   6.188   0.817  0.2620 -0.1964  1.2228
14199SOL     OW45228   4.532  10.198   4.394  0.4271 -0.5148 -0.2844
14199SOL    HW145229   4.519  10.105   4.378 -0.0507 -0.1673 -2.2146
14199SOL    HW245230   4.623  10.214   4.370  0.6605 -0.5767  0.5539
14200SOL     OW45231   7.103   6.636   6.208 -0.5291  0.1442 -0.3416
14200SOL    HW145232   7.076   6.545   6.222  1.7161 -0.1680  3.2629
14200SOL    HW245233   7.153   6.634   6.127  0.3512 -2.0856  0.1954
14201SOL     OW45234   6.957   9.219   6.807  0.0625 -0.1892  0.5682
14201SOL    HW145235   6.875   9.175   6.828  0.9677 -2.1582  0.2398
14201SOL    HW245236   6.942   9.259   6.721 -0.5256 -0.5934  0.4780
14202SOL     OW45237   5.490   8.952   7.248 -0.2439  0.1036 -0.4032
14202SOL    HW145238   5.421   8.944   7.315 -0.2772  0.9557 -0.3219
14202SOL    HW245239   5.447   8.926   7.167 -0.3035 -0.5995 -0.1489
14203SOL     OW45240   7.503   3.716   8.924 -0.0669  0.2098  0.2233
14203SOL    HW145241   7.474   3.670   8.845  0.8095 -0.2031  0.1277
14203SOL    HW245242   7.426   3.764   8.954 -1.0715 -1.4248  0.3912
14204SOL     OW45243   9.486   2.584   3.820 -0.0108  0.0487 -0.2377
14204SOL    HW145244   9.405   2.634   3.812 -1.3309 -2.1015 -1.0627
14204SOL    HW245245   9.481   2.518   3.751  2.1995 -0.5133  0.0545
14205SOL     OW45246   5.535   1.944   9.443  0.5877  0.0475  0.0622
14205SOL    HW145247   5.444   1.975   9.441  1.0189  1.6670  1.8730
14205SOL    HW245248   5.585   2.013   9.400  0.9501 -1.0290 -1.3021
14206SOL     OW45249   1.209   6.097   8.904  0.2574 -0.3866  0.1018
14206SOL    HW145250   1.274   6.161   8.878 -0.2842  0.6642  1.2451
14206SOL    HW245251   1.135   6.111   8.845  0.3263 -0.2868  0.0408
14207SOL     OW45252   5.511   2.381   7.504 -0.0882  0.1206 -0.2868
14207SOL    HW145253   5.585   2.338   7.547 -0.8075 -0.9858 -0.1068
14207SOL    HW245254   5.494   2.327   7.427 -0.4605  0.5959 -0.5417
14208SOL     OW45255   1.140   0.599   3.317  0.2963  0.1448  0.0644
14208SOL    HW145256   1.052   0.624   3.290  0.2818  0.5123  0.4500
14208SOL    HW245257   1.127   0.536   3.389  0.3435  1.2420  1.0663
14209SOL     OW45258   3.235   6.145   0.329 -0.4599  0.3337 -0.6050
14209SOL    HW145259   3.272   6.080   0.390 -1.2446 -0.2538 -0.7364
14209SOL    HW245260   3.193   6.209   0.386 -3.1118 -1.3537 -0.4814
14210SOL     OW45261   3.158   1.124   5.234 -0.2997  0.6091  0.3126
14210SOL    HW145262   3.218   1.161   5.299  0.5328 -1.0211  0.5330
14210SOL    HW245263   3.094   1.075   5.286 -0.3908  0.3484 -0.0420
14211SOL     OW45264   6.941   7.426   0.055 -0.2043  0.4252 -0.3394
14211SOL    HW145265   7.032   7.407   0.079  0.8044  1.3839 -3.0208
14211SOL    HW245266   6.914   7.495   0.115  1.6389  1.6729 -0.8635
14212SOL     OW45267   7.580   0.763   0.264 -0.3147  0.0777 -0.2832
14212SOL    HW145268   7.494   0.773   0.223 -1.6818 -2.0463  1.7980
14212SOL    HW245269   7.573   0.814   0.345  0.1668 -0.6026  0.1882
14213SOL     OW45270   1.041   9.371   2.717 -0.4274  0.0794 -0.0553
14213SOL    HW145271   0.965   9.324   2.682  0.0134 -0.1626 -0.7164
14213SOL    HW245272   1.091   9.305   2.766  0.0343 -0.0869 -0.7311
14214SOL     OW45273   8.990   6.761   0.683  0.5070  0.5659  0.1253
14214SOL    HW145274   9.028   6.841   0.646  0.0687  1.6207  1.8833
14214SOL    HW245275   8.897   6.781   0.695  0.0178 -0.8383 -1.0142
14215SOL     OW45276   7.603   1.071   6.225 -0.0792 -0.2744  0.2840
14215SOL    HW145277   7.572   1.125   6.298  1.8846 -0.4998  1.3536
14215SOL    HW245278   7.674   1.122   6.185  0.6649 -1.3011  0.2387
14216SOL     OW45279   8.657   8.431   5.809  0.2829  0.1908  0.4160
14216SOL    HW145280   8.673   8.456   5.718  0.8155  0.5054  0.5881
14216SOL    HW245281   8.640   8.337   5.806  1.1607  0.0298  0.0811
14217SOL     OW45282   5.494   3.163   0.177  0.1607 -0.8266  1.1752
14217SOL    HW145283   5.467   3.135   0.089 -0.2762 -1.9163  1.6308
14217SOL    HW245284   5.422   3.218   0.208  1.3460  1.5133 -0.0070
14218SOL     OW45285   2.007   0.693   7.732  0.3978  0.0327  0.1045
14218SOL    HW145286   1.923   0.699   7.777  0.0808  1.0696 -0.5837
14218SOL    HW245287   2.058   0.765   7.770  1.4200 -1.2914  1.3603
14219SOL     OW45288   4.832   2.886   5.483  0.0545 -0.1354  0.0622
14219SOL    HW145289   4.891   2.961   5.481  1.5638 -1.2307 -2.8064
14219SOL    HW245290   4.889   2.810   5.495 -1.1237 -1.0342  0.2040
14220SOL     OW45291   2.959   2.987   3.543  0.2252 -0.5312  0.0674
14220SOL    HW145292   3.023   2.996   3.472  1.3055 -1.2698  0.9071
14220SOL    HW245293   2.992   3.045   3.612 -0.5937 -0.1274  0.1327
14221SOL     OW45294   0.562   9.980   6.421 -0.5266  0.2003  0.4428
14221SOL    HW145295   0.642   9.928   6.417  0.7973  2.2099 -0.2930
14221SOL    HW245296   0.580  10.047   6.486 -0.1167  2.9154 -2.2535
14222SOL     OW45297   3.685   6.837   8.479 -0.0915  0.0610 -0.4203
14222SOL    HW145298   3.696   6.932   8.478  1.8475 -0.0942  0.8854
14222SOL    HW245299   3.707   6.812   8.569 -1.3388 -1.5630 -0.5267
14223SOL     OW45300   6.409   1.342   0.363  0.0424  0.4288  0.5199
14223SOL    HW145301   6.331   1.320   0.415 -1.2658  1.7825 -0.7422
14223SOL    HW245302   6.470   1.378   0.426 -1.6235  2.3346  1.1594
14224SOL     OW45303   0.658   9.218   3.303  0.1113 -0.1069 -0.8915
14224SOL    HW145304   0.579   9.188   3.348  0.6055 -1.1563 -0.6778
14224SOL    HW245305   0.707   9.265   3.370 -2.1484  4.2875 -1.9962
14225SOL     OW45306   1.102   5.743   5.566  0.0519  1.2064 -0.2608
14225SOL    HW145307   1.171   5.742   5.632  0.1135  0.7992 -0.3273
14225SOL    HW245308   1.100   5.653   5.533 -0.0084  1.4008 -0.7812
14226SOL     OW45309   2.176   1.019   4.690  0.5279 -0.1827 -0.0574
14226SOL    HW145310   2.187   1.112   4.667  2.6687 -0.6155 -1.0969
14226SOL    HW245311   2.133   0.981   4.613 -0.8387  0.0099  0.5865
14227SOL     OW45312   6.478   0.834   3.742  0.1763  0.0824 -0.2637
14227SOL    HW145313   6.503   0.922   3.768 -0.0283  0.9378 -2.6865
14227SOL    HW245314   6.526   0.777   3.802  0.5257  1.8141  1.1829
14228SOL     OW45315  10.052   0.916   1.662  0.2385  0.0136 -0.5487
14228SOL    HW145316   9.959   0.919   1.639  0.0782 -0.6208  0.0086
14228SOL    HW245317  10.095   0.879   1.585  0.0789  0.6057 -0.9328
14229SOL     OW45318   6.758   5.295   7.779  0.1782 -0.4333  0.4721
14229SOL    HW145319   6.778   5.257   7.693  1.4625 -0.7806  0.9027
14229SOL    HW245320   6.830   5.357   7.794 -1.0897  1.1060  0.4413
14230SOL     OW45321   6.067   1.361   7.031  0.2849 -0.4538  0.6419
14230SOL    HW145322   6.075   1.409   6.949 -0.4924  0.7208  1.2356
14230SOL    HW245323   6.156   1.328   7.047  0.7584  0.4725  0.0319
14231SOL     OW45324   2.716   7.501   8.281  0.0704  0.7064 -0.2239
14231SOL    HW145325   2.652   7.534   8.217 -0.5406 -2.4505 -1.4027
14231SOL    HW245326   2.799   7.501   8.234  0.0139  0.3514 -0.3287
14232SOL     OW45327   5.486   7.894   9.521 -0.3384  0.4663 -0.1029
14232SOL    HW145328   5.557   7.874   9.582  0.0912  0.2805 -0.6441
14232SOL    HW245329   5.485   7.990   9.515 -1.8508  0.6295  1.8654
14233SOL     OW45330   2.333   4.091   0.532  0.2012  0.2420  0.6355
14233SOL    HW145331   2.351   4.145   0.609  0.4371 -0.8451  1.3727
14233SOL    HW245332   2.362   4.144   0.458 -0.4554  1.5005  1.2446
14234SOL     OW45333   4.195   2.204   0.729  0.1023  0.3479  0.1979
14234SOL    HW145334   4.127   2.215   0.796 -0.5104  1.2289 -0.5370
14234SOL    HW245335   4.206   2.110   0.721 -0.4629  0.2127  0.9010
14235SOL     OW45336   6.163   3.328   9.723 -0.1779 -0.2047  0.1127
14235SOL    HW145337   6.241   3.275   9.738  0.5453  0.7392 -0.1927
14235SOL    HW245338   6.182   3.412   9.765 -0.7559  0.2586 -0.5193
14236SOL     OW45339   5.566   1.830   4.777  0.1510 -0.2206 -0.5624
14236SOL    HW145340   5.532   1.744   4.801  0.3302  0.2648  1.6984
14236SOL    HW245341   5.659   1.825   4.797  0.1879  0.4419 -0.5557
14237SOL     OW45342   4.681   7.760   5.766 -0.0324 -0.7524  0.2946
14237SOL    HW145343   4.760   7.706   5.768  1.3074  1.1225  1.4055
14237SOL    HW245344   4.678   7.796   5.678 -0.5603 -2.0598 -0.2403
14238SOL     OW45345   4.221   0.786   5.358  0.2083  0.7327  0.1627
14238SOL    HW145346   4.275   0.783   5.437 -0.8503  1.1261  0.9136
14238SOL    HW245347   4.141   0.830   5.385 -0.5526  0.0449 -0.9023
14239SOL     OW45348   5.147   5.830   3.010  0.3192 -0.3277  0.0700
14239SOL    HW145349   5.055   5.849   3.030  0.3544 -0.4181  0.3155
14239SOL    HW245350   5.176   5.773   3.081  1.0943  1.1495  0.9910
14240SOL     OW45351   9.398   3.052   9.782 -0.0630  0.5000  0.2903
14240SOL    HW145352   9.304   3.054   9.769  0.2098 -0.8099 -2.5227
14240SOL    HW245353   9.421   3.143   9.805 -1.9633  0.7913  1.2128
14241SOL     OW45354   3.758   0.867   7.792  0.2496 -0.1145  0.1273
14241SOL    HW145355   3.678   0.824   7.762  0.4371 -1.5400  1.6037
14241SOL    HW245356   3.796   0.808   7.857  1.6759  1.2701  0.6348
14242SOL     OW45357   5.628   6.854  10.114  0.1281 -0.2479 -0.1703
14242SOL    HW145358   5.630   6.831  10.021 -0.7321 -1.0921  0.0009
14242SOL    HW245359   5.616   6.949  10.115  0.6880 -0.1610 -0.9129
14243SOL     OW45360   3.729   3.981   7.848 -0.0159 -0.0719  0.4347
14243SOL    HW145361   3.717   3.998   7.755 -0.3658  2.1427  0.8170
14243SOL    HW245362   3.641   3.964   7.881  0.0698 -0.5511  0.4223
14244SOL     OW45363   8.270   8.577   6.127  0.2446 -0.8042 -0.0981
14244SOL    HW145364   8.326   8.530   6.066 -0.5849 -0.6956 -0.9582
14244SOL    HW245365   8.192   8.601   6.076 -0.6242 -1.0181  1.0784
14245SOL     OW45366   7.810   2.973   2.173  0.5389 -0.6308 -0.1594
14245SOL    HW145367   7.848   2.999   2.089 -0.8158 -3.8801 -1.9542
14245SOL    HW245368   7.884   2.936   2.222  1.0253 -0.3292 -0.6603
14246SOL     OW45369   2.481   6.794   2.710  0.0498 -0.5882 -0.1253
14246SOL    HW145370   2.548   6.730   2.731  1.6298  0.8952 -0.4364
14246SOL    HW245371   2.451   6.827   2.795  1.2272  0.2130 -0.0016
14247SOL     OW45372   4.104   6.794   9.514 -0.3489  0.3077 -0.4300
14247SOL    HW145373   4.093   6.700   9.496 -3.0823  0.0748  1.7819
14247SOL    HW245374   4.045   6.836   9.452 -1.3633  0.3092  0.5145
14248SOL     OW45375   0.072   6.777   4.345  0.0866 -0.2352 -0.0793
14248SOL    HW145376   0.044   6.780   4.437 -0.1495 -0.6801 -0.1293
14248SOL    HW245377   0.087   6.868   4.321  2.5673 -0.2645  1.1249
14249SOL     OW45378   3.930   3.623   1.443 -0.6609 -0.2782 -0.2842
14249SOL    HW145379   3.917   3.718   1.444  0.2141 -0.1545  0.1194
14249SOL    HW245380   3.887   3.594   1.362 -2.1491  0.2653  0.2681
14250SOL     OW45381   5.017   1.317   8.103  0.4885  0.4926 -0.3362
14250SOL    HW145382   5.009   1.238   8.050  0.0261 -0.1787  0.6935
14250SOL    HW245383   4.927   1.335   8.131  0.2236  2.6317 -2.2630
14251SOL     OW45384   3.886  10.014   0.855 -0.4876 -0.7940  0.0629
14251SOL    HW145385   3.930  10.070   0.790  0.9355 -1.8023  0.1146
14251SOL    HW245386   3.848   9.943   0.803 -1.6398 -0.2022  0.0762
14252SOL     OW45387   2.759   4.661   6.015 -0.3870  0.2496 -0.0169
14252SOL    HW145388   2.831   4.700   5.966 -0.9921 -0.2949 -1.3952
14252SOL    HW245389   2.766   4.567   5.998 -0.5794  0.0359  1.0153
14253SOL     OW45390   7.960   1.218   5.208 -0.3054 -0.2519  0.4425
14253SOL    HW145391   8.028   1.190   5.269 -0.3434  0.1056  0.6545
14253SOL    HW245392   7.883   1.167   5.233 -0.0182 -0.9444 -0.0507
14254SOL     OW45393   0.611   9.315   9.245 -0.1290 -0.3266 -0.1847
14254SOL    HW145394   0.517   9.323   9.233 -0.0894 -0.4283 -0.5894
14254SOL    HW245395   0.622   9.292   9.337 -0.6106 -2.0851 -0.5345
14255SOL     OW45396   8.581   3.662   7.251  0.2822  0.1586 -0.7129
14255SOL    HW145397   8.674   3.641   7.238  0.9774  2.7378 -0.5196
14255SOL    HW245398   8.575   3.685   7.344 -0.3331  0.8756 -0.9208
14256SOL     OW45399   4.712   9.422   4.914  0.0874 -0.5490 -0.0675
14256SOL    HW145400   4.726   9.349   4.854 -0.0953 -1.4330  0.9300
14256SOL    HW245401   4.629   9.401   4.958  0.4020 -0.1291  0.7556
14257SOL     OW45402   8.584   1.780   4.647  0.3166 -0.0766  0.0110
14257SOL    HW145403   8.672   1.803   4.675 -0.1694  0.5194  1.0901
14257SOL    HW245404   8.590   1.776   4.551  1.9373 -1.8813  0.1339
14258SOL     OW45405   4.306   7.771   5.972  0.0305  0.6687 -0.1842
14258SOL    HW145406   4.236   7.777   5.907  0.9352  0.5261 -1.1936
14258SOL    HW245407   4.298   7.852   6.023 -1.7927 -0.0118  0.7052
14259SOL     OW45408   9.381   4.561   5.807  0.1007  0.3675  0.5839
14259SOL    HW145409   9.353   4.652   5.801 -1.8993 -0.2196  0.2740
14259SOL    HW245410   9.353   4.522   5.725  0.9775 -0.5334  0.6935
14260SOL     OW45411   2.695   2.923   9.827  0.5006 -0.7135  0.0666
14260SOL    HW145412   2.622   2.922   9.764  1.0915  2.9325 -0.9039
14260SOL    HW245413   2.661   2.878   9.904 -2.1329 -0.7672 -1.0273
14261SOL     OW45414   1.118   9.549   0.589 -0.0835  0.2354  0.2672
14261SOL    HW145415   1.039   9.505   0.619  1.0244 -1.3023  1.0565
14261SOL    HW245416   1.182   9.479   0.577  0.7371  1.2500 -1.8629
14262SOL     OW45417   9.430   6.615   1.908 -0.0937  0.0026 -0.1933
14262SOL    HW145418   9.370   6.576   1.972 -1.3645  0.9038 -0.7866
14262SOL    HW245419   9.465   6.692   1.952 -0.6624  0.3995 -0.4219
14263SOL     OW45420   1.483   4.151   3.021 -0.1754  0.5304  0.2361
14263SOL    HW145421   1.449   4.072   2.978  0.7903  1.0599 -1.5943
14263SOL    HW245422   1.443   4.224   2.973  2.5757  1.1668 -1.3655
14264SOL     OW45423   8.646   4.654   5.899 -0.5128 -0.3482  0.4254
14264SOL    HW145424   8.571   4.607   5.936 -0.8667 -0.2777 -0.1886
14264SOL    HW245425   8.656   4.617   5.811 -0.2982  0.1767  0.2303
14265SOL     OW45426   9.869   5.574   7.842 -0.6648  0.3573 -0.3105
14265SOL    HW145427   9.828   5.513   7.903 -0.7727 -1.0097 -1.6957
14265SOL    HW245428   9.840   5.661   7.871 -0.5204 -0.2229  1.6886
14266SOL     OW45429   3.352   4.056   3.006  0.2777 -0.0732  0.0226
14266SOL    HW145430   3.424   4.080   2.947 -0.6185  2.8898 -0.0526
14266SOL    HW245431   3.285   4.020   2.948  1.1015 -1.4820 -0.0964
14267SOL     OW45432   5.924   4.686   8.348  0.4236 -0.1636  0.0711
14267SOL    HW145433   5.879   4.739   8.282  0.4383 -0.7955 -0.4617
14267SOL    HW245434   6.012   4.673   8.312  1.3612  1.7527  1.4824
14268SOL     OW45435   4.495   9.751   8.821  0.3576  0.8581 -0.3738
14268SOL    HW145436   4.571   9.807   8.807  0.0605  0.8953 -2.0721
14268SOL    HW245437   4.425   9.792   8.769 -0.1356 -0.5129 -0.8309
14269SOL     OW45438   6.517   3.521   1.526  0.0862  0.0277  0.2888
14269SOL    HW145439   6.430   3.550   1.552 -0.8255 -1.1499 -1.2712
14269SOL    HW245440   6.567   3.602   1.515 -1.3005  0.8270 -0.4229
14270SOL     OW45441   6.095   8.619   2.998 -0.0469  0.1938 -0.5657
14270SOL    HW145442   6.167   8.678   3.020  0.3677 -1.0247  1.5136
14270SOL    HW245443   6.031   8.631   3.068 -0.5059 -0.9079 -0.7721
14271SOL     OW45444   6.018   6.006   9.660 -0.1308  0.3624  0.0750
14271SOL    HW145445   6.009   5.930   9.603 -2.0836  0.6914 -0.1335
14271SOL    HW245446   6.061   5.973   9.739 -0.8692 -0.9359 -0.0487
14272SOL     OW45447   1.178   4.946   4.259 -0.3182  0.5945  0.4096
14272SOL    HW145448   1.151   4.965   4.169 -2.9527 -2.3232  0.4123
14272SOL    HW245449   1.119   4.998   4.313  0.1531  1.0959  0.4396
14273SOL     OW45450   5.562   4.079   3.505  0.6089 -0.2143 -0.3407
14273SOL    HW145451   5.523   4.092   3.592  3.0205 -0.0493  0.7884
14273SOL    HW245452   5.612   3.998   3.513  0.4584 -0.4683 -1.7590
14274SOL     OW45453   4.078   8.243   0.607  0.1852 -0.2947  0.2881
14274SOL    HW145454   4.038   8.319   0.564 -1.2263 -1.3392 -0.3216
14274SOL    HW245455   4.102   8.275   0.694 -3.2846  0.0927  1.2283
14275SOL     OW45456   0.528   4.108   1.735 -0.0595  0.2984 -0.0080
14275SOL    HW145457   0.435   4.115   1.714  0.2008 -0.7518 -1.8042
14275SOL    HW245458   0.561   4.042   1.674  1.9204  0.8397  0.3947
14276SOL     OW45459   3.876   8.977   0.862 -1.1563  0.2083 -0.8132
14276SOL    HW145460   3.820   9.031   0.918 -0.5801 -0.2605  0.2478
14276SOL    HW245461   3.933   9.040   0.818  0.4951  0.4366  1.5092
14277SOL     OW45462   9.931   8.102   1.386  0.0332 -0.0824 -0.1090
14277SOL    HW145463   9.839   8.083   1.404 -0.2800  2.8550  2.1160
14277SOL    HW245464   9.929   8.153   1.304 -0.0944 -1.3348 -0.9140
14278SOL     OW45465   4.084   8.917   4.012  0.6552  0.2020  0.4831
14278SOL    HW145466   4.024   8.850   3.981 -2.2393  2.5673  0.5517
14278SOL    HW245467   4.167   8.897   3.969 -0.8553 -1.7187 -1.7656
14279SOL     OW45468   6.351   7.797   1.141  0.1056 -0.2765 -0.2679
14279SOL    HW145469   6.376   7.705   1.149 -1.8597 -0.8707 -0.4264
14279SOL    HW245470   6.427   7.846   1.173  2.6024 -1.7990 -3.3182
14280SOL     OW45471   0.094   8.891   7.489 -0.1318  0.2188  0.3048
14280SOL    HW145472   0.130   8.885   7.577  1.4320 -1.4481 -0.3889
14280SOL    HW245473   0.145   8.961   7.446 -0.1585  0.2890  0.3875
14281SOL     OW45474   2.715   7.233   2.316 -0.5200  0.1944 -0.1285
14281SOL    HW145475   2.635   7.188   2.290 -0.4081 -0.3334  0.4120
14281SOL    HW245476   2.712   7.317   2.270 -0.4598 -0.5763 -1.6212
14282SOL     OW45477   2.479   0.636   6.653 -0.1613  0.5586  0.1490
14282SOL    HW145478   2.508   0.724   6.679 -1.2267  0.6035  1.2690
14282SOL    HW245479   2.549   0.578   6.682  0.0199  0.9272  0.4567
14283SOL     OW45480   3.255   5.347   7.737  0.3689 -0.7289  0.4371
14283SOL    HW145481   3.193   5.301   7.794  0.0987 -0.5341  0.3072
14283SOL    HW245482   3.341   5.314   7.762  0.2536 -0.6293  0.9700
14284SOL     OW45483   9.659   9.343   2.915  0.5080 -0.5638 -0.3583
14284SOL    HW145484   9.752   9.321   2.905  0.0256 -3.2077  0.2752
14284SOL    HW245485   9.631   9.371   2.828  1.2808 -2.4921 -1.2785
14285SOL     OW45486   1.285   7.115   4.452  0.2359 -0.4688 -0.0747
14285SOL    HW145487   1.260   7.034   4.496  2.0538 -0.6705  0.6880
14285SOL    HW245488   1.320   7.087   4.367 -1.1418 -0.2661 -0.7398
14286SOL     OW45489   2.663   7.249   4.668  0.2739 -0.1325 -0.2827
14286SOL    HW145490   2.652   7.238   4.763  1.8530  1.2981  0.1180
14286SOL    HW245491   2.600   7.188   4.629  0.2686 -1.4751  1.6759
14287SOL     OW45492   1.639   0.585   8.133 -0.1710  0.3435  0.2159
14287SOL    HW145493   1.583   0.569   8.057  0.7557 -0.1428 -0.3754
14287SOL    HW245494   1.610   0.521   8.198  0.2311 -0.4615 -0.3824
14288SOL     OW45495   2.214   6.966   5.702 -0.7190  0.1586 -0.2132
14288SOL    HW145496   2.283   7.032   5.691 -0.3678 -0.3747 -1.3774
14288SOL    HW245497   2.172   6.961   5.617 -0.6138 -1.2509 -0.2069
14289SOL     OW45498   7.189   4.296   2.705  0.1207  0.0721  0.0814
14289SOL    HW145499   7.270   4.343   2.686  0.4387 -0.3439  0.4033
14289SOL    HW245500   7.122   4.342   2.653  0.5501  0.4411 -0.1510
14290SOL     OW45501   7.729   0.032  10.333  0.1165 -0.3188  0.1132
14290SOL    HW145502   7.644   0.029  10.289 -0.5881  0.6617  1.3139
14290SOL    HW245503   7.707   0.044  10.426  1.5299 -2.2673  0.7655
14291SOL     OW45504   7.339   6.602   4.194  0.1114 -0.7550 -0.5056
14291SOL    HW145505   7.407   6.551   4.150  0.7596  0.2460 -0.6919
14291SOL    HW245506   7.272   6.615   4.127  0.4949 -0.3523 -0.8192
14292SOL     OW45507   3.043   3.867   0.533 -0.0942 -0.1028 -0.2660
14292SOL    HW145508   3.076   3.884   0.621  1.9051 -1.3779 -0.7037
14292SOL    HW245509   2.965   3.812   0.547  0.3783 -0.5583  0.7165
14293SOL     OW45510   9.395   3.043   6.107 -0.3855 -0.3803 -0.4829
14293SOL    HW145511   9.333   3.078   6.043  0.5223  0.3807 -0.9769
14293SOL    HW245512   9.472   3.019   6.055 -0.1808 -1.1243  0.1396
14294SOL     OW45513   1.270   7.345   9.082 -0.0870 -0.7401 -0.3693
14294SOL    HW145514   1.187   7.304   9.055  0.1545 -0.9678 -0.7764
14294SOL    HW245515   1.313   7.369   9.000 -0.4048  0.7197 -0.1369
14295SOL     OW45516   8.250   4.678   3.646 -0.0901  0.4851 -0.2395
14295SOL    HW145517   8.254   4.734   3.724 -0.4355 -0.2171  0.2892
14295SOL    HW245518   8.159   4.648   3.643 -0.4824  1.6551 -1.7467
14296SOL     OW45519   8.260   6.260   7.449  0.4792 -0.4126 -0.3739
14296SOL    HW145520   8.248   6.199   7.377 -1.5540 -0.2108 -0.2594
14296SOL    HW245521   8.328   6.321   7.418 -1.1430  0.3887 -2.6539
14297SOL     OW45522   6.059   7.696   6.549 -0.3178  0.4062 -0.3520
14297SOL    HW145523   6.070   7.790   6.533 -1.2038  0.4843 -0.5761
14297SOL    HW245524   6.012   7.692   6.632  1.3976  0.0895  0.6541
14298SOL     OW45525   5.424   1.102   7.374 -0.3132 -0.3582 -0.2505
14298SOL    HW145526   5.513   1.124   7.403  0.3129  1.4326 -3.0927
14298SOL    HW245527   5.374   1.183   7.385 -1.3065 -1.0260  0.2874
14299SOL     OW45528   9.055   0.186   6.973 -0.0855 -0.1817  0.1573
14299SOL    HW145529   9.027   0.134   7.048  1.3047 -1.1833  0.0335
14299SOL    HW245530   9.041   0.129   6.897  0.7846 -0.1172 -0.0637
14300SOL     OW45531   6.636   8.602   0.485  0.0619  0.8273 -0.2743
14300SOL    HW145532   6.604   8.536   0.547  0.7575  0.4547 -0.3008
14300SOL    HW245533   6.710   8.642   0.529 -0.9448  2.2939  0.1466
14301SOL     OW45534   8.809   4.610   8.085 -0.5715 -0.1835  0.0041
14301SOL    HW145535   8.721   4.572   8.085  0.4033 -2.9362 -3.4204
14301SOL    HW245536   8.865   4.542   8.121  0.6864 -0.4155 -2.2250
14302SOL     OW45537   1.334   3.236   7.243 -0.2376 -0.0497  0.2801
14302SOL    HW145538   1.411   3.261   7.295  0.8327 -0.5089 -1.0373
14302SOL    HW245539   1.352   3.146   7.216 -0.0986  0.6015 -2.0119
14303SOL     OW45540   3.130   7.694   5.872 -0.1397 -0.0708 -0.3348
14303SOL    HW145541   3.110   7.732   5.957 -1.1242  0.8180 -0.9360
14303SOL    HW245542   3.112   7.601   5.883 -0.0707  0.0021  0.4784
14304SOL     OW45543   8.761   2.194   7.232  0.0016  0.6661  0.5018
14304SOL    HW145544   8.674   2.232   7.242 -0.2466  0.5132 -0.8563
14304SOL    HW245545   8.747   2.116   7.178  0.8121 -0.0915  1.3500
14305SOL     OW45546   5.785   9.790   0.316  0.2355  0.2997  0.3570
14305SOL    HW145547   5.733   9.721   0.274  1.5176 -0.5699  0.1662
14305SOL    HW245548   5.839   9.744   0.380  0.3629  1.2649  0.9629
14306SOL     OW45549   1.953   9.796   1.620  0.2113 -0.6294 -0.3814
14306SOL    HW145550   1.958   9.803   1.716  0.9896 -2.1716 -0.2796
14306SOL    HW245551   1.972   9.884   1.589 -0.1839 -0.0653  0.8769
14307SOL     OW45552   5.035   8.163   7.310 -0.4009  0.4799 -0.2072
14307SOL    HW145553   5.129   8.180   7.314 -0.3297  0.6030 -1.9159
14307SOL    HW245554   5.027   8.069   7.328 -0.0625  0.6414  0.8910
14308SOL     OW45555   0.562   8.108   5.141  0.1304  0.4252  0.3516
14308SOL    HW145556   0.523   8.077   5.059 -0.2838 -0.5197  0.8901
14308SOL    HW245557   0.493   8.162   5.181  0.1777  0.5322  0.2905
14309SOL     OW45558  10.068   5.386   7.832  0.1296  0.1762 -0.1048
14309SOL    HW145559  10.085   5.363   7.741 -0.9887 -1.0016 -0.0386
14309SOL    HW245560  10.002   5.455   7.828  0.3810  0.4163 -0.1849
14310SOL     OW45561   9.141   8.218   9.114  0.1507 -0.0461  0.0391
14310SOL    HW145562   9.180   8.151   9.170 -0.0195 -0.1679  0.0131
14310SOL    HW245563   9.210   8.284   9.104  0.2388 -0.1057  0.2534
14311SOL     OW45564   0.481   0.067   6.704  0.0604  0.3464  0.2667
14311SOL    HW145565   0.470   0.139   6.642 -1.2571  0.6421  0.7983
14311SOL    HW245566   0.399   0.067   6.755 -0.8161 -2.6943 -0.9271
14312SOL     OW45567   0.435   2.648   2.437  0.0159  0.0127 -0.5410
14312SOL    HW145568   0.358   2.605   2.473 -0.3487  0.4731 -0.7687
14312SOL    HW245569   0.403   2.697   2.362  0.3381  1.0638 -0.0137
14313SOL     OW45570   8.746  10.101   5.865  0.1728  0.1305 -0.6796
14313SOL    HW145571   8.700  10.158   5.804 -0.8698 -0.4515 -0.4542
14313SOL    HW245572   8.839  10.117   5.846 -0.0985  1.5312 -0.9383
14314SOL     OW45573   9.730   9.550   8.561  0.0350  0.0181 -0.1987
14314SOL    HW145574   9.701   9.625   8.509  0.8319 -0.1545 -0.9168
14314SOL    HW245575   9.821   9.570   8.584  0.0540 -0.4389  0.1418
14315SOL     OW45576   6.617   7.234   9.918  0.1605 -0.2119  0.3087
14315SOL    HW145577   6.614   7.244   9.823  3.2627 -0.4150  0.1016
14315SOL    HW245578   6.645   7.144   9.932 -0.0063 -0.1039  1.4266
14316SOL     OW45579   2.204   8.605   3.439 -0.0969 -0.3717 -0.4660
14316SOL    HW145580   2.162   8.665   3.500  1.1553 -0.3317  0.4096
14316SOL    HW245581   2.296   8.633   3.438 -0.1284 -0.1605 -2.6443
14317SOL     OW45582   2.839   4.392   8.225  0.5065 -0.3170 -0.3254
14317SOL    HW145583   2.760   4.404   8.173 -1.1050  1.0351  2.2428
14317SOL    HW245584   2.823   4.312   8.275 -0.4212  1.2444  2.0146
14318SOL     OW45585   4.419   4.560   5.112 -0.2273 -0.5006 -0.2681
14318SOL    HW145586   4.496   4.554   5.055  1.6323 -0.9081  2.1275
14318SOL    HW245587   4.376   4.475   5.103  0.8658 -1.0980  0.0020
14319SOL     OW45588   2.003   7.148   6.832  0.4145  0.4414  0.1102
14319SOL    HW145589   1.964   7.112   6.752  0.5889 -0.6387  0.4855
14319SOL    HW245590   2.068   7.082   6.858 -0.0163  0.5057  1.4362
14320SOL     OW45591   5.814   4.666   6.155  0.7627  0.1070  0.0194
14320SOL    HW145592   5.770   4.637   6.235  0.4049  1.0625  0.1799
14320SOL    HW245593   5.777   4.752   6.137  0.8426 -0.0828 -1.1747
14321SOL     OW45594   6.809   1.738   4.401 -0.0810  0.0517 -0.2497
14321SOL    HW145595   6.840   1.756   4.490 -0.7801  0.0976 -0.0123
14321SOL    HW245596   6.715   1.724   4.411 -0.1274 -0.1502 -0.9548
14322SOL     OW45597  10.281   7.670   2.441  0.0283 -0.3509  0.1474
14322SOL    HW145598  10.374   7.648   2.444  0.3629  0.7972 -0.9026
14322SOL    HW245599  10.253   7.642   2.353  0.0556  1.6849 -0.5606
14323SOL     OW45600   3.109   9.239   0.784 -0.0683 -0.4258  0.0420
14323SOL    HW145601   3.168   9.184   0.836  0.4736 -1.1216 -1.2556
14323SOL    HW245602   3.168   9.299   0.738 -0.4800 -0.2760 -0.2936
14324SOL     OW45603   0.912   3.774   0.954  0.2793 -0.3950 -0.2921
14324SOL    HW145604   0.937   3.770   0.862  1.8075 -2.0993  0.1333
14324SOL    HW245605   0.820   3.797   0.953 -0.0365 -1.5094 -2.3106
14325SOL     OW45606   7.023   2.603  10.000 -0.1132  0.0433  0.1483
14325SOL    HW145607   7.030   2.533  10.065 -0.6883  0.5379  0.7538
14325SOL    HW245608   6.988   2.559   9.922 -0.1913 -0.3995  0.4281
14326SOL     OW45609   5.259   9.994   9.858  0.1365 -0.1879  0.4729
14326SOL    HW145610   5.245   9.906   9.825 -0.1585 -0.0800  0.3050
14326SOL    HW245611   5.171  10.031   9.866  0.3206  0.7649 -1.3136
14327SOL     OW45612  10.291   0.903   6.967 -0.1470 -0.5097 -0.2813
14327SOL    HW145613  10.286   0.823   7.020 -2.1596 -0.2144  0.0413
14327SOL    HW245614  10.355   0.958   7.013  0.6532 -1.5893 -0.0606
14328SOL     OW45615   5.158   1.288   7.713  0.4478 -0.0395 -0.1095
14328SOL    HW145616   5.104   1.215   7.743  0.0382  1.1100  2.1826
14328SOL    HW245617   5.109   1.366   7.739  0.5540  1.1301 -3.0538
14329SOL     OW45618   2.686   4.672   0.321 -0.3540 -0.1005  0.2892
14329SOL    HW145619   2.762   4.678   0.263  0.8068  0.0205  1.7670
14329SOL    HW245620   2.630   4.745   0.294  0.6953  0.6444  0.0418
14330SOL     OW45621  10.255   0.790   3.372  0.7755 -0.1471 -0.5216
14330SOL    HW145622  10.312   0.784   3.449 -1.9991 -0.8829  1.6588
14330SOL    HW245623  10.231   0.699   3.353 -0.4051  0.1934 -0.7457
14331SOL     OW45624   0.431   1.608   2.792 -0.0478  0.2106  0.2647
14331SOL    HW145625   0.504   1.580   2.736  0.0718 -0.9874  0.9832
14331SOL    HW245626   0.356   1.612   2.733  0.4571  0.8886 -0.3645
14332SOL     OW45627   9.331   9.705   6.050 -0.6324 -0.7916 -0.8235
14332SOL    HW145628   9.264   9.720   5.984 -0.7345  2.9077 -0.1149
14332SOL    HW245629   9.309   9.765   6.121  2.4126 -0.6987  0.2051
14333SOL     OW45630   0.614   8.803   3.803 -0.0822  0.0451  0.0684
14333SOL    HW145631   0.642   8.764   3.720 -0.5561  0.7769 -0.4469
14333SOL    HW245632   0.523   8.829   3.788 -1.1021 -2.3135  1.7294
14334SOL     OW45633   5.185   1.525   6.727 -0.3308  0.2200 -0.4082
14334SOL    HW145634   5.252   1.580   6.686 -0.2579  0.4934  0.0748
14334SOL    HW245635   5.230   1.444   6.749 -0.4222 -0.0103 -1.0615
14335SOL     OW45636   4.122   6.744   0.593 -0.0276 -0.2076  0.4890
14335SOL    HW145637   4.113   6.742   0.688 -0.4818 -1.3999  0.4445
14335SOL    HW245638   4.216   6.729   0.578  0.1185  0.4110  0.7456
14336SOL     OW45639   7.849   3.151   7.571 -0.1875 -0.0941  0.6275
14336SOL    HW145640   7.848   3.162   7.666  0.5849  1.1681  0.5091
14336SOL    HW245641   7.786   3.080   7.555  0.7977 -1.3943  2.1865
14337SOL     OW45642   0.529   0.994   2.578  0.3025 -0.5426 -0.2066
14337SOL    HW145643   0.477   0.914   2.571  1.9282 -1.5911 -0.9506
14337SOL    HW245644   0.521   1.035   2.492  0.8402 -0.8175 -0.3941
14338SOL     OW45645   0.987   6.656  10.266 -0.0407 -0.1608 -0.0562
14338SOL    HW145646   1.077   6.687  10.276 -0.1308  0.3047 -0.5875
14338SOL    HW245647   0.934   6.727  10.301 -0.2204 -0.1626 -0.3247
14339SOL     OW45648   4.997   7.462   0.367 -0.4841 -0.3064  0.0119
14339SOL    HW145649   5.011   7.419   0.452 -0.0090 -0.2872 -0.0559
14339SOL    HW245650   5.076   7.443   0.317 -0.1816  0.7993  0.0455
14340SOL     OW45651   4.235   8.901   2.251 -0.0942  0.6909  0.4681
14340SOL    HW145652   4.212   8.933   2.164 -1.0458  1.8890  1.1250
14340SOL    HW245653   4.226   8.806   2.245  1.2673  0.6195 -1.1214
14341SOL     OW45654   2.320   1.962   2.219  0.0855  0.7031 -0.1569
14341SOL    HW145655   2.307   1.869   2.199 -0.2909  0.8906 -0.8241
14341SOL    HW245656   2.415   1.976   2.208  0.2676  0.2220  0.7541
14342SOL     OW45657   8.825   3.686   7.666 -0.1816 -0.4495 -0.5137
14342SOL    HW145658   8.901   3.670   7.610  1.8146  0.1846  1.8264
14342SOL    HW245659   8.842   3.633   7.744 -1.1872  1.1268  0.8359
14343SOL     OW45660   5.229   8.217   8.862 -1.2829  0.4939 -0.0755
14343SOL    HW145661   5.141   8.250   8.847 -1.6025 -0.9499 -1.7804
14343SOL    HW245662   5.219   8.121   8.861  0.4579  0.2654 -1.7953
14344SOL     OW45663   4.664   5.688   5.209  0.4179  0.0706 -0.1109
14344SOL    HW145664   4.760   5.696   5.208  0.2850  2.3446  0.2106
14344SOL    HW245665   4.648   5.598   5.239  2.4274 -0.2691  0.1069
14345SOL     OW45666   9.930   0.828   0.225  0.3896  0.0598  0.1119
14345SOL    HW145667  10.004   0.799   0.279  0.5738  0.9974  0.3906
14345SOL    HW245668   9.918   0.758   0.161  1.4619 -0.1484  0.1221
14346SOL     OW45669   8.139   8.542   3.829 -0.6250  0.1003  0.1886
14346SOL    HW145670   8.179   8.535   3.742 -0.1490  0.0242  0.4138
14346SOL    HW245671   8.053   8.501   3.818  0.5561 -2.7020  0.4852
14347SOL     OW45672   7.772   4.574   3.457  0.0529 -0.9453 -0.8742
14347SOL    HW145673   7.697   4.530   3.416 -0.2163 -1.6146  0.2849
14347SOL    HW245674   7.762   4.555   3.550 -0.0569  1.5782 -0.3011
14348SOL     OW45675   9.023   3.043   2.844  0.0697 -0.3551 -0.7580
14348SOL    HW145676   9.058   3.035   2.756 -0.3754 -1.0810 -0.8788
14348SOL    HW245677   8.930   3.025   2.835  0.1736 -1.3561 -0.0102
14349SOL     OW45678   9.490   6.278   5.628 -0.3680  0.5844  0.1638
14349SOL    HW145679   9.471   6.220   5.554  0.2398 -0.0428  0.4898
14349SOL    HW245680   9.435   6.246   5.699  0.4820 -0.0593  0.5545
14350SOL     OW45681   3.381   4.749   3.009 -0.0981  0.5058  0.1132
14350SOL    HW145682   3.402   4.803   2.933  0.7017 -0.3361 -0.2672
14350SOL    HW245683   3.458   4.695   3.023 -0.9357 -0.6430  0.4157
14351SOL     OW45684   4.636   5.349   3.092  0.2702  0.4854  0.0060
14351SOL    HW145685   4.636   5.379   3.184  0.7609  0.4623  0.0148
14351SOL    HW245686   4.583   5.269   3.093  0.8537  0.0948  0.3998
14352SOL     OW45687   6.308   3.255   0.098  0.0974 -0.1079 -0.2447
14352SOL    HW145688   6.289   3.344   0.128 -1.9121 -1.0581  1.5923
14352SOL    HW245689   6.334   3.266   0.007 -1.0417  2.2996 -0.3697
14353SOL     OW45690   3.756   8.097   4.432  0.0663  0.1813  0.2693
14353SOL    HW145691   3.737   8.040   4.358  3.2064  0.6730 -1.0886
14353SOL    HW245692   3.701   8.063   4.503 -3.0316 -0.3327 -2.1773
14354SOL     OW45693   8.220   8.879   2.587 -0.4699 -0.0764  0.5652
14354SOL    HW145694   8.263   8.874   2.672 -0.1313  0.0736  0.4040
14354SOL    HW245695   8.134   8.918   2.605 -0.5207 -0.3293  0.8786
14355SOL     OW45696   8.301   0.503   6.479 -0.2475 -0.1856 -0.1922
14355SOL    HW145697   8.305   0.485   6.385  1.7792 -0.0721 -0.1593
14355SOL    HW245698   8.218   0.464   6.507 -1.1735  0.3035 -2.1192
14356SOL     OW45699   1.028   8.684   7.671 -0.1644 -0.2611  0.3005
14356SOL    HW145700   1.122   8.698   7.674  0.0076 -1.4187  1.8873
14356SOL    HW245701   1.013   8.611   7.731 -2.1553  0.3832  0.6746
14357SOL     OW45702   1.722   7.396   0.510  0.0091  0.6089  0.3185
14357SOL    HW145703   1.737   7.485   0.544  0.7867  0.5467  0.1678
14357SOL    HW245704   1.810   7.364   0.488 -0.3901  0.3481 -0.9953
14358SOL     OW45705   3.921   9.097   6.006  1.0849 -0.5474 -0.2144
14358SOL    HW145706   4.014   9.084   5.987  1.3724 -0.0903  0.8064
14358SOL    HW245707   3.906   9.051   6.089 -0.0123 -2.0419 -1.1955
14359SOL     OW45708   7.856   4.139   1.285  0.2252 -0.1137  0.1154
14359SOL    HW145709   7.813   4.143   1.371  1.4388  0.5677  0.7173
14359SOL    HW245710   7.792   4.094   1.229 -0.5179 -0.7501  1.4085
14360SOL     OW45711   4.227   8.582   4.021 -0.0773 -0.3066  0.6215
14360SOL    HW145712   4.276   8.501   4.015 -1.6409 -1.2556 -0.0295
14360SOL    HW245713   4.284   8.648   3.983  1.2754 -1.0508  1.2750
14361SOL     OW45714   4.602   9.451   9.338  0.3127 -0.0183 -0.3204
14361SOL    HW145715   4.518   9.497   9.341  0.2455 -0.1425 -0.2996
14361SOL    HW245716   4.641   9.478   9.255 -0.4026 -1.1074 -1.0332
14362SOL     OW45717   0.712   2.533  10.009 -0.4662 -0.5214 -0.3868
14362SOL    HW145718   0.622   2.523  10.039 -0.0464 -3.6040  0.1791
14362SOL    HW245719   0.762   2.555  10.087 -0.1682 -3.2836  0.3188
14363SOL     OW45720   7.024   8.869   8.086  0.2625  0.0760 -0.1738
14363SOL    HW145721   7.054   8.826   8.166 -0.2731  0.1845  0.0934
14363SOL    HW245722   7.093   8.852   8.022 -0.1032 -1.5492 -0.2029
14364SOL     OW45723   5.152   8.015   2.638 -0.1441  0.3064 -0.1066
14364SOL    HW145724   5.176   8.001   2.729  2.2800 -3.1967 -1.0803
14364SOL    HW245725   5.227   8.059   2.599  0.0554 -0.7222 -0.9361
14365SOL     OW45726   1.598   1.500   8.201 -0.1001  0.3115 -0.4283
14365SOL    HW145727   1.672   1.519   8.259  0.0248  1.6171 -0.9713
14365SOL    HW245728   1.536   1.572   8.217 -0.7649 -0.1770 -0.7681
14366SOL     OW45729   4.778   5.868   7.485  0.4158  0.6983 -0.0153
14366SOL    HW145730   4.809   5.954   7.512  0.9419  0.4667  0.1258
14366SOL    HW245731   4.683   5.878   7.476  0.4938  1.3246 -0.1338
14367SOL     OW45732   0.836   1.263   6.203 -0.1111  0.5053 -0.0749
14367SOL    HW145733   0.770   1.233   6.140 -0.1583 -1.6716  0.9312
14367SOL    HW245734   0.785   1.298   6.276 -0.1432 -0.4429  0.3610
14368SOL     OW45735   7.181   1.104   3.736 -0.1520  0.0097 -0.0592
14368SOL    HW145736   7.213   1.147   3.815  2.0157 -2.3001  0.4617
14368SOL    HW245737   7.192   1.169   3.667  1.4770  0.8404  0.9227
14369SOL     OW45738   7.528   5.358   1.665 -0.1249 -0.3818 -0.5468
14369SOL    HW145739   7.567   5.380   1.750 -3.2513 -0.1262  0.9520
14369SOL    HW245740   7.592   5.300   1.624  1.9469  0.2652  1.5258
14370SOL     OW45741   5.724   9.958   8.757 -0.7130 -0.3151 -0.0420
14370SOL    HW145742   5.761   9.946   8.670  1.1571 -1.2940  0.8149
14370SOL    HW245743   5.791   9.923   8.816 -1.0615  2.0622  1.9196
14371SOL     OW45744  10.029   2.758   3.980  0.3846 -0.2585  0.9352
14371SOL    HW145745   9.946   2.803   3.996 -0.6090 -1.2394 -1.0707
14371SOL    HW245746  10.068   2.804   3.906 -0.3376 -2.1917 -0.7291
14372SOL     OW45747   8.561   5.952   0.983 -0.5342 -0.3766 -0.4024
14372SOL    HW145748   8.604   5.880   0.936  0.3818  0.2693 -0.5879
14372SOL    HW245749   8.633   6.006   1.015 -1.1145 -0.8771  1.9390
14373SOL     OW45750   8.746   2.999   0.547 -0.1298 -0.3953  0.4457
14373SOL    HW145751   8.704   3.068   0.496  1.0011 -1.0839 -1.5299
14373SOL    HW245752   8.780   3.044   0.625 -0.3302  1.0687 -0.2807
14374SOL     OW45753   7.811   3.415   5.287  0.0508  0.0528 -0.0787
14374SOL    HW145754   7.808   3.343   5.350 -2.0354 -0.9380 -1.1925
14374SOL    HW245755   7.787   3.374   5.204  0.2234  1.7855 -1.0269
14375SOL     OW45756   7.288   1.103   2.758  0.1602 -0.1639  0.1531
14375SOL    HW145757   7.316   1.121   2.848 -1.9193 -0.2313  0.8585
14375SOL    HW245758   7.293   1.008   2.749 -0.5014 -0.2423  0.5302
14376SOL     OW45759   0.335   3.728   6.790 -0.4840  0.1595 -0.1272
14376SOL    HW145760   0.349   3.653   6.848  0.6965  0.2705 -0.2296
14376SOL    HW245761   0.247   3.717   6.756 -0.4837 -0.9534  0.1940
14377SOL     OW45762   8.520   6.061   4.925 -0.3021  0.0320 -0.1840
14377SOL    HW145763   8.438   6.019   4.898 -0.2511 -0.4490  0.4103
14377SOL    HW245764   8.567   5.994   4.973  0.2777  0.4303 -0.1896
14378SOL     OW45765   8.653   3.253   5.225 -0.4946  1.1320  0.1947
14378SOL    HW145766   8.712   3.194   5.179 -0.8487  1.0645 -0.1793
14378SOL    HW245767   8.595   3.194   5.274 -0.5088  1.1860  0.2429
14379SOL     OW45768  10.186   9.396   5.071  0.0932 -0.1663 -0.0392
14379SOL    HW145769  10.175   9.325   5.134 -2.5919  0.3722  0.2094
14379SOL    HW245770  10.197   9.475   5.125  2.0803 -0.2147 -0.3107
14380SOL     OW45771   4.240   5.440   4.773 -0.3519 -0.1291 -0.1911
14380SOL    HW145772   4.271   5.487   4.850  1.7892 -0.0433 -1.0262
14380SOL    HW245773   4.211   5.355   4.807 -1.5279  0.6903  0.9434
14381SOL     OW45774   5.297   6.491   7.685 -0.0257 -0.1908  0.6336
14381SOL    HW145775   5.383   6.452   7.674 -0.4352 -1.1264  0.6889
14381SOL    HW245776   5.306   6.548   7.762  0.3831 -0.7534  1.0059
14382SOL     OW45777   4.142   3.664   3.564 -0.1213 -0.0700 -0.2720
14382SOL    HW145778   4.229   3.701   3.551 -0.1328  0.2542  0.4948
14382SOL    HW245779   4.120   3.623   3.480  0.9716 -0.5912 -0.3171
14383SOL     OW45780   3.444   8.262   8.642  0.6831  0.1716 -0.0360
14383SOL    HW145781   3.524   8.307   8.612  0.6234  1.0329  0.9999
14383SOL    HW245782   3.375   8.328   8.634  0.6315  0.3914  1.7377
14384SOL     OW45783   0.174   6.217   7.502  0.4388  0.1154  0.0062
14384SOL    HW145784   0.081   6.206   7.483  0.9437 -0.5929 -2.2776
14384SOL    HW245785   0.218   6.210   7.417  2.4454  2.3421  0.7240
14385SOL     OW45786   9.187   6.379   2.553  0.5511  0.0415 -0.3159
14385SOL    HW145787   9.106   6.339   2.521  0.9698 -0.9088 -0.1924
14385SOL    HW245788   9.198   6.344   2.642  1.1021  0.1678 -0.3301
14386SOL     OW45789   2.065   5.417   9.670 -0.2385 -0.1499  0.0252
14386SOL    HW145790   2.079   5.414   9.575 -0.7451  0.4262 -0.0683
14386SOL    HW245791   2.150   5.444   9.705 -0.1116 -0.1484 -0.2747
14387SOL     OW45792   4.642   5.995   4.177 -0.4652  0.2981  0.8747
14387SOL    HW145793   4.590   5.956   4.247  0.2841 -0.6376  0.9401
14387SOL    HW245794   4.578   6.029   4.115 -1.1644 -0.8116  0.9671
14388SOL     OW45795   4.361   3.600   5.759  0.0404 -0.1807 -0.1617
14388SOL    HW145796   4.392   3.583   5.670  1.1483  0.6889  0.0301
14388SOL    HW245797   4.354   3.695   5.765 -2.8551 -0.3100 -0.1995
14389SOL     OW45798   9.427   8.353   1.560  0.1966 -0.1486  0.8457
14389SOL    HW145799   9.522   8.366   1.558  0.1856 -0.1028 -0.5109
14389SOL    HW245800   9.402   8.374   1.650  1.0543  2.8025  0.5065
14390SOL     OW45801   3.659   6.375   1.816 -0.0794 -0.7018 -0.4965
14390SOL    HW145802   3.621   6.461   1.797 -0.0613 -1.0948 -2.5273
14390SOL    HW245803   3.620   6.350   1.900  1.1382  1.9495  0.9784
14391SOL     OW45804   1.475   2.324  10.307 -0.3094 -0.2077  0.2573
14391SOL    HW145805   1.441   2.409  10.277 -1.4826 -1.5154 -2.3949
14391SOL    HW245806   1.429   2.259  10.254  3.4520 -2.3586 -0.7685
14392SOL     OW45807   4.336   5.143   8.979  0.5488  0.3241 -0.1704
14392SOL    HW145808   4.297   5.230   8.970  0.7318  0.3224 -1.0229
14392SOL    HW245809   4.355   5.115   8.889  0.9504 -0.3895  0.1252
14393SOL     OW45810   1.275   5.494   7.124 -0.1316  0.2355 -0.2292
14393SOL    HW145811   1.225   5.430   7.175 -0.5036 -0.4887 -1.4703
14393SOL    HW245812   1.301   5.447   7.045  0.0557  1.4573 -0.9202
14394SOL     OW45813   0.301   0.491   1.597  0.3998 -0.9189 -0.4567
14394SOL    HW145814   0.312   0.535   1.681  0.0992  0.4796 -1.1359
14394SOL    HW245815   0.383   0.443   1.585  1.3066  0.5343 -0.3273
14395SOL     OW45816   6.549   7.290   6.041 -0.0457 -0.2015  0.3325
14395SOL    HW145817   6.540   7.236   5.962 -1.1694 -1.4714  1.2732
14395SOL    HW245818   6.627   7.254   6.085 -0.8855 -1.2380  1.0394
14396SOL     OW45819   8.607   0.340   0.662 -0.4456  0.8254 -0.1408
14396SOL    HW145820   8.683   0.390   0.634 -1.3030  2.5575  0.4651
14396SOL    HW245821   8.640   0.284   0.733  1.2087 -1.9028 -2.7884
14397SOL     OW45822   4.196   2.385   1.932 -0.5615 -0.3048  0.3705
14397SOL    HW145823   4.216   2.295   1.957  0.9294 -0.2556 -0.4710
14397SOL    HW245824   4.256   2.403   1.859 -1.0152  1.2714  0.3469
14398SOL     OW45825  10.041   6.111   3.444  0.5881 -0.3938 -0.1294
14398SOL    HW145826   9.948   6.130   3.428  0.3705 -0.7241  0.7097
14398SOL    HW245827  10.048   6.016   3.436  0.8742 -0.3582 -0.2976
14399SOL     OW45828   6.957   7.553   4.587 -0.0373  0.2920 -0.4058
14399SOL    HW145829   6.910   7.593   4.514  0.1687 -0.1512 -0.7880
14399SOL    HW245830   6.892   7.496   4.629 -0.3027  0.9341  0.0804
14400SOL     OW45831   0.470   6.403   2.728  0.1526  0.1908 -0.0274
14400SOL    HW145832   0.487   6.491   2.694 -0.0792 -0.2552 -1.3289
14400SOL    HW245833   0.375   6.396   2.733  0.1733  0.0762  0.2630
14401SOL     OW45834   2.693   7.455   9.436 -0.9732 -0.2875 -0.2619
14401SOL    HW145835   2.695   7.529   9.376 -0.4560 -0.4729 -0.4806
14401SOL    HW245836   2.779   7.414   9.426 -0.9062 -0.3627  0.5435
14402SOL     OW45837   4.058   4.218   1.823 -0.4160  0.5201 -0.7187
14402SOL    HW145838   4.110   4.255   1.894 -0.1493  1.2852 -1.3046
14402SOL    HW245839   4.077   4.274   1.747 -1.3263  0.2179 -1.1841
14403SOL     OW45840   1.163   1.533   0.669  0.1246 -0.9016  0.2766
14403SOL    HW145841   1.181   1.441   0.690  0.9395 -1.4757 -2.5944
14403SOL    HW245842   1.078   1.531   0.625 -0.1772 -0.1683  0.8124
14404SOL     OW45843   1.156   3.458   7.297 -0.0361 -0.6083  0.0439
14404SOL    HW145844   1.192   3.482   7.382 -0.3482 -0.7637  0.2174
14404SOL    HW245845   1.223   3.400   7.259  0.1617 -0.4368  0.1252
14405SOL     OW45846   4.353   2.030   0.926 -0.3363  0.1260  0.1597
14405SOL    HW145847   4.416   2.041   0.855  2.8378 -0.7669  2.5945
14405SOL    HW245848   4.364   2.109   0.979  0.6952 -1.1567  1.9577
14406SOL     OW45849   5.012   5.158   5.068 -0.4167  0.0383  0.1318
14406SOL    HW145850   5.091   5.211   5.068  0.8357 -1.6928 -1.1125
14406SOL    HW245851   4.953   5.202   5.007 -0.0546  0.8469  0.3563
14407SOL     OW45852   5.403   6.597   3.438  0.1591 -1.1700  0.2196
14407SOL    HW145853   5.396   6.519   3.383 -0.9581 -1.0271  0.1395
14407SOL    HW245854   5.496   6.619   3.437  0.3972 -2.1624 -0.2264
14408SOL     OW45855   1.942   3.800   6.356 -0.3446  0.0601 -0.1563
14408SOL    HW145856   2.036   3.789   6.370 -0.0592  1.4819 -0.7872
14408SOL    HW245857   1.902   3.731   6.409  1.0438 -0.5317  0.1709
14409SOL     OW45858   6.132   6.379   0.219 -0.4929  0.1676 -0.0085
14409SOL    HW145859   6.202   6.354   0.159 -0.5920  0.7906 -0.3985
14409SOL    HW245860   6.105   6.466   0.190 -0.6655  0.4114  0.8351
14410SOL     OW45861   3.274   7.431   3.615 -0.5478 -0.1072 -0.0274
14410SOL    HW145862   3.207   7.434   3.547 -0.8627 -1.0662  0.2148
14410SOL    HW245863   3.246   7.359   3.672  0.4198 -0.1970  0.3513
14411SOL     OW45864   9.001   6.294   8.629  0.0444  0.6942 -0.3896
14411SOL    HW145865   8.919   6.341   8.616 -0.3965  0.0128 -0.0606
14411SOL    HW245866   8.979   6.202   8.619  0.5583  0.4291  0.7544
14412SOL     OW45867   8.923   8.006   3.961 -0.2684  0.4002 -0.0934
14412SOL    HW145868   8.950   8.031   3.872  0.4050 -0.2329 -0.0792
14412SOL    HW245869   8.875   7.924   3.949  1.5104 -0.7672  0.2776
14413SOL     OW45870   4.384   1.174   7.856 -0.2689 -0.4747  0.4202
14413SOL    HW145871   4.340   1.254   7.829  2.5741  1.5504  1.2594
14413SOL    HW245872   4.382   1.117   7.779 -1.2663  0.9146 -0.6223
14414SOL     OW45873   6.885   7.648   1.707  0.1155  0.1643 -0.3940
14414SOL    HW145874   6.880   7.616   1.616 -0.8221  1.1232 -0.7098
14414SOL    HW245875   6.828   7.724   1.708  1.2913  1.0634  0.6514
14415SOL     OW45876   8.709   0.060   1.931  0.3134  0.2627 -0.0995
14415SOL    HW145877   8.704   0.014   1.848 -2.6165  1.2414 -0.5825
14415SOL    HW245878   8.802   0.082   1.941  0.8720 -0.6018 -2.6731
14416SOL     OW45879   6.346   7.232   6.556 -0.1098  0.2261 -0.5056
14416SOL    HW145880   6.347   7.136   6.556  0.4914  0.2133 -1.5653
14416SOL    HW245881   6.314   7.256   6.643  1.8040 -0.9005  0.5689
14417SOL     OW45882   7.174   7.746   6.197  0.2712  0.1825  0.4103
14417SOL    HW145883   7.240   7.676   6.205  1.7728  1.2762 -1.4741
14417SOL    HW245884   7.102   7.705   6.149  1.8109  0.2147 -2.1615
14418SOL     OW45885   2.266   2.349   6.425 -0.3077  0.1227 -0.3685
14418SOL    HW145886   2.291   2.342   6.517  1.2989 -0.3364 -0.8164
14418SOL    HW245887   2.279   2.441   6.402  0.1085  0.0631 -0.3640
14419SOL     OW45888   5.859   4.621  10.258  0.1749 -0.1691 -0.1657
14419SOL    HW145889   5.770   4.646  10.282  0.7417 -0.5514  2.7048
14419SOL    HW245890   5.890   4.693  10.203 -1.6616  0.2333 -0.7679
14420SOL     OW45891   1.176   5.288   1.095 -0.1574 -0.1219 -0.1659
14420SOL    HW145892   1.219   5.275   1.011 -1.0195  1.4435 -0.8981
14420SOL    HW245893   1.246   5.279   1.160  1.1763  1.5735 -1.2677
14421SOL     OW45894   7.757   4.039   9.023  0.6735  0.4935  0.2194
14421SOL    HW145895   7.772   3.989   9.103  1.3616 -1.9502 -1.3290
14421SOL    HW245896   7.845   4.058   8.990  0.4516  3.1893  0.9385
14422SOL     OW45897   9.229   7.806   2.068  0.2339 -0.7380  0.1326
14422SOL    HW145898   9.140   7.815   2.035  0.3581  0.9408  0.1595
14422SOL    HW245899   9.277   7.878   2.027  1.5837 -1.6089  0.1225
14423SOL     OW45900   1.264   4.109   0.318  0.5386 -0.2713  0.1387
14423SOL    HW145901   1.262   4.164   0.240  1.2425  0.7152  0.7760
14423SOL    HW245902   1.251   4.171   0.391 -0.5430 -1.2244  0.7852
14424SOL     OW45903   4.250   9.986  10.047  0.3820 -0.1193 -0.5552
14424SOL    HW145904   4.331   9.946  10.014 -0.3847  0.8425 -3.9506
14424SOL    HW245905   4.240  10.067   9.996 -2.3955  0.1306  0.2133
14425SOL     OW45906   7.606   3.772   9.417 -0.4311  0.0237  0.1508
14425SOL    HW145907   7.675   3.748   9.354 -0.4226 -0.3189  0.2881
14425SOL    HW245908   7.524   3.748   9.373 -0.3569 -1.7698  0.9143
14426SOL     OW45909   0.376   2.336   1.423  0.0162 -0.2827  0.0917
14426SOL    HW145910   0.430   2.360   1.348 -0.4840 -0.5923 -0.3748
14426SOL    HW245911   0.286   2.354   1.394 -0.1058  0.9130  1.1029
14427SOL     OW45912   8.024   3.366   1.778  0.3658  0.0113 -0.2800
14427SOL    HW145913   8.115   3.341   1.764  0.2018  0.1400 -1.6389
14427SOL    HW245914   8.001   3.419   1.702 -0.6385  0.5770  0.3910
14428SOL     OW45915   3.324   4.430   7.244 -0.4237  0.7761 -0.0035
14428SOL    HW145916   3.378   4.491   7.193 -2.0032  1.6200 -0.7208
14428SOL    HW245917   3.246   4.417   7.191 -0.9418 -0.4111  1.0204
14429SOL     OW45918  10.181   1.353   3.437  0.0340  0.1176 -0.5418
14429SOL    HW145919  10.272   1.383   3.427  0.2521 -0.4937 -0.4868
14429SOL    HW245920  10.130   1.433   3.443  0.5724  0.4740 -0.5841
14430SOL     OW45921   4.235   0.956   4.381 -0.1010  0.1826 -0.1125
14430SOL    HW145922   4.306   0.934   4.441  1.2263  0.4860 -1.5027
14430SOL    HW245923   4.215   0.873   4.336 -0.1321  0.2435 -0.2133
14431SOL     OW45924   7.690   5.476   0.348  0.2272 -0.1736 -0.2877
14431SOL    HW145925   7.680   5.409   0.280 -1.8172 -1.1247  0.8795
14431SOL    HW245926   7.665   5.558   0.304  2.2086 -0.1837 -1.5676
14432SOL     OW45927   7.960   2.842   3.803  0.6880 -0.8539 -0.5273
14432SOL    HW145928   8.044   2.865   3.843  0.4099  0.1030 -0.4783
14432SOL    HW245929   7.900   2.912   3.830  0.0753 -1.0933 -1.2250
14433SOL     OW45930   5.009   0.722   3.534 -0.4235 -0.2951  0.6364
14433SOL    HW145931   5.029   0.800   3.482 -1.1502 -0.3654  0.2377
14433SOL    HW245932   5.007   0.753   3.625 -0.3532  0.0779  0.5104
14434SOL     OW45933   0.303   7.687   2.264  0.0163 -0.1515 -0.1076
14434SOL    HW145934   0.283   7.674   2.357  0.2739  0.0176 -0.0250
14434SOL    HW245935   0.232   7.645   2.217  0.3333 -0.9959  0.1574
14435SOL     OW45936   4.358   8.714   1.804 -0.4728 -0.2149  0.3867
14435SOL    HW145937   4.300   8.703   1.880 -0.2067 -1.9734  0.3821
14435SOL    HW245938   4.410   8.633   1.802  1.1768  0.8221 -0.2974
14436SOL     OW45939   0.443   2.605   0.114 -0.8148 -0.1174  0.1314
14436SOL    HW145940   0.503   2.551   0.166  0.6037 -0.1849 -1.4543
14436SOL    HW245941   0.388   2.542   0.068 -1.2010 -0.1007  0.5676
14437SOL     OW45942   9.760   3.646   4.947  0.3139  0.6932 -0.0346
14437SOL    HW145943   9.676   3.607   4.971  0.6496 -0.2544 -0.3454
14437SOL    HW245944   9.750   3.669   4.854  0.3288  0.7516 -0.0215
14438SOL     OW45945   8.647   8.530   9.271 -0.2919 -0.1816  0.1960
14438SOL    HW145946   8.692   8.561   9.193  0.1528 -0.6604  0.2588
14438SOL    HW245947   8.673   8.439   9.279  2.6141  0.6984  2.9142
14439SOL     OW45948   5.438   9.381   1.175 -0.1806  0.4234  0.3600
14439SOL    HW145949   5.349   9.406   1.196 -0.0295  0.1581  1.3509
14439SOL    HW245950   5.493   9.446   1.220  0.1420  0.0241  0.5500
14440SOL     OW45951   0.216   0.181   6.005 -0.0182  0.4715  0.0585
14440SOL    HW145952   0.135   0.222   6.036 -0.5856  0.3280 -1.1529
14440SOL    HW245953   0.239   0.231   5.926  1.0667  0.4919  0.3747
14441SOL     OW45954   9.529   4.668   4.347 -0.2412  0.0454  0.2646
14441SOL    HW145955   9.550   4.680   4.439 -1.2020 -0.9296  0.6440
14441SOL    HW245956   9.500   4.754   4.317  0.5480  0.4806  0.7369
14442SOL     OW45957   5.729   0.801   9.049 -0.3072  0.7463 -0.3177
14442SOL    HW145958   5.764   0.864   9.112 -0.1542  0.9974 -0.6479
14442SOL    HW245959   5.677   0.740   9.101  2.6323 -1.1714  0.6052
14443SOL     OW45960   2.367   1.187   0.068 -0.8560 -0.1658 -0.6501
14443SOL    HW145961   2.362   1.260   0.130 -1.4645 -0.9033  0.1909
14443SOL    HW245962   2.303   1.123   0.100  0.3426 -1.4915 -0.8037
14444SOL     OW45963   6.509   8.552   4.459  0.1224 -0.2136  0.0112
14444SOL    HW145964   6.582   8.576   4.403 -0.7135 -0.1167 -1.0583
14444SOL    HW245965   6.537   8.471   4.502  1.5734  0.7842  1.0190
14445SOL     OW45966   4.620   8.492   2.632 -0.0663  0.5149  0.7152
14445SOL    HW145967   4.586   8.439   2.704 -0.4528 -0.7089 -0.3253
14445SOL    HW245968   4.555   8.482   2.562  1.7697 -0.9468 -0.9279
14446SOL     OW45969   2.707   4.520   2.743  0.0974  0.3932 -0.5088
14446SOL    HW145970   2.740   4.439   2.703 -1.0048  0.3203 -1.2903
14446SOL    HW245971   2.783   4.579   2.742  0.8606 -0.5488 -0.1053
14447SOL     OW45972   5.487   5.011   6.575 -0.3701 -0.9588  0.3816
14447SOL    HW145973   5.576   4.982   6.556 -0.5490 -1.6744  0.6000
14447SOL    HW245974   5.497   5.095   6.620  0.1447 -0.4788 -0.6112
14448SOL     OW45975   2.694   4.665   5.259 -0.1920  0.1891  0.4537
14448SOL    HW145976   2.633   4.594   5.277  0.0834 -0.7963 -2.0733
14448SOL    HW245977   2.681   4.727   5.330 -0.8985 -2.0829  2.4113
14449SOL     OW45978   7.944   3.134   9.986 -0.4692  0.3680  0.0389
14449SOL    HW145979   8.025   3.172  10.021  1.0200 -2.2811 -0.2771
14449SOL    HW245980   7.942   3.045  10.021 -1.8602 -0.5121 -2.0742
14450SOL     OW45981   9.090   5.486   9.986 -0.0339  0.4810 -0.0139
14450SOL    HW145982   9.076   5.404  10.033  0.2173  0.1106 -0.5745
14450SOL    HW245983   9.030   5.548  10.027 -0.6989 -0.1499 -0.0127
14451SOL     OW45984   9.507   6.661   8.471  0.3772  0.2257 -0.5340
14451SOL    HW145985   9.541   6.750   8.464  3.7244 -0.6064  2.4371
14451SOL    HW245986   9.555   6.611   8.406  1.6299 -0.0938  0.5886
14452SOL     OW45987   5.038   2.735   7.552 -0.2972 -0.2988  0.0338
14452SOL    HW145988   5.062   2.721   7.460 -1.5434 -0.5065 -0.2873
14452SOL    HW245989   4.947   2.704   7.557 -0.6954  0.9565  1.0152
14453SOL     OW45990   3.221   8.283   7.401  0.2941 -0.6448  0.0109
14453SOL    HW145991   3.236   8.267   7.308  0.3228 -0.2984 -0.0450
14453SOL    HW245992   3.210   8.196   7.439 -1.0854 -0.7506 -0.5545
14454SOL     OW45993   3.512   6.561   0.227 -0.2306  0.4751  0.3094
14454SOL    HW145994   3.507   6.475   0.185  1.1641  0.0977  0.8761
14454SOL    HW245995   3.422   6.579   0.255 -0.3645 -1.2723  1.1183
14455SOL     OW45996   2.131   2.646   3.631 -0.6652 -0.6011 -0.6079
14455SOL    HW145997   2.174   2.567   3.599  0.1858  0.1884 -1.5201
14455SOL    HW245998   2.054   2.656   3.575  0.1581  0.1104 -1.6761
14456SOL     OW45999   0.524   0.472   8.067  0.6186  0.1504  0.0229
14456SOL    HW146000   0.562   0.559   8.071 -1.8755  1.3472 -0.2214
14456SOL    HW246001   0.541   0.442   7.978  0.7371  0.7580 -0.1614
14457SOL     OW46002   5.432   6.002   7.443 -0.0872 -0.0205  0.4414
14457SOL    HW146003   5.419   5.956   7.526 -0.0497 -2.2322 -0.6987
14457SOL    HW246004   5.390   5.946   7.378  0.1766  1.4780 -1.1044
14458SOL     OW46005   2.861   4.117   1.294 -0.7924  0.2742 -0.0061
14458SOL    HW146006   2.946   4.104   1.252 -0.3518  2.8486 -0.0613
14458SOL    HW246007   2.799   4.117   1.222 -0.3443  2.1500 -0.4305
14459SOL     OW46008   2.891   8.556   3.591 -0.0598  0.2725  0.4210
14459SOL    HW146009   2.835   8.595   3.659 -0.2203  0.4069  0.2154
14459SOL    HW246010   2.964   8.617   3.584 -1.5548  1.9753 -1.7064
14460SOL     OW46011   5.780   2.242   5.914 -0.1091  0.1163  0.1821
14460SOL    HW146012   5.701   2.295   5.913  0.6390  1.2717  0.0356
14460SOL    HW246013   5.828   2.268   5.836  1.5341  1.2478  1.4920
14461SOL     OW46014   5.594   5.890   7.721  0.8053 -0.4249 -0.2623
14461SOL    HW146015   5.602   5.937   7.804  2.2526 -1.8922  0.4923
14461SOL    HW246016   5.561   5.804   7.745 -0.8987 -0.1771 -1.5136
14462SOL     OW46017   2.230  10.102   3.119  0.2025  0.4159  0.4767
14462SOL    HW146018   2.254  10.110   3.027 -2.0524  2.0936 -0.0474
14462SOL    HW246019   2.292  10.160   3.165  1.0177 -0.0511 -0.0071
14463SOL     OW46020   7.151   3.288   2.534  0.5849  0.2073  0.0143
14463SOL    HW146021   7.194   3.372   2.552  0.8924  0.6871 -2.5169
14463SOL    HW246022   7.221   3.232   2.499  0.2096 -0.8488  0.8812
14464SOL     OW46023   9.337   2.749   3.048  0.2927  0.5223  0.1450
14464SOL    HW146024   9.365   2.665   3.084  2.6346  1.3751  0.4650
14464SOL    HW246025   9.384   2.814   3.100  0.8594  1.9096 -1.9854
14465SOL     OW46026   0.070   1.173   6.871  0.3645 -0.6474  0.6577
14465SOL    HW146027  -0.024   1.182   6.888  0.5434  0.2368  1.2429
14465SOL    HW246028   0.075   1.122   6.791 -0.6874  1.2400 -0.6845
14466SOL     OW46029   2.225   1.832   7.946 -0.0117 -0.4888  0.6041
14466SOL    HW146030   2.258   1.793   7.865  1.1090 -0.3980  1.0021
14466SOL    HW246031   2.283   1.799   8.015 -0.7662 -0.3308  1.3335
14467SOL     OW46032   7.610   0.290   3.643 -0.3507  0.3280  0.1223
14467SOL    HW146033   7.590   0.202   3.675 -2.1260  0.8956  0.6980
14467SOL    HW246034   7.593   0.285   3.549 -0.2151 -0.0175  0.1149
14468SOL     OW46035   8.777   3.146   4.423 -0.2487 -0.3493  0.1253
14468SOL    HW146036   8.808   3.225   4.467  1.1878 -0.6718 -0.2373
14468SOL    HW246037   8.762   3.173   4.333  2.2714 -0.8621 -0.5460
14469SOL     OW46038   5.936   0.636   2.930  0.4816  0.2519 -0.1569
14469SOL    HW146039   6.006   0.609   2.870  0.4367  2.7605 -1.4494
14469SOL    HW246040   5.859   0.587   2.900  0.7385  0.5866 -1.4543
14470SOL     OW46041   8.083   6.155   8.219  1.1496 -0.2146 -0.1069
14470SOL    HW146042   8.167   6.118   8.192  0.2316 -1.5343 -1.2812
14470SOL    HW246043   8.032   6.162   8.138 -0.0305  0.1147  0.6350
14471SOL     OW46044   7.906   0.733   0.061 -0.0407 -0.2851 -0.1660
14471SOL    HW146045   7.928   0.682   0.138  1.2590 -1.5628 -1.3228
14471SOL    HW246046   7.987   0.734   0.009 -0.8444  0.6282 -1.4612
14472SOL     OW46047   7.977   8.645   0.020  0.2876 -0.4745  0.2100
14472SOL    HW146048   7.899   8.671  -0.029  0.3100  0.7401  0.7712
14472SOL    HW246049   8.036   8.609  -0.046 -0.5122 -0.8609 -0.3138
14473SOL     OW46050   3.869   4.727   7.593 -0.3041 -0.0882  0.0341
14473SOL    HW146051   3.853   4.633   7.583 -1.1464  0.0414  0.1290
14473SOL    HW246052   3.963   4.737   7.578  0.3039 -1.2899  2.4667
14474SOL     OW46053   1.539   9.368   0.763 -0.6047 -0.5250  0.7730
14474SOL    HW146054   1.474   9.299   0.767  0.5951 -1.6435  1.4364
14474SOL    HW246055   1.583   9.355   0.679 -0.6772 -0.2683  0.6914
14475SOL     OW46056   1.458   5.166   4.332  0.3699  0.4208 -0.0151
14475SOL    HW146057   1.407   5.163   4.414 -1.5143 -0.9986 -1.1487
14475SOL    HW246058   1.491   5.077   4.322  0.4099  0.5273 -0.8796
14476SOL     OW46059   5.471   6.172   9.504  0.3738 -0.1940  0.5400
14476SOL    HW146060   5.426   6.216   9.432  0.2499  0.6502  1.1296
14476SOL    HW246061   5.494   6.241   9.565  1.8815 -0.6918  0.5868
14477SOL     OW46062   1.909   6.396   7.707  0.2215 -0.4579  0.0596
14477SOL    HW146063   1.916   6.491   7.711 -0.2944 -0.3725 -0.7731
14477SOL    HW246064   1.995   6.365   7.734  0.0272  0.1914  1.5624
14478SOL     OW46065   8.946   8.484   8.889  0.1526 -0.4079 -0.1140
14478SOL    HW146066   8.975   8.424   8.819 -1.0527 -1.4774  0.2775
14478SOL    HW246067   9.022   8.492   8.946 -0.2246 -3.2313  0.9346
14479SOL     OW46068   4.139   0.899   2.867 -0.6927 -0.3791  0.3114
14479SOL    HW146069   4.107   0.816   2.834 -0.2509  0.0975 -1.4649
14479SOL    HW246070   4.137   0.890   2.962  0.7736 -2.9694  0.1886
14480SOL     OW46071   8.814   9.091   9.003 -0.4842  0.6695  0.0706
14480SOL    HW146072   8.738   9.035   9.021  0.4538 -0.5544  0.4204
14480SOL    HW246073   8.780   9.180   9.006 -2.2602  0.1266 -1.4957
14481SOL     OW46074   0.731   7.264   9.999 -0.0431 -0.0067  0.0642
14481SOL    HW146075   0.705   7.347  10.040 -0.8643 -0.6759  0.9371
14481SOL    HW246076   0.652   7.236   9.952 -0.3178 -1.0950  1.1307
14482SOL     OW46077   8.392   8.874   5.392 -0.0886 -0.2337 -0.3496
14482SOL    HW146078   8.371   8.784   5.419 -0.1349 -0.0523  0.2152
14482SOL    HW246079   8.415   8.865   5.299 -2.8805 -0.4312 -1.1309
14483SOL     OW46080   4.955   4.750   0.112 -0.4394 -0.0832 -0.1736
14483SOL    HW146081   5.028   4.792   0.157  0.8334 -0.8241 -1.4691
14483SOL    HW246082   4.877   4.786   0.154  0.6316 -0.8764  2.7834
14484SOL     OW46083   3.753   7.099   8.538  0.3447  0.6935  0.0409
14484SOL    HW146084   3.782   7.177   8.491 -0.6697  1.2679  0.3513
14484SOL    HW246085   3.774   7.117   8.630  0.3758  0.4646  0.0808
14485SOL     OW46086   4.056   9.205   2.131 -0.1505  0.3884  0.0856
14485SOL    HW146087   4.071   9.167   2.045 -0.5123  1.8064 -0.6399
14485SOL    HW246088   4.117   9.279   2.136  0.1606  0.0757  1.2238
14486SOL     OW46089   0.605   3.656   3.115  0.3157  0.2041 -0.4363
14486SOL    HW146090   0.678   3.598   3.136  0.6309 -0.3984 -2.9203
14486SOL    HW246091   0.533   3.597   3.093 -1.0062  0.7843  1.9480
14487SOL     OW46092  10.258   9.373   0.251  0.0459  0.5076  0.0521
14487SOL    HW146093  10.198   9.437   0.213  1.0669  1.3127 -0.2522
14487SOL    HW246094  10.289   9.414   0.332  2.2077  1.3367 -1.0990
14488SOL     OW46095   3.626   1.951   4.894 -0.0576  0.0968  0.3164
14488SOL    HW146096   3.676   1.883   4.849 -0.3743 -0.4545  0.7917
14488SOL    HW246097   3.690   2.020   4.910  0.1685  0.1121 -0.5557
14489SOL     OW46098   5.146   7.318   1.673  0.2411 -0.0448 -0.5774
14489SOL    HW146099   5.094   7.282   1.601  0.4741  1.4569 -1.5301
14489SOL    HW246100   5.177   7.403   1.641  2.8741 -0.6353  0.1338
14490SOL     OW46101   9.072   4.966   9.413 -0.4207 -0.1182 -0.0968
14490SOL    HW146102   9.035   5.022   9.481 -1.1875 -1.5564  0.7035
14490SOL    HW246103   9.104   4.889   9.459  0.9375 -0.2070 -1.1386
14491SOL     OW46104   7.892   5.184   5.235 -0.3739  0.2417  0.0851
14491SOL    HW146105   7.961   5.120   5.220  0.4706  1.1492  0.0455
14491SOL    HW246106   7.852   5.196   5.148 -1.0557 -0.7728  0.2280
14492SOL     OW46107   7.569   9.280   5.692  0.0424  0.0864 -0.7797
14492SOL    HW146108   7.536   9.221   5.624 -0.2327  0.7919 -1.2707
14492SOL    HW246109   7.514   9.261   5.768  0.8264 -1.2199 -0.5132
14493SOL     OW46110   8.411   3.889   8.455 -0.3025 -0.3198 -0.6346
14493SOL    HW146111   8.414   3.793   8.448  1.8328 -0.2633 -1.0009
14493SOL    HW246112   8.421   3.920   8.366 -0.5480  0.2658 -0.4613
14494SOL     OW46113   4.332   9.943   5.816  0.0624  0.0036 -0.0548
14494SOL    HW146114   4.403   9.959   5.879 -0.2890  0.5956  0.2016
14494SOL    HW246115   4.279   9.874   5.857  0.8369 -0.9105 -0.5451
14495SOL     OW46116  10.062   5.352   0.096 -0.4367 -0.2002  0.8585
14495SOL    HW146117  10.133   5.365   0.159  1.2155 -1.4259 -0.6463
14495SOL    HW246118  10.033   5.262   0.111  0.4835 -0.7649 -0.5517
14496SOL     OW46119   7.276  10.020   3.844  0.6463 -0.2808  0.3646
14496SOL    HW146120   7.336   9.987   3.777  0.9424 -0.3107  0.6472
14496SOL    HW246121   7.213   9.948   3.856 -0.5842  0.4479 -1.2842
14497SOL     OW46122   7.984   3.165   2.398  0.8934 -0.6544  0.3490
14497SOL    HW146123   8.076   3.155   2.421  1.9329 -1.0898 -3.4051
14497SOL    HW246124   7.973   3.258   2.379  0.5591 -0.6228  0.6740
14498SOL     OW46125   1.955   6.353  10.060 -0.1464 -0.3798 -0.3154
14498SOL    HW146126   2.003   6.291  10.115 -0.4735 -0.2936  0.0705
14498SOL    HW246127   1.863   6.335  10.078 -0.2617  1.0181  0.7374
14499SOL     OW46128   6.129   7.297   1.056 -0.0034 -0.7406  0.2814
14499SOL    HW146129   6.050   7.308   1.004  0.6887 -1.1776 -0.8923
14499SOL    HW246130   6.140   7.203   1.063  0.3031 -0.6818  0.6335
14500SOL     OW46131   2.449   4.734  10.204  0.3011  0.4597  0.2299
14500SOL    HW146132   2.535   4.740  10.246  0.5603  2.8682 -0.4803
14500SOL    HW246133   2.400   4.672  10.258  1.4850  1.3860  2.4956
14501SOL     OW46134   6.493   0.827   5.922 -0.0649  0.0034  0.4415
14501SOL    HW146135   6.515   0.889   5.992 -0.4314 -0.9316  1.4221
14501SOL    HW246136   6.413   0.784   5.953 -0.6064  0.0232 -0.8701
14502SOL     OW46137   5.574   8.760   5.155  0.4889  0.9137  0.1023
14502SOL    HW146138   5.535   8.714   5.080  1.0362 -0.2289  0.4847
14502SOL    HW246139   5.536   8.848   5.152 -2.4110 -0.1819  0.6413
14503SOL     OW46140   2.636   4.723   1.793 -0.2554 -0.1246  0.0095
14503SOL    HW146141   2.686   4.664   1.737  1.1716 -0.6751  1.7624
14503SOL    HW246142   2.608   4.668   1.867 -0.8148  0.8972  0.5895
14504SOL     OW46143   0.330   6.668   5.574 -0.4414  0.3955  0.4004
14504SOL    HW146144   0.392   6.720   5.626  1.0690  1.1728 -2.0518
14504SOL    HW246145   0.354   6.577   5.592  0.3516  0.6592  0.7320
14505SOL     OW46146   9.470   2.671   9.394  0.0094  0.5743  0.1813
14505SOL    HW146147   9.426   2.746   9.433  0.9156  2.6327 -2.4337
14505SOL    HW246148   9.417   2.649   9.317  0.5728 -0.4758  0.0707
14506SOL     OW46149   5.365   3.199   8.849  0.0094  0.5519  0.6067
14506SOL    HW146150   5.428   3.176   8.918 -0.3467  0.3459  0.8664
14506SOL    HW246151   5.419   3.231   8.777  0.3809  0.9768  1.0602
14507SOL     OW46152   9.285   3.269   7.902  0.2648 -0.0917 -0.0615
14507SOL    HW146153   9.347   3.197   7.914  0.4608  0.0765 -0.0671
14507SOL    HW246154   9.299   3.325   7.979 -0.8731 -0.7930  0.6887
14508SOL     OW46155   9.082   6.200   7.302 -0.3251 -0.0092 -0.2744
14508SOL    HW146156   9.097   6.187   7.396  0.1392  2.1777 -0.0067
14508SOL    HW246157   9.125   6.125   7.261  1.1603 -0.0142  1.1670
14509SOL     OW46158   0.795   9.865   6.815 -0.4889  0.2496 -0.2173
14509SOL    HW146159   0.764   9.912   6.892  2.1247  0.3694  0.8324
14509SOL    HW246160   0.889   9.854   6.828 -0.5510 -3.1714 -1.5450
14510SOL     OW46161   7.129   1.701   6.156  0.0330  0.1324  0.0778
14510SOL    HW146162   7.061   1.635   6.142 -0.3499 -0.5855  4.0720
14510SOL    HW246163   7.177   1.704   6.074 -1.1407 -3.7164 -0.9650
14511SOL     OW46164   5.770   7.206   4.893  0.4000  0.5647  0.1844
14511SOL    HW146165   5.792   7.202   4.986  0.3263  0.6450  0.2052
14511SOL    HW246166   5.838   7.155   4.849 -0.4390 -0.8345  0.4384
14512SOL     OW46167   8.399  10.128   7.962 -0.2701  0.7787  0.6258
14512SOL    HW146168   8.336  10.057   7.974  2.7145 -2.1329  0.5790
14512SOL    HW246169   8.434  10.144   8.050  2.1085 -1.0008  0.0953
14513SOL     OW46170   4.480   4.684   6.522  0.0535 -0.0147 -0.1378
14513SOL    HW146171   4.410   4.732   6.477  1.6330  1.6351 -0.9735
14513SOL    HW246172   4.525   4.751   6.573  1.6013 -0.8464 -0.3570
14514SOL     OW46173   4.747   1.592   0.024 -0.1558 -0.0017 -0.2523
14514SOL    HW146174   4.664   1.579  -0.022 -0.8859 -3.1084  1.6014
14514SOL    HW246175   4.813   1.580  -0.044 -1.2010 -0.6132 -1.2143
14515SOL     OW46176   2.546   2.889   7.249 -0.2665 -0.1172  0.2728
14515SOL    HW146177   2.565   2.982   7.261 -0.4989  0.0515 -0.6005
14515SOL    HW246178   2.546   2.877   7.154  1.6993 -1.4116  0.3804
14516SOL     OW46179   5.099   9.326   3.293  0.1876 -0.0280  0.6561
14516SOL    HW146180   5.021   9.273   3.312 -0.0451 -1.3861 -3.1499
14516SOL    HW246181   5.172   9.264   3.303  0.0533 -0.8003 -2.2521
14517SOL     OW46182   1.884   9.327   5.635 -0.4117 -0.1790  0.4774
14517SOL    HW146183   1.864   9.241   5.674  0.7337 -0.0986  1.2672
14517SOL    HW246184   1.906   9.383   5.709 -2.6390  1.2803  0.1398
14518SOL     OW46185   8.928   6.689   7.309  0.3246  0.0508  0.0353
14518SOL    HW146186   8.947   6.648   7.224 -0.5026  1.6399 -0.9509
14518SOL    HW246187   9.010   6.680   7.358  0.9037 -0.6508 -1.0126
14519SOL     OW46188  10.170  10.266  10.277  0.4220  0.1426 -0.1225
14519SOL    HW146189  10.256  10.277  10.237  1.1634 -1.7976  0.7853
14519SOL    HW246190  10.130  10.194  10.227 -1.2914  1.8700 -1.4082
14520SOL     OW46191   5.081   9.871   5.596  0.1956 -0.3870 -0.1617
14520SOL    HW146192   5.087   9.809   5.669 -0.0502 -0.7550 -0.4499
14520SOL    HW246193   5.008   9.838   5.543  1.1169 -0.8072 -1.2020
14521SOL     OW46194   8.110   5.581   5.189 -0.2463  0.0717  0.0379
14521SOL    HW146195   8.114   5.606   5.282 -3.0260  0.8388  0.0575
14521SOL    HW246196   8.130   5.488   5.188 -0.0590  0.0753  1.4018
14522SOL     OW46197   7.618   0.912   9.872  0.1353  0.3410  0.2351
14522SOL    HW146198   7.709   0.936   9.889  0.0951  1.4056 -0.9355
14522SOL    HW246199   7.593   0.861   9.949  2.2800 -1.6262 -0.2649
14523SOL     OW46200   4.621   1.111  10.209 -0.1410  0.2621  0.1573
14523SOL    HW146201   4.716   1.113  10.204 -0.0876 -2.0673 -1.2604
14523SOL    HW246202   4.601   1.037  10.266 -1.0806 -0.0179 -0.5000
14524SOL     OW46203  10.031   6.375   6.769  0.7492 -0.7350  0.0644
14524SOL    HW146204  10.052   6.313   6.839  1.5701 -0.8374 -0.2534
14524SOL    HW246205  10.116   6.393   6.728  0.5857  0.9429  0.4276
14525SOL     OW46206   8.452   2.137   7.913  0.3460 -0.0285 -0.2998
14525SOL    HW146207   8.504   2.206   7.871 -2.4817  2.6060  0.1830
14525SOL    HW246208   8.451   2.161   8.006 -1.3285 -0.2267 -0.2367
14526SOL     OW46209   1.105   1.893   7.265  0.6483  0.1901 -0.2609
14526SOL    HW146210   1.045   1.859   7.199  1.9153 -1.4702 -0.6330
14526SOL    HW246211   1.190   1.899   7.219  1.0236  1.4736  0.5302
14527SOL     OW46212   7.567   0.872   4.534  0.2881  0.2266 -0.1735
14527SOL    HW146213   7.504   0.810   4.568 -1.9387  1.2808 -2.0925
14527SOL    HW246214   7.588   0.841   4.446  3.0089 -0.4161  0.5869
14528SOL     OW46215   6.482  10.263   2.782 -0.0738 -0.1996 -0.4582
14528SOL    HW146216   6.495  10.331   2.848  1.6905 -0.0247 -0.9339
14528SOL    HW246217   6.494  10.181   2.830  0.1659 -0.1030 -0.3494
14529SOL     OW46218   6.228   0.005   9.422  0.1720 -0.6041 -0.2239
14529SOL    HW146219   6.195  -0.057   9.486 -1.2895  0.4522  0.1161
14529SOL    HW246220   6.196  -0.027   9.338 -0.3631 -0.4539 -0.0784
14530SOL     OW46221   8.521   5.973   7.083 -0.0586 -0.2119 -0.3266
14530SOL    HW146222   8.498   5.882   7.102  0.1309 -0.5592 -1.6439
14530SOL    HW246223   8.518   6.017   7.168  1.2839 -1.7622  0.5906
14531SOL     OW46224   7.479   0.050   6.961  0.3005  0.1817  0.2974
14531SOL    HW146225   7.465   0.134   7.005 -1.4310  0.4232 -0.6199
14531SOL    HW246226   7.418  -0.010   7.003  3.2079 -1.3732  2.6419
14532SOL     OW46227   2.307   7.496   3.898  0.2205 -0.0836 -0.2641
14532SOL    HW146228   2.340   7.520   3.985  0.6212  0.4402 -0.5522
14532SOL    HW246229   2.212   7.505   3.905  0.3037  0.7853 -0.1174
14533SOL     OW46230   2.800   9.482   2.977 -0.3641  0.1188 -0.1944
14533SOL    HW146231   2.817   9.452   3.066  0.2722  1.6967  0.2674
14533SOL    HW246232   2.884   9.517   2.948 -1.2233  2.2400 -0.2999
14534SOL     OW46233   8.858   7.529   7.410 -0.3377 -0.5795  0.3288
14534SOL    HW146234   8.942   7.487   7.425  0.3155  0.0852 -1.2567
14534SOL    HW246235   8.799   7.458   7.384  0.3125 -0.7693 -0.6802
14535SOL     OW46236   7.122   9.737   8.113  0.0793 -0.1655  0.2103
14535SOL    HW146237   7.159   9.803   8.055 -0.2041  0.0429  0.2669
14535SOL    HW246238   7.032   9.765   8.128  0.0738 -0.3563  0.5452
14536SOL     OW46239   6.620   2.183   4.942 -0.0691  0.2302 -0.2223
14536SOL    HW146240   6.698   2.219   4.899 -0.4570  0.2821 -0.8910
14536SOL    HW246241   6.640   2.090   4.954 -0.4705 -0.0890 -1.7500
14537SOL     OW46242   3.181   1.457   1.413  0.0873 -0.2485 -0.2915
14537SOL    HW146243   3.209   1.370   1.385 -1.1821 -1.0622  0.8279
14537SOL    HW246244   3.087   1.459   1.395 -0.2482  0.1973  1.3259
14538SOL     OW46245   5.457   7.159   1.854  0.1493 -0.2959  0.1990
14538SOL    HW146246   5.510   7.121   1.924 -0.4840  0.1932  0.9667
14538SOL    HW246247   5.388   7.207   1.900 -0.6901 -0.5449 -0.7778
14539SOL     OW46248   0.266   5.885   5.519  0.1245 -0.0352 -0.3694
14539SOL    HW146249   0.329   5.829   5.472 -1.1981 -0.3458 -1.8298
14539SOL    HW246250   0.215   5.823   5.572 -0.3468 -0.0548 -0.8356
14540SOL     OW46251   6.005   4.670   9.010 -0.1367 -0.4182 -0.2127
14540SOL    HW146252   6.018   4.628   9.095 -0.9329 -0.2541  0.0033
14540SOL    HW246253   6.083   4.723   8.997 -0.9351  1.2751  1.4455
14541SOL     OW46254   1.142   4.482   3.357 -0.0999  0.1405  0.5912
14541SOL    HW146255   1.096   4.486   3.273 -0.9046 -0.9725  0.9569
14541SOL    HW246256   1.233   4.462   3.333 -0.5931 -1.6392  0.0080
14542SOL     OW46257   7.271   2.677   7.594  0.5679 -0.3594  0.0768
14542SOL    HW146258   7.276   2.593   7.549  1.3915 -0.8559  1.0257
14542SOL    HW246259   7.197   2.722   7.555  0.1901 -1.4820 -0.5385
14543SOL     OW46260   3.465   4.585   8.952 -0.0171  0.2472 -0.5523
14543SOL    HW146261   3.443   4.492   8.947 -0.8947  0.3486  0.8162
14543SOL    HW246262   3.560   4.588   8.951  0.1022 -0.8699  1.5454
14544SOL     OW46263  10.183   9.958   4.400  0.0284  0.1270 -0.2621
14544SOL    HW146264  10.277   9.944   4.407 -0.3567 -2.8590  0.3998
14544SOL    HW246265  10.166   9.964   4.306  0.8890  0.9659 -0.3728
14545SOL     OW46266   7.554   3.351   8.003 -0.4495  0.2088 -0.1120
14545SOL    HW146267   7.580   3.385   7.917 -1.7290 -0.1913 -0.6814
14545SOL    HW246268   7.519   3.264   7.985 -0.6483  0.0836  0.8292
14546SOL     OW46269   9.399   7.277   9.258 -0.0693 -0.1551 -0.3152
14546SOL    HW146270   9.456   7.320   9.322 -0.9815  0.9843 -0.2357
14546SOL    HW246271   9.437   7.189   9.248  1.3012  0.3400  0.2215
14547SOL     OW46272   9.414   9.638   3.907 -0.3047  0.1742 -0.3444
14547SOL    HW146273   9.329   9.610   3.873 -0.3123  0.7220 -0.8077
14547SOL    HW246274   9.416   9.608   3.997 -0.0497 -1.8429 -0.9820
14548SOL     OW46275   4.145   7.377   0.706 -0.0602  0.0713 -0.2861
14548SOL    HW146276   4.219   7.412   0.657 -1.0248  1.0839 -1.0445
14548SOL    HW246277   4.068   7.410   0.661 -1.0152  2.0034  2.5400
14549SOL     OW46278   2.116   8.650   4.513 -0.1089  0.0483 -0.4506
14549SOL    HW146279   2.180   8.637   4.583  0.3504 -1.4871 -1.1145
14549SOL    HW246280   2.138   8.736   4.476 -0.3452  0.8615  1.2392
14550SOL     OW46281   1.515   6.330   0.251  0.4164  0.3521 -0.2468
14550SOL    HW146282   1.445   6.290   0.303  1.4366  0.0459  0.9587
14550SOL    HW246283   1.475   6.408   0.213  0.0408  1.6063  2.4612
14551SOL     OW46284   5.608   5.164   9.985  0.7044 -0.5259 -0.0605
14551SOL    HW146285   5.592   5.104  10.059 -0.2579 -1.3774 -0.9311
14551SOL    HW246286   5.555   5.241  10.006  0.5951 -0.6772  0.2429
14552SOL     OW46287   1.098   4.372   7.362  0.0944 -0.0902 -0.3910
14552SOL    HW146288   1.047   4.340   7.288 -1.1387 -1.8118  1.1172
14552SOL    HW246289   1.038   4.369   7.436  2.1321 -1.4725  1.3324
14553SOL     OW46290   1.341   2.241   0.438  0.4269  0.4885  0.2693
14553SOL    HW146291   1.409   2.234   0.371 -0.0175  0.1002 -0.1415
14553SOL    HW246292   1.330   2.152   0.471 -0.0350  0.5089  0.1785
14554SOL     OW46293   2.222   0.502   1.232 -0.1017  0.0713 -0.1126
14554SOL    HW146294   2.219   0.410   1.205  0.8975  0.2139 -0.7537
14554SOL    HW246295   2.130   0.525   1.249 -0.3240 -1.1388  0.4282
14555SOL     OW46296   8.063   7.009  10.045  0.0255 -0.5061  0.5630
14555SOL    HW146297   8.015   7.047  10.118  0.8477  1.5365  0.1139
14555SOL    HW246298   8.154   7.033  10.060  0.2527 -0.2619 -0.9683
14556SOL     OW46299   9.058   5.609   9.726 -0.1413 -0.1147 -0.3127
14556SOL    HW146300   8.995   5.539   9.709  0.5568 -0.5748 -1.1307
14556SOL    HW246301   9.098   5.585   9.810 -2.7643  1.5171  1.5243
14557SOL     OW46302   4.870   5.622   3.838  0.0219  0.1952 -0.5512
14557SOL    HW146303   4.828   5.536   3.829  2.1240 -1.0313  0.4449
14557SOL    HW246304   4.807   5.674   3.888 -0.7020 -1.2594  0.1312
14558SOL     OW46305   1.785   1.353   8.629 -0.1227 -0.1165  0.1284
14558SOL    HW146306   1.757   1.293   8.559  0.1067  1.3987 -1.3324
14558SOL    HW246307   1.863   1.395   8.594  0.7485 -0.2348  1.8538
14559SOL     OW46308   6.239   7.590   8.088  0.0264  0.5533 -0.5434
14559SOL    HW146309   6.215   7.505   8.050  0.2650 -0.2092  0.9160
14559SOL    HW246310   6.274   7.568   8.174  0.5156  2.1174 -0.3122
14560SOL     OW46311   2.790   0.265   7.981  0.0338  0.5486 -0.1867
14560SOL    HW146312   2.789   0.288   8.074  0.2357  1.4092 -0.3939
14560SOL    HW246313   2.716   0.312   7.943 -0.3137 -0.1477 -0.3850
14561SOL     OW46314   3.083   6.862   5.214 -0.1509 -0.0503  0.6228
14561SOL    HW146315   3.127   6.813   5.144 -0.9929  1.5700 -1.1337
14561SOL    HW246316   2.990   6.843   5.201 -0.3824  0.9852  0.6992
14562SOL     OW46317   7.791   1.346   3.237  0.0109  0.4863 -0.2069
14562SOL    HW146318   7.787   1.393   3.320  2.2991  1.4086 -0.5335
14562SOL    HW246319   7.814   1.256   3.261 -1.7882  0.1223  0.2646
14563SOL     OW46320   2.540   3.408   9.824 -0.0622  0.0220  0.4027
14563SOL    HW146321   2.512   3.349   9.755  1.9476  1.8357 -2.1798
14563SOL    HW246322   2.461   3.456   9.849 -0.6754  0.0203 -1.4239
14564SOL     OW46323   6.110   6.135   8.700 -0.4403 -0.1651 -0.7025
14564SOL    HW146324   6.180   6.072   8.712 -1.2072 -0.9645 -0.3032
14564SOL    HW246325   6.090   6.132   8.607 -0.4032 -0.4258 -0.7004
14565SOL     OW46326   5.628   5.475   7.627  0.5779  0.3287  0.7569
14565SOL    HW146327   5.625   5.404   7.562  2.8517  0.9949 -0.1984
14565SOL    HW246328   5.537   5.501   7.638 -0.1654 -1.7044 -0.0122
14566SOL     OW46329   3.513   6.795   7.081 -0.2281 -0.5372  0.6530
14566SOL    HW146330   3.465   6.755   7.008 -2.1606  1.1655  0.8934
14566SOL    HW246331   3.451   6.859   7.118  1.1973 -0.3643  2.9135
14567SOL     OW46332   5.115   7.204   5.352 -0.8071  0.5330 -0.2719
14567SOL    HW146333   5.081   7.293   5.362 -0.5507  0.6149 -0.1168
14567SOL    HW246334   5.182   7.197   5.420 -2.1659 -0.4345  1.0462
14568SOL     OW46335   3.451   0.920   2.534  0.4629 -0.1347  0.0276
14568SOL    HW146336   3.519   0.978   2.498 -0.3848  1.2943  0.6360
14568SOL    HW246337   3.430   0.959   2.619 -0.1767 -1.3376  0.4383
14569SOL     OW46338   6.098   2.652   4.628  0.3236 -0.4111  0.4331
14569SOL    HW146339   6.182   2.668   4.671  0.0966 -0.9271  1.0787
14569SOL    HW246340   6.121   2.600   4.551  0.6789  0.1129  0.1779
14570SOL     OW46341   4.530   0.556   8.430 -0.1936  0.1211 -0.1658
14570SOL    HW146342   4.453   0.612   8.424  0.1315  0.5757 -0.1351
14570SOL    HW246343   4.591   0.604   8.485  0.3525  0.0484 -0.6918
14571SOL     OW46344   8.575   9.010   6.078 -0.0842 -0.2179  0.1700
14571SOL    HW146345   8.663   9.039   6.101  0.4527 -0.0239 -1.9186
14571SOL    HW246346   8.587   8.920   6.047 -0.9175 -0.8226  1.5034
14572SOL     OW46347   1.318   0.851   5.519 -0.1985  0.2840 -0.3309
14572SOL    HW146348   1.253   0.790   5.483  0.2491 -0.3461 -0.0788
14572SOL    HW246349   1.271   0.934   5.524 -0.4541  0.2497 -1.7902
14573SOL     OW46350   9.725   0.977   4.180  0.2729 -0.1275  0.3249
14573SOL    HW146351   9.726   1.057   4.128 -1.1850  1.0174  1.9668
14573SOL    HW246352   9.633   0.963   4.201  0.5137 -2.1695  0.2500
14574SOL     OW46353   5.243   0.003   6.735  0.3916 -0.7414  0.4019
14574SOL    HW146354   5.213  -0.055   6.665  2.2034 -0.7542 -0.4210
14574SOL    HW246355   5.331  -0.028   6.756 -0.1485 -0.8742  2.8878
14575SOL     OW46356   8.368   0.500   0.727 -0.4262  0.2352  0.8289
14575SOL    HW146357   8.443   0.444   0.709  1.0453  1.7400  2.0139
14575SOL    HW246358   8.373   0.570   0.662 -2.8594 -1.4011 -1.3375
14576SOL     OW46359   9.572   3.677   7.755 -0.2147  0.0080  0.5370
14576SOL    HW146360   9.634   3.659   7.684 -1.7000 -0.5180 -0.6883
14576SOL    HW246361   9.560   3.593   7.799 -0.5793 -0.0511  0.3276
14577SOL     OW46362   4.022   4.385   9.684  0.0968 -0.0595 -0.5507
14577SOL    HW146363   3.942   4.333   9.675  1.8960 -2.8284 -2.3575
14577SOL    HW246364   4.078   4.354   9.613  3.0845  1.1776  1.0856
14578SOL     OW46365   2.046   9.717   6.429 -0.1727  0.0701  0.3460
14578SOL    HW146366   1.953   9.730   6.410 -0.1034  0.1154  0.0440
14578SOL    HW246367   2.073   9.647   6.370  0.3585  1.1025 -0.6687
14579SOL     OW46368   2.144   8.521   0.599 -0.8135  0.3861  0.5398
14579SOL    HW146369   2.194   8.487   0.525 -1.1273 -2.1772  1.3772
14579SOL    HW246370   2.103   8.601   0.567  0.7259  0.4695 -1.3619
14580SOL     OW46371   9.308   6.934   3.773  0.6024 -0.8449 -0.3231
14580SOL    HW146372   9.381   6.991   3.800 -0.3267  0.2109  0.0364
14580SOL    HW246373   9.306   6.865   3.839  0.7316 -0.3898  0.1644
14581SOL     OW46374   6.014   7.887   1.745  0.3843  0.1130  0.1397
14581SOL    HW146375   5.919   7.882   1.755  0.3612  1.2879  0.6055
14581SOL    HW246376   6.048   7.841   1.822  0.1938  0.4692  0.4373
14582SOL     OW46377   2.473   6.675   5.874  0.0261 -0.0617 -0.2182
14582SOL    HW146378   2.491   6.728   5.951  1.8559  0.4826 -0.9536
14582SOL    HW246379   2.509   6.726   5.801 -1.8770 -0.4347 -1.5027
14583SOL     OW46380   2.767   0.634   3.039 -0.5639  0.9398 -0.3593
14583SOL    HW146381   2.716   0.640   3.120 -1.0980 -0.2749 -0.5783
14583SOL    HW246382   2.839   0.575   3.060 -0.7316  0.5797 -0.7627
14584SOL     OW46383   3.474   8.635   7.520  0.2957  0.6309 -0.3433
14584SOL    HW146384   3.518   8.710   7.559 -0.2774  1.4882 -1.3037
14584SOL    HW246385   3.460   8.660   7.429 -0.2306 -0.5051 -0.5949
14585SOL     OW46386   4.179   9.077   7.318 -0.4796 -0.0553 -0.3105
14585SOL    HW146387   4.240   9.053   7.249  0.7045 -2.0408  1.2890
14585SOL    HW246388   4.223   9.145   7.368  0.2353 -1.0382  0.4593
14586SOL     OW46389   0.224   7.501   8.717 -0.0757 -0.1916  0.0023
14586SOL    HW146390   0.270   7.419   8.733  0.4730  0.0510 -0.3086
14586SOL    HW246391   0.264   7.563   8.777  2.4093  0.8789 -2.5054
14587SOL     OW46392   9.286   8.792   0.441  0.1551  0.5674 -0.3641
14587SOL    HW146393   9.290   8.789   0.537  0.2897 -1.2444 -0.3851
14587SOL    HW246394   9.193   8.799   0.421  0.0540  0.1151 -0.0815
14588SOL     OW46395   3.198   7.158   8.902 -0.4487 -0.2417  0.1804
14588SOL    HW146396   3.103   7.167   8.892 -0.6817 -1.6927  0.8570
14588SOL    HW246397   3.210   7.130   8.992  0.7352  1.1353  0.4798
14589SOL     OW46398   4.219   5.602   3.890  0.0125 -0.1678  0.3445
14589SOL    HW146399   4.147   5.665   3.902  0.8539  1.3611 -1.9612
14589SOL    HW246400   4.297   5.650   3.916  0.4275 -1.2383  1.1556
14590SOL     OW46401   9.155   1.656   7.513  0.0045 -0.5938 -0.1549
14590SOL    HW146402   9.133   1.657   7.420  1.2469  0.6290 -0.4569
14590SOL    HW246403   9.250   1.650   7.515 -0.0491 -1.5180  1.0687
14591SOL     OW46404   8.741   6.801   1.015  0.3969  0.2778 -0.2957
14591SOL    HW146405   8.778   6.718   0.986  2.0725  1.5775 -2.0946
14591SOL    HW246406   8.756   6.861   0.943  0.6382  2.5640  1.5375
14592SOL     OW46407   0.756   5.654   0.925 -0.4040 -0.2691  0.4082
14592SOL    HW146408   0.721   5.624   0.840  1.3049 -0.3247 -0.3077
14592SOL    HW246409   0.690   5.716   0.957 -0.4645  0.8015 -1.6166
14593SOL     OW46410   0.892   6.145   3.037  0.2660 -0.3034  0.5650
14593SOL    HW146411   0.914   6.188   2.954 -0.9112  0.7180  0.7442
14593SOL    HW246412   0.821   6.198   3.073  0.5884 -0.8691  2.1190
14594SOL     OW46413   0.229   4.275   2.289  0.2910 -0.2731 -0.0009
14594SOL    HW146414   0.311   4.325   2.281  0.6180 -0.7430  0.3330
14594SOL    HW246415   0.251   4.204   2.349 -0.0911 -0.9820 -0.6936
14595SOL     OW46416   3.173   7.626   4.209 -0.1431 -0.4514 -1.0563
14595SOL    HW146417   3.133   7.539   4.210 -0.8263 -0.1642 -2.0251
14595SOL    HW246418   3.261   7.612   4.245 -0.5581 -1.3700 -0.3527
14596SOL     OW46419   1.054   2.727   7.907  0.0725  0.1326 -0.7798
14596SOL    HW146420   1.040   2.748   7.815  0.0561  1.2809 -0.5291
14596SOL    HW246421   1.075   2.634   7.908 -0.2628  0.0389 -1.9066
14597SOL     OW46422   9.291   4.986   9.678 -0.0119  0.3664  0.0859
14597SOL    HW146423   9.373   4.972   9.632  0.0737 -0.7321  0.5287
14597SOL    HW246424   9.256   5.067   9.641  0.9978  0.5598 -0.4919
14598SOL     OW46425   5.681   2.113   7.252  0.1180  0.1499 -0.5156
14598SOL    HW146426   5.686   2.044   7.186  1.5342  0.2404 -0.5414
14598SOL    HW246427   5.749   2.089   7.315  1.1014  1.8699 -0.8727
14599SOL     OW46428   7.101   4.433   6.223 -0.0880  0.4614  0.0606
14599SOL    HW146429   7.114   4.393   6.309  0.8287  0.4035 -0.0842
14599SOL    HW246430   7.125   4.525   6.236  1.6167  0.1322 -0.4595
14600SOL     OW46431   3.983   1.574   7.361 -0.6151  0.3516  0.4191
14600SOL    HW146432   3.928   1.578   7.440 -1.2358 -1.6104  0.1472
14600SOL    HW246433   4.002   1.481   7.350 -0.6989  0.5520 -1.8453
14601SOL     OW46434   3.203   1.632   2.129  0.3089  0.3812 -0.0251
14601SOL    HW146435   3.272   1.570   2.106 -0.8375 -0.2441 -2.0475
14601SOL    HW246436   3.248   1.702   2.176  2.2510 -0.2022 -0.9050
14602SOL     OW46437   9.091   4.837   2.301 -0.4130 -0.4961 -0.3876
14602SOL    HW146438   9.032   4.790   2.360 -1.2171 -1.4548 -1.8702
14602SOL    HW246439   9.040   4.912   2.271 -0.1041 -0.1610 -0.0853
14603SOL     OW46440   4.515   3.406   8.177 -0.1467  0.4766  0.0150
14603SOL    HW146441   4.459   3.482   8.187 -0.4903  0.2984 -0.4931
14603SOL    HW246442   4.572   3.427   8.103 -1.3381 -0.3899 -1.1968
14604SOL     OW46443   5.981   6.203   5.277 -0.1469 -0.0152  0.1116
14604SOL    HW146444   6.044   6.272   5.298  0.3819 -0.4872  0.1137
14604SOL    HW246445   5.908   6.218   5.338  0.4846 -0.1542  0.9283
14605SOL     OW46446   7.955   9.520   8.957  0.0464 -0.1765 -0.2089
14605SOL    HW146447   8.007   9.565   9.023  0.2576  0.3055 -0.6963
14605SOL    HW246448   7.865   9.547   8.974  0.0224 -0.5625  0.2823
14606SOL     OW46449   5.795   4.183   2.468 -0.1065 -0.1685 -0.5276
14606SOL    HW146450   5.795   4.274   2.498  0.8345  0.6721 -2.8447
14606SOL    HW246451   5.722   4.179   2.407  0.5350 -0.6262 -1.2839
14607SOL     OW46452   3.354   8.379   2.330  0.3651 -0.0252 -0.1879
14607SOL    HW146453   3.331   8.415   2.416 -0.3208  0.9981 -0.7836
14607SOL    HW246454   3.332   8.286   2.336  1.6943 -0.2878  1.2193
14608SOL     OW46455   0.025   0.255   5.206  0.0412 -0.1062  0.0409
14608SOL    HW146456   0.116   0.226   5.212 -0.4879 -1.7241  0.7726
14608SOL    HW246457  -0.002   0.268   5.297 -0.6521 -0.2915 -0.1345
14609SOL     OW46458   0.340  10.141  10.289  0.2719  0.3369  0.4637
14609SOL    HW146459   0.428  10.104  10.284  0.7123  1.4113 -0.0275
14609SOL    HW246460   0.319  10.166  10.199 -0.4030  0.3739  0.6284
14610SOL     OW46461   5.828   0.796   6.792 -0.1074 -0.0462  0.1389
14610SOL    HW146462   5.909   0.846   6.784 -0.0123 -0.4436 -1.9158
14610SOL    HW246463   5.765   0.859   6.827  0.6038  0.8390 -0.1177
14611SOL     OW46464   2.780   7.463   4.977 -0.1146  0.2155 -0.1040
14611SOL    HW146465   2.771   7.459   4.882  1.5486 -0.4249 -0.2779
14611SOL    HW246466   2.772   7.556   4.998  0.2641  0.4525 -0.9662
14612SOL     OW46467   7.321   2.178   9.735  0.0263 -0.5387 -0.4414
14612SOL    HW146468   7.352   2.126   9.809 -1.6623  0.3097  0.9716
14612SOL    HW246469   7.347   2.268   9.757 -1.8331 -0.0489 -0.0182
14613SOL     OW46470   9.942   5.461   1.107  0.5005  0.8962 -0.8911
14613SOL    HW146471   9.879   5.499   1.169  1.0930  0.5202 -0.0310
14613SOL    HW246472   9.888   5.417   1.042 -0.1771 -1.0339  0.8483
14614SOL     OW46473   6.745   8.701   7.123 -0.2984  0.3148 -0.1057
14614SOL    HW146474   6.801   8.700   7.201  2.2008  3.9041 -1.5809
14614SOL    HW246475   6.788   8.642   7.061 -0.1932  0.3321 -0.0483
14615SOL     OW46476   8.569   0.795   6.361 -0.4406 -0.1891  0.3737
14615SOL    HW146477   8.520   0.744   6.297 -0.7566 -0.9750  1.2159
14615SOL    HW246478   8.658   0.798   6.326 -1.1233  1.5895 -1.3690
14616SOL     OW46479   0.736   2.787   7.131  0.0600  0.1272  0.0780
14616SOL    HW146480   0.663   2.844   7.155 -0.6304 -0.3288 -0.8701
14616SOL    HW246481   0.813   2.828   7.171 -0.7236  0.5478  1.1849
14617SOL     OW46482   8.196   5.402   8.400 -0.7061 -0.4884  0.7680
14617SOL    HW146483   8.151   5.380   8.481 -1.8791  0.4313  0.3940
14617SOL    HW246484   8.221   5.318   8.362  2.4665 -0.9342  3.4394
14618SOL     OW46485   6.552   1.838   5.637 -0.0130 -0.0836  0.8850
14618SOL    HW146486   6.523   1.781   5.566  0.6719  1.3217 -0.5838
14618SOL    HW246487   6.472   1.874   5.674 -0.3572 -0.5276  0.5763
14619SOL     OW46488   4.794   7.445   5.965 -0.3436 -0.5943 -0.4091
14619SOL    HW146489   4.858   7.374   5.959 -0.2013 -0.7949  2.2708
14619SOL    HW246490   4.842   7.523   5.938 -0.0928 -1.2761 -2.0213
14620SOL     OW46491   0.052   7.633   7.483 -0.6518  0.5485  0.0574
14620SOL    HW146492   0.135   7.627   7.531 -1.3116 -0.4956  1.1060
14620SOL    HW246493   0.002   7.699   7.530 -0.6144  0.8369 -0.2976
14621SOL     OW46494   0.665   5.692   3.722 -0.0645  0.2470  0.0693
14621SOL    HW146495   0.627   5.628   3.662  0.6783  0.1666 -0.3297
14621SOL    HW246496   0.622   5.676   3.806 -1.0697  0.3230 -0.4268
14622SOL     OW46497   6.820   4.547   9.749 -0.6248  0.0903  0.0542
14622SOL    HW146498   6.760   4.513   9.683 -0.4999 -0.0441  0.0086
14622SOL    HW246499   6.829   4.475   9.812 -0.0390 -0.1146 -0.2540
14623SOL     OW46500   7.715   6.057  10.044 -0.0393 -0.1224 -0.0032
14623SOL    HW146501   7.635   6.008  10.062 -0.6567  0.9958  0.4055
14623SOL    HW246502   7.754   6.012   9.969 -0.8937 -0.8696 -0.0155
14624SOL     OW46503   2.054   0.300   7.762  0.0263  0.1061  0.6345
14624SOL    HW146504   2.018   0.256   7.838 -0.6007  0.4953  0.5654
14624SOL    HW246505   2.058   0.232   7.694 -0.5566  0.0556  0.6490
14625SOL     OW46506   5.423   8.731   4.547  0.1147  0.2091 -0.4705
14625SOL    HW146507   5.449   8.817   4.514 -2.1472  1.5645  0.9360
14625SOL    HW246508   5.445   8.733   4.640  2.4424 -1.8533 -0.8695
14626SOL     OW46509   7.752   6.168   8.526 -0.4905 -0.0152  0.0417
14626SOL    HW146510   7.818   6.198   8.464 -0.4203 -2.1574 -1.0334
14626SOL    HW246511   7.669   6.187   8.482 -0.4488 -1.2028 -0.5896
14627SOL     OW46512   7.431   0.287   2.937 -0.0838 -0.1837  0.1866
14627SOL    HW146513   7.461   0.340   2.863 -0.3769  0.1023  0.2729
14627SOL    HW246514   7.462   0.199   2.916 -0.1327 -0.0990 -0.2625
14628SOL     OW46515   8.174   6.531   2.198 -0.6593 -0.4527 -0.2030
14628SOL    HW146516   8.269   6.539   2.206 -0.9058  1.1818  1.6852
14628SOL    HW246517   8.145   6.616   2.166 -1.6586 -0.0454  1.6172
14629SOL     OW46518   4.122   7.590   8.213  0.3788 -0.7292  0.0778
14629SOL    HW146519   4.188   7.556   8.274  1.1226 -0.7674 -0.7201
14629SOL    HW246520   4.128   7.685   8.221  1.0390 -0.7078 -0.4791
14630SOL     OW46521   8.747  10.126   2.274  0.3218  0.5703  0.7727
14630SOL    HW146522   8.765  10.083   2.358 -2.7953  0.2848  1.4264
14630SOL    HW246523   8.706  10.209   2.298  0.6801  1.1387 -0.5087
14631SOL     OW46524   4.682   1.587   2.554  0.6669 -0.0298  0.0037
14631SOL    HW146525   4.686   1.683   2.559 -0.9230  0.2014 -1.8207
14631SOL    HW246526   4.751   1.563   2.492 -0.4501  0.2064 -1.3806
14632SOL     OW46527   9.521   6.029   0.248 -0.0968 -0.0619  0.4190
14632SOL    HW146528   9.529   5.972   0.172  0.7823 -0.0374  0.4795
14632SOL    HW246529   9.505   6.116   0.212  0.0284 -0.1009  0.2684
14633SOL     OW46530   6.990   0.001   9.483 -0.1354 -0.6641 -0.2377
14633SOL    HW146531   6.986   0.083   9.433 -1.7702 -0.4681  0.1388
14633SOL    HW246532   7.082  -0.011   9.503 -0.0821  2.6448  2.2371
14634SOL     OW46533   7.112   6.238   9.413  0.2505  0.0458 -0.1137
14634SOL    HW146534   7.062   6.253   9.333  0.0195  0.4694  0.1053
14634SOL    HW246535   7.140   6.147   9.407  1.1031  0.3638 -1.1613
14635SOL     OW46536   6.987   0.578   8.901  0.1275 -0.0557  0.4028
14635SOL    HW146537   6.983   0.674   8.898 -0.4932 -0.0723  0.5431
14635SOL    HW246538   6.949   0.556   8.986 -1.3621 -0.5039 -0.3605
14636SOL     OW46539   2.965   4.757   9.211  0.0793  0.3641 -0.1918
14636SOL    HW146540   2.902   4.751   9.282 -0.1294 -0.9739 -0.4666
14636SOL    HW246541   3.035   4.813   9.245 -0.4784  0.5349  0.6968
14637SOL     OW46542   8.247   1.523   3.562  0.2329 -0.0133  0.5425
14637SOL    HW146543   8.205   1.480   3.488  0.7104  0.3950  0.0201
14637SOL    HW246544   8.207   1.609   3.566 -1.1846 -0.6944  1.9885
14638SOL     OW46545   3.412   4.938   3.839  0.3118  0.3792  0.4249
14638SOL    HW146546   3.396   4.880   3.764 -1.4522  0.1085  0.9613
14638SOL    HW246547   3.341   4.919   3.900  1.3490  1.0468  1.9124
14639SOL     OW46548   6.195   7.107   4.494 -0.0580 -0.2942  0.3881
14639SOL    HW146549   6.159   7.187   4.456  0.4636 -0.0779  0.3437
14639SOL    HW246550   6.156   7.102   4.581 -1.6303 -1.0407 -0.3326
14640SOL     OW46551   5.760   4.875   2.517 -0.4632 -0.0827 -0.1405
14640SOL    HW146552   5.830   4.849   2.576 -1.2897 -0.7278  0.5776
14640SOL    HW246553   5.681   4.838   2.556 -1.3170  1.2744 -0.5062
14641SOL     OW46554   7.069   8.008   3.549  0.2277 -0.0987  0.6061
14641SOL    HW146555   7.140   7.946   3.568  0.7064 -0.0126 -0.7659
14641SOL    HW246556   7.073   8.020   3.454 -0.6936  1.0404  0.6904
14642SOL     OW46557   6.375   0.129   6.283 -0.3741 -0.5406  0.4737
14642SOL    HW146558   6.304   0.174   6.328  0.9271 -0.1830  2.2827
14642SOL    HW246559   6.401   0.060   6.344  0.1457 -1.3386 -0.6260
14643SOL     OW46560   0.940   6.266   1.697  0.1488  0.3792 -0.1836
14643SOL    HW146561   0.944   6.171   1.687  0.4447  0.4045 -0.3113
14643SOL    HW246562   0.847   6.287   1.687 -0.0537  0.0055  0.7978
14644SOL     OW46563   8.691   6.584   7.477  0.2171 -0.4899 -0.1888
14644SOL    HW146564   8.720   6.617   7.562 -0.1084  0.1704 -0.3235
14644SOL    HW246565   8.771   6.578   7.425  0.1424  1.4797 -0.6163
14645SOL     OW46566   5.850   7.755   8.352  0.1487  0.0361  0.1242
14645SOL    HW146567   5.854   7.842   8.392 -0.7089 -0.2648  0.8947
14645SOL    HW246568   5.845   7.695   8.427  1.3067 -0.7294 -0.3738
14646SOL     OW46569   7.626   6.707  10.221  0.3158  0.5856 -0.4431
14646SOL    HW146570   7.544   6.723  10.174 -0.3832 -0.3925  0.4088
14646SOL    HW246571   7.694   6.729  10.158 -0.5701 -1.4070 -2.2126
14647SOL     OW46572   5.815   4.124   9.323  0.5292  0.0713  0.0405
14647SOL    HW146573   5.877   4.194   9.341 -0.4020  0.2435  3.0416
14647SOL    HW246574   5.867   4.043   9.328  0.9326  0.3412  0.1946
14648SOL     OW46575   5.999   4.377   0.411 -0.2368 -0.6265 -0.5566
14648SOL    HW146576   5.957   4.460   0.434  1.1701  0.1831 -0.7958
14648SOL    HW246577   5.970   4.360   0.321  0.1707  0.0790 -0.8293
14649SOL     OW46578   9.465   1.972   6.709 -0.4159  0.1860 -0.3548
14649SOL    HW146579   9.377   1.939   6.733  0.0218 -0.6192  0.2269
14649SOL    HW246580   9.494   2.019   6.787  0.1643 -0.6176 -0.0779
14650SOL     OW46581   7.655   1.769   6.528  0.3275  0.1281  0.9941
14650SOL    HW146582   7.625   1.855   6.500  0.3950 -0.2212 -0.2242
14650SOL    HW246583   7.650   1.771   6.623  0.6017  1.5771  0.9957
14651SOL     OW46584   9.759   3.408   7.480 -0.0369  0.5874 -0.8302
14651SOL    HW146585   9.723   3.494   7.456 -0.4460  0.2488 -1.4831
14651SOL    HW246586   9.689   3.346   7.457 -0.3255  0.1830  0.9530
14652SOL     OW46587   6.173   9.829   0.003 -0.0201 -0.7262 -0.0858
14652SOL    HW146588   6.250   9.837  -0.052 -0.5879 -0.5379 -0.8775
14652SOL    HW246589   6.158   9.917   0.037 -0.7555 -0.4166 -1.1597
14653SOL     OW46590   2.837   5.542   7.836  0.0162 -0.4255  0.2707
14653SOL    HW146591   2.918   5.579   7.870  0.7753  0.2594 -2.0868
14653SOL    HW246592   2.830   5.455   7.877  2.2916 -0.7665  0.0382
14654SOL     OW46593   6.442   4.970   1.442 -0.0578  0.2011  0.3568
14654SOL    HW146594   6.472   4.952   1.531 -1.7607  2.8428  1.6289
14654SOL    HW246595   6.522   4.975   1.390  1.0532 -0.6220  1.8894
14655SOL     OW46596   7.514   7.448   1.754 -0.1001 -0.3913  0.0740
14655SOL    HW146597   7.497   7.511   1.823  0.3199 -1.1565  0.8979
14655SOL    HW246598   7.432   7.400   1.745 -0.5787  0.5712 -0.8969
14656SOL     OW46599   9.425   9.097   1.302  0.0556  0.1711  0.6647
14656SOL    HW146600   9.331   9.087   1.316  0.3085 -1.3081  1.4167
14656SOL    HW246601   9.432   9.145   1.219 -1.3448 -2.3499 -1.0151
14657SOL     OW46602  10.199   2.720   1.638 -0.2165  0.5728  0.3841
14657SOL    HW146603  10.138   2.742   1.708  0.9912 -0.6975  1.9071
14657SOL    HW246604  10.282   2.759   1.664  0.4057 -0.4399 -0.0206
14658SOL     OW46605   2.810   4.398   5.951 -0.9202 -0.3469  0.2071
14658SOL    HW146606   2.889   4.400   6.005 -1.0809  1.5094  0.4297
14658SOL    HW246607   2.758   4.326   5.987  0.6070 -1.5635  0.0891
14659SOL     OW46608   7.977   8.745   9.757 -0.4019 -0.0853 -0.1079
14659SOL    HW146609   8.056   8.774   9.803  0.7462  0.4902 -2.2823
14659SOL    HW246610   7.999   8.658   9.724 -0.7080  0.0456 -0.6648
14660SOL     OW46611   7.669   3.258   1.261  0.4740 -0.3812  0.3088
14660SOL    HW146612   7.675   3.236   1.354  0.5045 -1.0972  0.1392
14660SOL    HW246613   7.744   3.215   1.221  1.2282  1.0105  0.1379
14661SOL     OW46614   3.702   1.017   2.460 -0.2423 -0.4010 -0.2147
14661SOL    HW146615   3.719   1.023   2.366  0.9983 -0.1586  0.0082
14661SOL    HW246616   3.788   1.005   2.499 -0.3587  2.2860  1.1052
14662SOL     OW46617   7.254   2.906   5.368 -0.1472  0.8508  0.0326
14662SOL    HW146618   7.257   2.900   5.464  0.9278 -1.7289 -0.0980
14662SOL    HW246619   7.179   2.853   5.343 -0.0406  0.9881 -0.5944
14663SOL     OW46620   2.225   2.175   4.472  0.2349 -0.3553  0.0578
14663SOL    HW146621   2.292   2.126   4.520  0.3108 -0.4415 -0.1356
14663SOL    HW246622   2.273   2.221   4.403  0.3520  1.0194  1.0102
14664SOL     OW46623   7.530   1.615   9.342  0.3110 -0.4089  0.1210
14664SOL    HW146624   7.593   1.570   9.399  2.2472  0.2896 -1.3393
14664SOL    HW246625   7.561   1.705   9.338 -1.7208  0.3669  0.5411
14665SOL     OW46626   7.095   6.811   1.425  0.1142 -0.3467 -0.1140
14665SOL    HW146627   7.008   6.849   1.434  1.8242  3.9580  1.3625
14665SOL    HW246628   7.093   6.732   1.478 -3.1282 -1.1279 -1.1838
14666SOL     OW46629   1.847   9.044   3.818 -0.1648  0.4248 -0.1103
14666SOL    HW146630   1.864   9.016   3.728 -0.1755  0.3532 -0.0898
14666SOL    HW246631   1.884   9.133   3.822 -0.6325  0.6333 -0.3374
14667SOL     OW46632   9.097   8.092   1.678 -0.1779 -0.9216 -0.1659
14667SOL    HW146633   9.179   8.078   1.630 -0.0853  0.5364 -0.4715
14667SOL    HW246634   9.042   8.141   1.618  0.1824  1.5407  1.3832
14668SOL     OW46635   9.991   1.900   5.346  0.1866  0.4899  0.0792
14668SOL    HW146636  10.055   1.834   5.319  0.8319  0.1286  2.2792
14668SOL    HW246637  10.037   1.983   5.339  0.9283  0.2340  1.6218
14669SOL     OW46638   7.779   5.882   6.675 -0.0168 -0.5169  0.0369
14669SOL    HW146639   7.741   5.968   6.689 -0.4030 -0.4951 -1.0885
14669SOL    HW246640   7.861   5.883   6.726  0.3969  0.7923 -0.6215
14670SOL     OW46641   9.223   1.098   8.598  0.0172 -0.4454 -0.0529
14670SOL    HW146642   9.262   1.052   8.673  0.7401  0.7642  0.3438
14670SOL    HW246643   9.129   1.091   8.613  0.1466 -0.4834  0.8159
14671SOL     OW46644   4.425   0.737   5.541  0.3762  0.3631  0.1649
14671SOL    HW146645   4.498   0.727   5.479  0.8046  1.4968  0.4571
14671SOL    HW246646   4.441   0.670   5.607  1.6466  1.1358  0.6789
14672SOL     OW46647   4.242   5.317   8.550  0.8851  0.4657  0.3382
14672SOL    HW146648   4.281   5.404   8.562 -1.4159  1.4932  0.8881
14672SOL    HW246649   4.148   5.334   8.544  0.4878 -1.8841 -0.9735
14673SOL     OW46650   9.399   1.502   1.437  0.2507 -0.7809 -0.2668
14673SOL    HW146651   9.449   1.583   1.423  1.0201 -1.2174 -0.1365
14673SOL    HW246652   9.340   1.523   1.509  1.0214 -0.5709  0.3239
14674SOL     OW46653   3.735   2.311   9.149  0.2387  0.4389  0.0019
14674SOL    HW146654   3.647   2.337   9.177  0.6338  1.0454  0.7269
14674SOL    HW246655   3.786   2.308   9.230  1.4631  2.3772 -0.6204
14675SOL     OW46656   1.665   6.251   3.513 -0.3381 -0.1891  0.2322
14675SOL    HW146657   1.698   6.161   3.511  0.2524  0.0219  0.1936
14675SOL    HW246658   1.575   6.243   3.545  0.7993 -0.4614  3.7175
14676SOL     OW46659   8.315   2.088   1.892 -0.1625  0.1020  0.5224
14676SOL    HW146660   8.280   2.086   1.803 -0.2185  0.4663  0.5352
14676SOL    HW246661   8.383   2.155   1.889 -0.2123  0.1636  0.7718
14677SOL     OW46662   5.509   5.479   0.710 -0.0418  0.1375  0.6015
14677SOL    HW146663   5.432   5.531   0.685  0.4902  0.7728  0.2315
14677SOL    HW246664   5.538   5.439   0.628 -0.9624 -1.4845  1.0384
14678SOL     OW46665   1.648   6.471   5.176  0.2160 -0.0501  0.0739
14678SOL    HW146666   1.668   6.559   5.143 -0.0324  0.6711  1.7318
14678SOL    HW246667   1.627   6.485   5.268  1.4328 -2.0429  0.6933
14679SOL     OW46668   0.904   7.322   3.760  0.1444 -0.5864  0.1158
14679SOL    HW146669   0.937   7.361   3.842  2.2008  1.4124 -1.5370
14679SOL    HW246670   0.923   7.228   3.770  2.3974 -0.1075  1.0944
14680SOL     OW46671  10.201   7.059   7.836 -0.3244  0.0062  0.2104
14680SOL    HW146672  10.213   7.152   7.815  0.3196  0.0342  0.6983
14680SOL    HW246673  10.204   7.055   7.932  0.3037 -0.6076  0.1698
14681SOL     OW46674   7.523   1.618   3.090  0.5091  0.1678 -0.0812
14681SOL    HW146675   7.456   1.590   3.152  0.0909  1.8455  0.2871
14681SOL    HW246676   7.551   1.538   3.046 -0.8465 -0.7328  0.6382
14682SOL     OW46677   2.931   0.972   3.509  0.5254  0.3392 -0.3091
14682SOL    HW146678   2.892   1.056   3.486 -0.7023 -0.5890 -1.8408
14682SOL    HW246679   2.862   0.926   3.557  1.2339  0.2365  0.6407
14683SOL     OW46680   5.844   9.485   4.804  0.1034 -0.2858  0.0758
14683SOL    HW146681   5.854   9.565   4.753  0.1494 -0.2535  0.1352
14683SOL    HW246682   5.924   9.435   4.786  0.4346  0.0302  0.6526
14684SOL     OW46683   8.784   4.083   3.593 -0.0291 -0.4653  0.6590
14684SOL    HW146684   8.853   4.149   3.586  0.1156 -0.4904  1.7340
14684SOL    HW246685   8.830   4.000   3.579 -0.0725 -0.4022  0.1073
14685SOL     OW46686   4.970   5.618   4.449  0.0862 -0.9680 -0.4962
14685SOL    HW146687   4.911   5.598   4.521  0.4654  0.5190  0.2803
14685SOL    HW246688   5.054   5.582   4.476  1.0018  2.1636  1.3333
14686SOL     OW46689   8.444   7.578   1.260 -0.1874 -0.2935 -0.2524
14686SOL    HW146690   8.485   7.594   1.345 -2.2842 -1.1521  1.0103
14686SOL    HW246691   8.505   7.614   1.196  1.8191 -0.3050  1.5675
14687SOL     OW46692   6.507   7.032   2.875 -0.4718  0.7793  0.1027
14687SOL    HW146693   6.422   7.017   2.918 -0.2474 -0.8881 -0.0031
14687SOL    HW246694   6.568   7.044   2.948 -0.4227 -0.1729  0.2214
14688SOL     OW46695   6.217  10.237   7.859  0.4540  0.4314 -0.2300
14688SOL    HW146696   6.153  10.196   7.801 -0.2074  1.7279 -0.4598
14688SOL    HW246697   6.300  10.194   7.838  0.0195  0.1074 -1.3407
14689SOL     OW46698   0.642   2.625   2.628 -0.1704 -0.2527 -0.1050
14689SOL    HW146699   0.564   2.655   2.581 -0.4413 -1.4500 -0.4560
14689SOL    HW246700   0.635   2.665   2.715 -0.5274  0.6365 -0.5243
14690SOL     OW46701   7.730   1.285   7.268  0.2553  0.3299 -0.3166
14690SOL    HW146702   7.657   1.337   7.234  0.4626  0.0420 -1.2567
14690SOL    HW246703   7.690   1.202   7.293  0.0865  0.5704  0.2060
14691SOL     OW46704   8.134   1.561   8.003  0.8619 -0.6971 -0.0804
14691SOL    HW146705   8.177   1.481   7.976 -0.3170 -1.2572 -0.3535
14691SOL    HW246706   8.041   1.544   7.990  0.4645  0.1023  1.4483
14692SOL     OW46707   1.597   0.454   0.122 -0.1333 -0.5772 -0.0200
14692SOL    HW146708   1.632   0.505   0.048 -0.7063 -0.7923 -0.4513
14692SOL    HW246709   1.645   0.485   0.198 -0.4033  0.5549 -0.2916
14693SOL     OW46710   6.094   8.771   8.142 -0.3604 -0.1153  0.6705
14693SOL    HW146711   6.106   8.804   8.053 -1.8115  0.5405  0.6881
14693SOL    HW246712   6.170   8.714   8.157  0.3826  0.4841 -0.6370
14694SOL     OW46713   2.224   0.993   0.193  0.0152  0.0922  0.2438
14694SOL    HW146714   2.278   1.010   0.271  1.5683 -0.1981 -0.7120
14694SOL    HW246715   2.219   0.898   0.188  1.1635  0.0558 -0.7732
14695SOL     OW46716   1.226   8.947   9.936 -1.0237 -0.0059 -0.2083
14695SOL    HW146717   1.158   9.003   9.897 -0.8976  0.5777  0.3874
14695SOL    HW246718   1.214   8.958  10.030  0.7193  1.1208 -0.0802
14696SOL     OW46719   8.156   2.463   9.493 -0.4997  0.6486  0.0295
14696SOL    HW146720   8.180   2.456   9.401 -0.7554 -1.4361  0.0575
14696SOL    HW246721   8.235   2.436   9.540 -0.7106  0.6247  0.3756
14697SOL     OW46722   0.442   2.122  10.138  0.2921 -0.4512  1.0705
14697SOL    HW146723   0.527   2.114  10.095 -1.4215 -2.5150 -2.3408
14697SOL    HW246724   0.443   2.054  10.206  1.4114 -0.2935  1.2266
14698SOL     OW46725   5.392   3.640   8.789  0.0615  0.6130  0.4029
14698SOL    HW146726   5.482   3.672   8.780  0.3081  0.0605  0.8380
14698SOL    HW246727   5.368   3.611   8.701  0.3106  0.7619  0.2850
14699SOL     OW46728   6.712   3.781   8.412 -0.4345 -1.1654 -1.1034
14699SOL    HW146729   6.788   3.722   8.418 -0.3189 -0.9566 -0.3962
14699SOL    HW246730   6.726   3.830   8.331  0.0950 -1.2570 -1.0735
14700SOL     OW46731   2.784   9.671  10.212  0.5399 -0.5444 -0.3808
14700SOL    HW146732   2.838   9.620  10.273 -0.1581 -0.7359  0.0803
14700SOL    HW246733   2.791   9.623  10.129 -0.9506 -2.0298  0.2931
14701SOL     OW46734   2.667   7.639   1.149 -0.0029  0.2854  0.0325
14701SOL    HW146735   2.622   7.654   1.067 -0.4893 -0.0918  0.2273
14701SOL    HW246736   2.750   7.598   1.124  1.6691  3.6747 -0.5706
14702SOL     OW46737   2.770   5.163   5.591 -0.2870  0.1708 -0.4994
14702SOL    HW146738   2.786   5.116   5.673 -3.3623 -0.9207 -0.4331
14702SOL    HW246739   2.799   5.253   5.610  0.1065 -0.2971  1.3841
14703SOL     OW46740   4.071   9.586   2.546 -0.2660  1.4397 -0.2414
14703SOL    HW146741   4.135   9.522   2.579 -1.3455  0.8435  0.7966
14703SOL    HW246742   4.066   9.569   2.452 -0.1378  0.3173 -0.0624
14704SOL     OW46743   1.708   2.739   4.863 -0.5415  0.1273  0.3606
14704SOL    HW146744   1.641   2.794   4.823  0.6686  1.6410  0.3252
14704SOL    HW246745   1.746   2.794   4.931  0.8021 -0.6329  0.2477
14705SOL     OW46746   7.059   2.933   5.787  0.0736 -0.6841  0.0195
14705SOL    HW146747   7.041   3.006   5.729  1.0366 -0.6417 -0.2549
14705SOL    HW246748   7.093   2.865   5.729  0.4382 -0.8703  0.4446
14706SOL     OW46749   3.216   9.529   1.188 -0.4917  0.1937 -0.4435
14706SOL    HW146750   3.132   9.519   1.143 -0.9801  0.0125  0.4880
14706SOL    HW246751   3.216   9.620   1.218 -0.8828 -0.1125  0.5480
14707SOL     OW46752   3.423   6.934   3.931 -0.1171 -0.5234 -0.3106
14707SOL    HW146753   3.335   6.970   3.945 -0.7851 -2.2297  0.1549
14707SOL    HW246754   3.468   6.951   4.014 -0.5602 -1.1241  0.0570
14708SOL     OW46755   7.170   9.309   1.145  0.5418 -0.1870  0.2306
14708SOL    HW146756   7.191   9.279   1.056 -1.8307 -0.8944 -0.1673
14708SOL    HW246757   7.115   9.386   1.131 -1.0504 -1.1403  1.0007
14709SOL     OW46758   5.371   0.811   2.509  0.3030 -0.3648  0.4553
14709SOL    HW146759   5.459   0.782   2.533 -0.2982 -2.1928  0.5628
14709SOL    HW246760   5.385   0.885   2.450  1.8956 -0.3182  0.8593
14710SOL     OW46761   0.363   6.729   2.898  0.0756  0.0480  0.0046
14710SOL    HW146762   0.306   6.652   2.900  1.0491 -0.6715  1.5826
14710SOL    HW246763   0.400   6.729   2.810 -2.8641  0.9961 -1.3831
14711SOL     OW46764   4.530   3.896   6.663 -0.0609 -0.5073 -0.2641
14711SOL    HW146765   4.450   3.861   6.624  0.0439 -0.6752 -0.3285
14711SOL    HW246766   4.500   3.944   6.740 -0.1558 -1.2324  0.1626
14712SOL     OW46767   4.166   1.463   3.499  0.4441  0.0905  0.2657
14712SOL    HW146768   4.239   1.439   3.442  0.1840 -0.1715  0.0396
14712SOL    HW246769   4.186   1.421   3.583 -1.6516 -3.9782 -1.0121
14713SOL     OW46770   5.530   0.705   7.247 -0.8639 -0.0026 -0.2370
14713SOL    HW146771   5.612   0.690   7.201  1.3481  1.1718  2.9132
14713SOL    HW246772   5.511   0.622   7.291  0.5965  0.5856  1.6611
14714SOL     OW46773   2.821   8.896   2.249  0.4381 -0.0726 -0.1283
14714SOL    HW146774   2.808   8.981   2.208 -0.9967  0.1052  0.6480
14714SOL    HW246775   2.853   8.840   2.178 -1.7635  0.2862 -1.4979
14715SOL     OW46776   8.323   7.673   5.490  0.9707  0.0790  0.3762
14715SOL    HW146777   8.362   7.703   5.408 -1.6072 -3.5674 -2.5260
14715SOL    HW246778   8.239   7.719   5.496  0.1007 -1.3404 -0.3943
14716SOL     OW46779   5.981   7.798   8.661 -0.6488 -0.4352 -0.1057
14716SOL    HW146780   5.950   7.720   8.617 -0.2071 -1.1595  0.8388
14716SOL    HW246781   5.921   7.811   8.735 -0.7844  0.1796 -0.3153
14717SOL     OW46782   1.713   9.370   4.524 -0.1812 -0.1093  0.2330
14717SOL    HW146783   1.678   9.434   4.463 -0.0571 -0.5634 -0.3300
14717SOL    HW246784   1.640   9.312   4.543 -0.3865  0.4032  1.0194
14718SOL     OW46785   6.255   9.802   3.407  0.4043  0.1208 -0.2430
14718SOL    HW146786   6.190   9.756   3.354  0.7666 -0.1946 -0.4184
14718SOL    HW246787   6.295   9.865   3.346 -0.6350  1.2323  0.1918
14719SOL     OW46788   8.512   3.925   1.281  0.1646  0.1253 -0.3205
14719SOL    HW146789   8.604   3.943   1.301  0.3538 -2.0110  1.2131
14719SOL    HW246790   8.463   3.991   1.330  0.8663  0.8412 -0.5752
14720SOL     OW46791   9.137   4.951   6.310 -0.3865 -0.7148  0.5223
14720SOL    HW146792   9.108   4.948   6.219 -0.4825 -1.8824  0.5679
14720SOL    HW246793   9.181   4.867   6.324 -0.1682 -0.4564  1.4879
14721SOL     OW46794   2.787   6.094   1.181 -0.2202  0.3694 -0.1012
14721SOL    HW146795   2.844   6.024   1.148 -0.6630 -0.8282  1.5509
14721SOL    HW246796   2.704   6.079   1.136  0.0243  0.5694 -0.6299
14722SOL     OW46797   6.180   1.688   4.823 -0.2952  1.0105  0.7145
14722SOL    HW146798   6.221   1.761   4.870 -0.4093  0.7684  1.1893
14722SOL    HW246799   6.111   1.657   4.881  0.6759 -0.4038  1.1600
14723SOL     OW46800   1.038   4.034   7.602 -0.0697 -0.4572 -0.3770
14723SOL    HW146801   1.078   4.101   7.657 -2.4211  2.0958 -1.4849
14723SOL    HW246802   0.960   4.007   7.650 -0.2324 -0.8632 -0.8642
14724SOL     OW46803   7.139   6.209   1.220 -0.3743 -0.2355  0.3533
14724SOL    HW146804   7.096   6.265   1.155  1.5717  0.2014 -0.6556
14724SOL    HW246805   7.156   6.127   1.174 -2.2390 -1.3281  1.4987
14725SOL     OW46806  10.096   6.754   9.609 -0.1953 -0.2552  0.2513
14725SOL    HW146807  10.053   6.681   9.565 -3.3955  1.9586 -0.6373
14725SOL    HW246808  10.058   6.756   9.697  0.7868 -0.3627  0.6892
14726SOL     OW46809   1.164   3.009   9.163  0.0531 -0.5306 -0.0865
14726SOL    HW146810   1.252   3.010   9.200 -0.1180 -0.2477  0.3281
14726SOL    HW246811   1.150   3.097   9.129 -1.0178  0.2535  2.1939
14727SOL     OW46812   8.996   4.518   9.032 -0.2721 -0.4424  0.0338
14727SOL    HW146813   8.978   4.608   9.060  1.8244 -0.3111  1.1311
14727SOL    HW246814   8.953   4.464   9.098 -1.0802 -0.2655 -0.3299
14728SOL     OW46815   1.427   7.941   6.135  0.0828 -0.4050 -0.2204
14728SOL    HW146816   1.340   7.974   6.159  0.5125  1.1112 -0.6855
14728SOL    HW246817   1.408   7.868   6.075 -0.8735 -0.8474  0.5760
14729SOL     OW46818   1.274   5.217   4.117 -0.5073 -0.2884  0.5117
14729SOL    HW146819   1.338   5.193   4.184 -1.5721  0.3245  1.7827
14729SOL    HW246820   1.191   5.185   4.151 -1.0589 -0.0542 -0.5782
14730SOL     OW46821   6.761   2.915   8.881 -0.5351 -0.1575  0.2299
14730SOL    HW146822   6.831   2.905   8.817  0.7996  3.0171  1.0002
14730SOL    HW246823   6.688   2.866   8.844  1.3658 -1.7897 -1.6876
14731SOL     OW46824   3.758   4.147   6.864  0.1418 -1.0995  0.0081
14731SOL    HW146825   3.841   4.100   6.857 -0.6104 -2.4318 -0.2646
14731SOL    HW246826   3.749   4.191   6.779  1.1969  0.1735  0.5285
14732SOL     OW46827   2.867   4.918   8.328  0.3475 -0.2248 -0.2663
14732SOL    HW146828   2.840   4.915   8.420 -0.7044 -1.4321 -0.5939
14732SOL    HW246829   2.866   4.827   8.299  1.5353  0.0508 -1.2473
14733SOL     OW46830   6.961   0.808   0.857  0.1711  0.5468  0.7445
14733SOL    HW146831   7.042   0.837   0.815 -0.7708  0.8195 -0.9456
14733SOL    HW246832   6.957   0.714   0.839 -0.8147  0.8635 -0.8756
14734SOL     OW46833   0.224   5.006   7.814  0.1547 -0.0765  0.5392
14734SOL    HW146834   0.283   4.974   7.883 -1.7853 -0.6537  2.0225
14734SOL    HW246835   0.149   4.947   7.818 -1.0268  1.2928 -0.5176
14735SOL     OW46836   4.967   9.558   8.351 -0.7226 -0.1424  0.2849
14735SOL    HW146837   4.970   9.623   8.281  0.5065 -0.0338  0.4098
14735SOL    HW246838   5.020   9.485   8.319  1.2882  0.6019  1.7240
14736SOL     OW46839   3.471   8.526   1.557 -0.4865 -0.2707 -0.7028
14736SOL    HW146840   3.500   8.444   1.597  1.3587  0.6682 -0.0203
14736SOL    HW246841   3.390   8.502   1.512  1.2884 -3.1221 -2.7812
14737SOL     OW46842   6.730   3.712   9.945 -0.7151  0.1700  0.4247
14737SOL    HW146843   6.733   3.806   9.928 -4.5446  0.9738  3.0332
14737SOL    HW246844   6.805   3.695  10.001 -0.9383  2.0751  1.3495
14738SOL     OW46845   2.489   8.097   9.746 -0.1473  0.5619  0.2365
14738SOL    HW146846   2.485   8.155   9.670 -0.6316  1.7144  1.1230
14738SOL    HW246847   2.415   8.037   9.734 -0.3014  0.8215 -0.1373
14739SOL     OW46848   0.664   4.354   4.297  0.9230 -0.1199 -0.0617
14739SOL    HW146849   0.641   4.441   4.265 -1.9568 -0.6126  0.3754
14739SOL    HW246850   0.753   4.339   4.264  0.3072  1.6783 -2.9433
14740SOL     OW46851   9.308   0.991   0.684  0.9434 -0.1366  0.0533
14740SOL    HW146852   9.223   0.949   0.697 -0.2801  2.4732  1.0874
14740SOL    HW246853   9.324   0.983   0.590 -0.4300 -0.6982 -0.1554
14741SOL     OW46854   4.341   9.271   7.857  0.2641 -0.2955  0.0117
14741SOL    HW146855   4.281   9.317   7.799  0.2621 -0.1332  0.1404
14741SOL    HW246856   4.425   9.274   7.812  0.5528  0.9134  0.5588
14742SOL     OW46857   5.601   8.444   2.541  0.2877 -0.2890  0.2256
14742SOL    HW146858   5.633   8.534   2.545 -1.4441  0.5964 -2.7996
14742SOL    HW246859   5.674   8.394   2.504  0.8658  0.0717  0.8520
14743SOL     OW46860   8.953   7.592   1.061 -0.3902  0.2107  0.2181
14743SOL    HW146861   8.895   7.592   1.137  0.0647  1.7716  0.6027
14743SOL    HW246862   9.029   7.644   1.088  0.7121 -0.8632 -0.6460
14744SOL     OW46863   7.461   4.886   1.985  0.3542 -0.6144  0.7328
14744SOL    HW146864   7.503   4.835   2.054 -1.2780 -0.9708  1.5045
14744SOL    HW246865   7.491   4.976   2.000 -0.3322 -0.6097  2.1963
14745SOL     OW46866   6.956   6.893   2.221 -0.1953  0.1186  0.2905
14745SOL    HW146867   6.935   6.840   2.144 -1.0842 -0.1428  0.7132
14745SOL    HW246868   6.948   6.833   2.295 -1.1611  0.8240  0.7666
14746SOL     OW46869   3.976   1.308   6.791 -0.2285  0.2600  0.4222
14746SOL    HW146870   3.881   1.307   6.775 -0.1791  0.9157  0.0691
14746SOL    HW246871   3.989   1.379   6.853  0.1746  1.0451 -0.5310
14747SOL     OW46872   8.378   5.243   7.555  0.3475 -0.1234 -0.6706
14747SOL    HW146873   8.311   5.241   7.623  0.0097  0.8610 -0.9604
14747SOL    HW246874   8.444   5.305   7.588  0.0937  0.4951 -1.3027
14748SOL     OW46875   2.051   5.979   2.463 -0.6732 -0.3046 -0.6067
14748SOL    HW146876   1.998   5.928   2.524 -1.9376 -0.1811 -1.5473
14748SOL    HW246877   2.126   6.008   2.514 -2.7268  1.6582  1.5663
14749SOL     OW46878   7.254   5.903   1.242 -0.0273  0.0694 -0.5411
14749SOL    HW146879   7.183   5.914   1.180 -0.8816 -1.7984  0.0389
14749SOL    HW246880   7.309   5.833   1.205  2.0066  1.9819 -1.3657
14750SOL     OW46881   9.755   1.402   3.619  0.4610 -0.2490  0.1363
14750SOL    HW146882   9.714   1.333   3.566 -0.2346 -0.3554  0.8023
14750SOL    HW246883   9.828   1.358   3.662  1.1473 -0.1195 -0.8600
14751SOL     OW46884   0.435   5.295   5.502 -0.2532 -0.1355 -0.0977
14751SOL    HW146885   0.396   5.372   5.460 -2.7847 -1.5037 -0.5205
14751SOL    HW246886   0.441   5.231   5.431 -0.4164 -1.0590  0.7059
14752SOL     OW46887   0.759   8.349   4.733  0.0675  0.0011  0.0777
14752SOL    HW146888   0.740   8.332   4.640 -0.6720 -1.2596  0.4252
14752SOL    HW246889   0.854   8.341   4.740 -0.0354 -2.5979 -0.1478
14753SOL     OW46890   2.869   2.638   6.847  0.1591  0.2973  0.3046
14753SOL    HW146891   2.907   2.638   6.934 -0.3565  0.1884  0.5296
14753SOL    HW246892   2.905   2.559   6.805 -0.2876 -0.1286  0.7189
14754SOL     OW46893   4.151   2.020   1.301 -0.1047  0.0771  0.0477
14754SOL    HW146894   4.244   2.018   1.277 -0.0906 -0.2880  0.1260
14754SOL    HW246895   4.132   2.112   1.318 -0.1094  0.3612 -1.3772
14755SOL     OW46896   7.491   9.788   8.553 -0.0637 -0.0245  0.0786
14755SOL    HW146897   7.560   9.747   8.604 -0.1022  0.4078  0.4835
14755SOL    HW246898   7.495   9.745   8.468  0.7806  0.0697  0.0618
14756SOL     OW46899   1.349   5.582   0.493 -0.3397  0.0463 -0.1350
14756SOL    HW146900   1.357   5.622   0.406 -0.6563  0.7815  0.1736
14756SOL    HW246901   1.405   5.635   0.549 -0.9891  0.2416  0.3376
14757SOL     OW46902   3.481   7.403   8.325 -0.5356  0.2860  0.0672
14757SOL    HW146903   3.479   7.329   8.387 -0.4628 -0.4969 -0.8483
14757SOL    HW246904   3.431   7.372   8.250  0.5606  0.6946 -0.8545
14758SOL     OW46905   5.620   0.243   2.629 -0.2996  0.9977  0.1988
14758SOL    HW146906   5.666   0.273   2.551 -0.2189  0.1593 -0.0944
14758SOL    HW246907   5.621   0.147   2.622 -0.5972  0.9189  1.0515
14759SOL     OW46908   9.800   0.668   8.854 -0.3064  0.0730 -0.1599
14759SOL    HW146909   9.858   0.637   8.923 -0.7725 -0.6805 -0.0886
14759SOL    HW246910   9.768   0.752   8.885  0.4440  0.3180 -0.0287
14760SOL     OW46911   8.592   7.400   6.901  0.4460  0.2463 -0.7167
14760SOL    HW146912   8.512   7.425   6.947 -0.3359  0.7217 -2.2943
14760SOL    HW246913   8.562   7.351   6.825  1.6293  0.7175 -1.5139
14761SOL     OW46914   6.893   4.543   0.133  0.0836 -0.0859  0.3181
14761SOL    HW146915   6.948   4.527   0.056  0.3762  0.2419  0.4572
14761SOL    HW246916   6.925   4.481   0.199  1.5600  1.3591  1.0263
14762SOL     OW46917   3.861   9.872   1.493  0.0630  1.1691 -0.6232
14762SOL    HW146918   3.884   9.783   1.520 -0.1676  1.1401 -0.5229
14762SOL    HW246919   3.766   9.870   1.482  0.0074  1.5098 -0.2262
14763SOL     OW46920   0.319   7.600   4.302  0.4759  0.0670 -0.2402
14763SOL    HW146921   0.353   7.688   4.286 -0.2952  0.8404  2.0397
14763SOL    HW246922   0.225   7.612   4.317  0.4637 -1.0443  0.7377
14764SOL     OW46923   9.276   1.614   4.732  0.7058  0.5657  0.4944
14764SOL    HW146924   9.260   1.571   4.648 -0.8921 -1.7946  1.8817
14764SOL    HW246925   9.354   1.572   4.767 -0.7242 -1.1926  1.7513
14765SOL     OW46926   0.669   1.759   6.461  0.3418  0.5867  0.7544
14765SOL    HW146927   0.698   1.847   6.487 -0.0409  0.7078  0.7804
14765SOL    HW246928   0.598   1.738   6.523 -1.2409  1.2712 -0.7446
14766SOL     OW46929   2.148   0.704   2.677 -0.0434  0.3579  0.0873
14766SOL    HW146930   2.230   0.689   2.726  0.0656  1.3513  0.2457
14766SOL    HW246931   2.107   0.618   2.672  0.6005 -0.0083  0.7654
14767SOL     OW46932   5.838   1.811   4.539  0.1615 -0.2950  0.5816
14767SOL    HW146933   5.789   1.847   4.612 -2.1832 -2.5283  0.2315
14767SOL    HW246934   5.780   1.745   4.500  2.4353 -1.2331 -1.5244
14768SOL     OW46935   9.200   4.507   3.318 -0.3563 -0.0287 -0.1406
14768SOL    HW146936   9.274   4.476   3.266 -0.9001 -0.3471 -0.7446
14768SOL    HW246937   9.166   4.428   3.361  1.1094  0.4739  2.0878
14769SOL     OW46938   3.776   2.775   3.757 -0.0134 -0.3786  0.1959
14769SOL    HW146939   3.723   2.807   3.684  0.7754  0.5915  0.0310
14769SOL    HW246940   3.809   2.854   3.799  1.4004 -0.9593  0.2252
14770SOL     OW46941   4.884   6.165   7.525 -0.5946  0.1777  0.3817
14770SOL    HW146942   4.931   6.216   7.591  1.3973 -1.0507  0.0140
14770SOL    HW246943   4.846   6.230   7.466  0.0470  1.2466  1.1102
14771SOL     OW46944   7.082   0.115   0.565  0.6350  0.2605  0.6089
14771SOL    HW146945   7.046   0.068   0.490  0.6924  0.0264  0.7257
14771SOL    HW246946   7.094   0.205   0.534 -1.6579  0.7805  1.0677
14772SOL     OW46947   3.023   3.371  10.348 -0.9918  0.0359 -0.5453
14772SOL    HW146948   2.950   3.427  10.323 -0.9544  0.8583  1.0570
14772SOL    HW246949   3.067   3.418  10.418  0.4246 -0.9629 -0.7131
14773SOL     OW46950   8.555   7.081   4.986  0.6917  0.1298 -0.3614
14773SOL    HW146951   8.575   7.175   4.982  0.8467  0.1297  0.2596
14773SOL    HW246952   8.628   7.044   5.035 -0.4434  0.0191  1.3208
14774SOL     OW46953   7.325   9.050   1.857  0.2492 -0.2744  0.4441
14774SOL    HW146954   7.314   9.090   1.771  0.6023 -0.2294  0.4170
14774SOL    HW246955   7.315   9.122   1.919  0.8233 -0.1495  0.3979
14775SOL     OW46956   9.076   9.245   5.183 -0.1831 -0.0096  0.1070
14775SOL    HW146957   9.160   9.279   5.150 -0.3737 -1.2562 -1.8297
14775SOL    HW246958   9.100   9.168   5.234 -0.1616 -0.9970 -1.3318
14776SOL     OW46959   7.069   4.848   4.392  0.3032  0.4724 -0.2777
14776SOL    HW146960   7.026   4.923   4.435  0.4454  0.2969  0.1756
14776SOL    HW246961   7.163   4.869   4.397  0.6531 -1.1985  2.7816
14777SOL     OW46962   5.352   1.085   1.335  0.0534  0.1392  0.0420
14777SOL    HW146963   5.432   1.032   1.332  0.7797  1.2270 -0.7510
14777SOL    HW246964   5.354   1.126   1.422  0.7024  0.6515 -0.2054
14778SOL     OW46965   4.475   1.015   3.452  0.3194  0.0794  0.5271
14778SOL    HW146966   4.524   1.064   3.386  0.5557 -0.1460  0.5314
14778SOL    HW246967   4.495   1.060   3.535 -0.4374  0.7132  0.3773
14779SOL     OW46968   2.781   4.040   3.061 -0.1346  0.1212  0.5931
14779SOL    HW146969   2.832   4.120   3.074  2.3297 -0.8063 -2.2998
14779SOL    HW246970   2.700   4.071   3.018 -0.0600  1.2177  1.2064
14780SOL     OW46971   8.563   0.127   9.567 -0.4219  0.0621  0.4107
14780SOL    HW146972   8.583   0.204   9.621  1.8837 -1.2435  1.5412
14780SOL    HW246973   8.583   0.155   9.478  1.0631  0.6177  0.8856
14781SOL     OW46974   7.642   3.774   7.851  0.0368  0.2716  0.0709
14781SOL    HW146975   7.619   3.751   7.761  1.4724  1.2621 -0.6024
14781SOL    HW246976   7.677   3.864   7.844 -0.8312  0.7835  1.7847
14782SOL     OW46977   1.764   7.407   8.970  0.1110  0.3942 -0.5623
14782SOL    HW146978   1.824   7.481   8.976  1.1090 -0.2212 -2.3622
14782SOL    HW246979   1.820   7.330   8.969 -0.7862 -0.2718 -0.9282
14783SOL     OW46980   6.310   7.783  10.065 -0.3421  0.6783  0.4388
14783SOL    HW146981   6.315   7.721  10.137 -0.0214  1.0778  0.7605
14783SOL    HW246982   6.231   7.756  10.016 -0.2825  0.1076  0.6465
14784SOL     OW46983   1.699   8.435   8.203 -0.3660  0.3078  0.2949
14784SOL    HW146984   1.623   8.492   8.210 -0.6060 -0.1307  1.3666
14784SOL    HW246985   1.708   8.396   8.290  1.7782  1.2373  0.5594
14785SOL     OW46986   8.472   7.275   9.632 -0.0593  0.3375 -0.5109
14785SOL    HW146987   8.419   7.208   9.589 -3.0431  2.1047  0.0888
14785SOL    HW246988   8.409   7.323   9.686  2.5798  1.4331  1.8212
14786SOL     OW46989   1.924   3.306  10.354  0.2409 -0.2531  0.2318
14786SOL    HW146990   1.915   3.385  10.301  0.1777  0.4633  1.2825
14786SOL    HW246991   2.011   3.313  10.393  0.0933 -0.5183  0.6172
14787SOL     OW46992   8.221   1.776   1.489  0.0384  0.3677 -0.8609
14787SOL    HW146993   8.171   1.767   1.570 -0.9043  0.5578 -1.4123
14787SOL    HW246994   8.170   1.836   1.435 -1.3604 -2.5747 -3.0929
14788SOL     OW46995   8.512   4.417   4.857  0.1813  0.6457  0.1969
14788SOL    HW146996   8.458   4.489   4.889  0.5571  0.6457  0.8597
14788SOL    HW246997   8.498   4.347   4.921  0.4605  0.4186  0.0114
14789SOL     OW46998   0.560   1.095   7.688 -0.7443 -0.3945 -0.1140
14789SOL    HW146999   0.654   1.105   7.672 -0.4486 -0.1641  1.5639
14789SOL    HW247000   0.545   1.144   7.769 -1.7951 -2.6056  1.0993
14790SOL     OW47001   0.955   6.951   4.319 -0.0926  0.2337  0.2697
14790SOL    HW147002   0.899   6.978   4.246 -0.0179 -0.6025 -0.1002
14790SOL    HW247003   0.894   6.916   4.384 -0.2443  1.7188  0.9729
14791SOL     OW47004   4.970   1.728   8.076 -0.8874 -0.2559  0.3592
14791SOL    HW147005   4.948   1.648   8.028 -0.8338 -0.2355  0.2996
14791SOL    HW247006   5.026   1.777   8.015  0.2344 -0.8031  0.9138
14792SOL     OW47007   1.756   5.016   0.025 -0.7401 -0.1233  0.6842
14792SOL    HW147008   1.728   5.073  -0.047 -1.0808 -1.1995 -0.0652
14792SOL    HW247009   1.700   4.939   0.018  0.4653 -1.0623  0.9404
14793SOL     OW47010   8.473   1.214   2.630  0.0407  0.3737  0.3721
14793SOL    HW147011   8.510   1.156   2.564 -1.6119 -0.7600  0.3695
14793SOL    HW247012   8.415   1.273   2.581 -0.5619  0.0633  0.6934
14794SOL     OW47013   7.578   7.776   8.564 -0.5082 -0.2203 -0.5221
14794SOL    HW147014   7.595   7.864   8.598 -2.1665  0.1924 -0.6395
14794SOL    HW247015   7.573   7.787   8.469  2.7395 -1.1230 -0.8976
14795SOL     OW47016   9.624   0.198   7.898  0.0448 -0.2406  0.6325
14795SOL    HW147017   9.686   0.126   7.891  0.5000  0.1199  0.8738
14795SOL    HW247018   9.668   0.271   7.854  0.4538  0.4441  2.1110
14796SOL     OW47019   1.043   4.081   3.390  0.2348 -0.7070  0.1772
14796SOL    HW147020   0.967   4.058   3.444  0.0853 -0.4230  0.0941
14796SOL    HW247021   1.105   4.121   3.451 -0.8637  1.7597 -0.1967
14797SOL     OW47022   0.958   1.630   0.124  0.4682 -0.6628  0.3451
14797SOL    HW147023   1.021   1.579   0.175  3.7549  0.9254 -1.8073
14797SOL    HW247024   0.964   1.594   0.035 -0.0520  0.9306 -0.3671
14798SOL     OW47025   7.914   3.120   1.200  0.2968  0.2589  0.1144
14798SOL    HW147026   8.000   3.131   1.239  0.5146 -2.0986  0.4303
14798SOL    HW247027   7.928   3.129   1.106  1.4006 -2.4118 -0.0527
14799SOL     OW47028   9.110   0.264   0.431  0.1992  0.4801  0.7071
14799SOL    HW147029   9.111   0.357   0.450  3.0985  0.2505  2.2794
14799SOL    HW247030   9.200   0.235   0.445 -0.5349 -2.5359  0.0665
14800SOL     OW47031   5.155   9.678   6.232 -0.0998  0.0644  0.1282
14800SOL    HW147032   5.065   9.649   6.218  0.5650 -1.8093 -0.5128
14800SOL    HW247033   5.200   9.660   6.149  1.0686  0.1214  0.7196
14801SOL     OW47034   0.961   3.647   1.905 -0.8309  0.1934 -0.6428
14801SOL    HW147035   0.928   3.712   1.968  0.1896  0.0734  0.0288
14801SOL    HW247036   1.029   3.693   1.856 -0.3786 -0.2497 -0.4341
14802SOL     OW47037   4.740   6.161   8.719  0.4332 -0.0756 -0.1000
14802SOL    HW147038   4.824   6.161   8.766  1.9264 -1.5187 -2.5187
14802SOL    HW247039   4.753   6.098   8.647 -1.5261  2.1677 -2.6255
14803SOL     OW47040   7.612   6.105   7.376  0.1618 -0.4574  0.0392
14803SOL    HW147041   7.586   6.159   7.451 -0.5438 -0.5002 -0.1694
14803SOL    HW247042   7.607   6.015   7.407  0.4436 -0.4516  0.1099
14804SOL     OW47043   2.590   8.927   9.094 -0.4768 -0.1529  0.6775
14804SOL    HW147044   2.668   8.919   9.149  1.1996 -0.3370 -1.6023
14804SOL    HW247045   2.558   9.015   9.111  2.3892  1.3411 -0.9451
14805SOL     OW47046   9.162   0.634   4.114  0.2810  0.0085 -0.1632
14805SOL    HW147047   9.249   0.642   4.153 -0.8352 -1.7437  3.0488
14805SOL    HW247048   9.138   0.723   4.089  0.4925  1.7978  4.9948
14806SOL     OW47049   6.771   6.988   3.893 -0.5393 -1.1289 -0.7946
14806SOL    HW147050   6.737   6.946   3.973 -2.1384  0.4279 -0.5846
14806SOL    HW247051   6.693   7.021   3.849  0.5784  2.9444 -0.1469
14807SOL     OW47052   6.851   6.194   8.821 -0.1789  0.0592  0.0586
14807SOL    HW147053   6.853   6.290   8.823  1.3660  0.0449  0.5406
14807SOL    HW247054   6.943   6.168   8.826 -0.6545 -1.4953  2.8132
14808SOL     OW47055   8.427   0.499   3.124 -0.4417 -0.6627 -0.0060
14808SOL    HW147056   8.354   0.502   3.062  0.7218 -0.7226 -1.4277
14808SOL    HW247057   8.455   0.407   3.123  0.4127 -0.4053 -0.3988
14809SOL     OW47058   7.219   6.244   5.082  0.3551  0.0190 -0.2330
14809SOL    HW147059   7.290   6.202   5.130  1.4432  0.8069 -1.1152
14809SOL    HW247060   7.139   6.212   5.124  1.2515  0.1009  1.6108
14810SOL     OW47061   6.583   4.896   9.035 -0.3114  0.4436  0.0129
14810SOL    HW147062   6.612   4.864   9.121  0.9564  0.7653 -0.2714
14810SOL    HW247063   6.656   4.876   8.977 -1.2665 -0.0232 -1.0669
14811SOL     OW47064   2.960  10.264   8.845 -0.0278 -0.5348 -0.1270
14811SOL    HW147065   2.912  10.296   8.921  0.0848 -0.8751  0.0856
14811SOL    HW247066   3.038  10.319   8.841  0.4844 -1.1912  0.6150
14812SOL     OW47067   3.244   1.788   4.450  0.4195 -0.5756  0.0749
14812SOL    HW147068   3.274   1.791   4.359 -0.4762  0.8102 -0.2164
14812SOL    HW247069   3.218   1.697   4.464 -2.9118 -0.1744 -2.3014
14813SOL     OW47070   7.363   3.786   1.438 -0.0180 -0.2785 -0.4228
14813SOL    HW147071   7.406   3.829   1.512 -2.0715  1.4579 -0.1341
14813SOL    HW247072   7.395   3.833   1.361 -1.0081  0.7237 -0.2448
14814SOL     OW47073   2.961   0.580   3.303 -1.1833 -0.0616 -0.1172
14814SOL    HW147074   2.994   0.634   3.231 -0.7275  3.4841  2.4969
14814SOL    HW247075   2.866   0.590   3.299 -1.0692  1.9929  0.9438
14815SOL     OW47076   9.902   4.268   0.715  0.2970  0.3546  0.2329
14815SOL    HW147077   9.826   4.222   0.749 -0.3819 -0.0129 -1.6434
14815SOL    HW247078   9.906   4.242   0.623 -0.4691  4.3702 -1.1474
14816SOL     OW47079   4.249  10.346   2.331  0.1160 -0.8426 -0.4282
14816SOL    HW147080   4.274  10.425   2.379  0.9205 -0.6531 -1.1337
14816SOL    HW247081   4.289  10.274   2.381  1.0191 -0.6398 -0.8346
14817SOL     OW47082   5.459   3.269   4.372 -0.0304 -0.1683 -0.7190
14817SOL    HW147083   5.450   3.364   4.376 -1.7460 -0.3392  0.2503
14817SOL    HW247084   5.549   3.255   4.341  0.9078  1.7463  0.8871
14818SOL     OW47085   6.634   9.232   0.951 -0.1375  0.4639 -0.2258
14818SOL    HW147086   6.654   9.245   0.858  0.7457 -3.1685 -0.6907
14818SOL    HW247087   6.719   9.243   0.995  0.0808 -0.7971 -0.2972
14819SOL     OW47088   4.463   8.653   1.214  0.3178  0.0266  0.1787
14819SOL    HW147089   4.546   8.659   1.260  1.7801 -1.5620 -2.0049
14819SOL    HW247090   4.486   8.616   1.128 -2.7232 -1.0460 -0.3028
14820SOL     OW47091   9.549   6.587   5.381 -0.3150 -0.6353 -0.1511
14820SOL    HW147092   9.564   6.641   5.458 -0.8170  0.1776 -0.6101
14820SOL    HW247093   9.633   6.544   5.365 -0.2782 -0.9935  0.9776
14821SOL     OW47094  10.067   9.730   5.013 -0.1826  0.7262 -0.0368
14821SOL    HW147095   9.998   9.682   5.059  0.3324  0.3394  0.3476
14821SOL    HW247096  10.146   9.713   5.064  0.4624  0.0782 -1.2035
14822SOL     OW47097   5.078   4.549   9.591  0.8307  0.0105 -0.0189
14822SOL    HW147098   4.984   4.562   9.594  0.6952 -0.8471 -0.2834
14822SOL    HW247099   5.113   4.630   9.555  0.0913 -0.1060 -1.0340
14823SOL     OW47100   8.393   1.566   9.873  0.1337 -0.0202 -0.2659
14823SOL    HW147101   8.310   1.612   9.860  0.1327  0.1065  0.1752
14823SOL    HW247102   8.395   1.500   9.804 -0.7787 -0.6458  0.2857
14824SOL     OW47103   3.060   7.177   5.447 -0.1695  0.0830  0.4451
14824SOL    HW147104   3.133   7.198   5.505  1.8074 -1.6139 -1.2847
14824SOL    HW247105   3.053   7.253   5.388 -0.0457  0.3869  0.8151
14825SOL     OW47106   4.186   4.099   6.191  0.5062  0.2453  0.0212
14825SOL    HW147107   4.119   4.033   6.173 -0.7560  0.4649  3.1480
14825SOL    HW247108   4.254   4.052   6.239  0.9276  0.6834 -0.1449
14826SOL     OW47109   5.315   6.063   8.703  0.2660  0.6123 -0.3060
14826SOL    HW147110   5.294   6.093   8.791  0.7201  2.2285 -0.7182
14826SOL    HW247111   5.391   6.006   8.714 -0.3472 -0.0779  0.4504
14827SOL     OW47112   7.980   1.631   0.975  0.6458 -0.1437 -0.0497
14827SOL    HW147113   7.987   1.539   0.998  1.6515  0.0516  0.4768
14827SOL    HW247114   7.905   1.663   1.025 -0.5164 -0.9366 -1.2008
14828SOL     OW47115   3.897   1.023   5.144 -0.8338  0.4402 -0.0823
14828SOL    HW147116   3.932   1.077   5.073 -0.2694 -1.0930 -1.0107
14828SOL    HW247117   3.807   1.055   5.155 -1.0934  0.4383 -1.8127
14829SOL     OW47118   7.157   3.215  10.287  0.2012  0.1638 -0.0432
14829SOL    HW147119   7.098   3.290  10.281  1.1485  1.1616  2.2313
14829SOL    HW247120   7.098   3.139  10.285 -0.7286  0.8373 -3.0494
14830SOL     OW47121   6.137   4.215   4.626 -0.3908 -0.0367 -0.2451
14830SOL    HW147122   6.058   4.163   4.611 -0.7972  0.6528 -0.5636
14830SOL    HW247123   6.163   4.246   4.539  0.4199 -0.5104 -0.1828
14831SOL     OW47124   2.314   5.518   3.714 -0.2828 -0.0140  0.0027
14831SOL    HW147125   2.284   5.445   3.768  1.1820 -1.5989 -1.2041
14831SOL    HW247126   2.329   5.589   3.777  0.5967 -1.5239  1.6153
14832SOL     OW47127   4.346   3.515   7.744 -0.3786  0.5641  0.4078
14832SOL    HW147128   4.329   3.501   7.837  0.0849 -1.8044  0.1958
14832SOL    HW247129   4.435   3.551   7.741  0.3575 -1.1345  0.8386
14833SOL     OW47130   6.630   7.462   0.383  0.2124  0.1823  0.6311
14833SOL    HW147131   6.719   7.489   0.406  0.1483  0.4188  0.6066
14833SOL    HW247132   6.636   7.367   0.370  0.7157  0.3627 -0.5761
14834SOL     OW47133   2.294   4.662   7.644  0.0710 -0.1360  0.2840
14834SOL    HW147134   2.334   4.671   7.730 -0.1284 -1.5936  0.5486
14834SOL    HW247135   2.202   4.683   7.657  0.0838 -0.1460  0.3874
14835SOL     OW47136   9.658   0.744   1.259  0.9323 -0.0509  0.1711
14835SOL    HW147137   9.581   0.706   1.216  1.9095 -0.8925 -0.9187
14835SOL    HW247138   9.662   0.700   1.344 -1.1223  1.7515  1.3087
14836SOL     OW47139   3.820   9.473   9.611  0.2726  0.2189 -0.3557
14836SOL    HW147140   3.783   9.388   9.638  0.7444 -0.0467 -0.5282
14836SOL    HW247141   3.759   9.505   9.545  0.7059 -0.5493 -1.1574
14837SOL     OW47142   9.795   8.506  10.254 -0.5276  0.1358 -0.4411
14837SOL    HW147143   9.711   8.480  10.216 -0.4255  1.4292 -1.6343
14837SOL    HW247144   9.842   8.424  10.268 -1.4812 -0.5141 -0.9733
14838SOL     OW47145   2.968   6.508   9.689  0.1848  0.5422 -0.5039
14838SOL    HW147146   3.044   6.566   9.677  0.6192 -0.0416 -0.6622
14838SOL    HW247147   2.947   6.515   9.782 -0.8633  2.2672 -0.8315
14839SOL     OW47148   5.943   3.208   8.870 -0.0238 -0.0927 -0.0625
14839SOL    HW147149   5.992   3.137   8.831 -1.5309 -1.4134  0.3518
14839SOL    HW247150   5.937   3.185   8.963  1.5724  1.8529  0.6048
14840SOL     OW47151   7.240   4.230   7.951  0.8400  0.0125 -0.5001
14840SOL    HW147152   7.235   4.324   7.934  0.4983 -0.2485 -1.9763
14840SOL    HW247153   7.330   4.217   7.981  1.1754  0.6772 -1.1755
14841SOL     OW47154   9.665   5.946   3.900  0.0378 -0.1671 -0.3750
14841SOL    HW147155   9.611   5.915   3.973 -1.6589  1.3151 -0.9103
14841SOL    HW247156   9.679   6.039   3.919 -0.4979  0.2589 -1.9366
14842SOL     OW47157   7.307   7.743   0.910  0.2793 -0.1096 -0.4866
14842SOL    HW147158   7.393   7.702   0.919  0.9842  1.2154 -0.9373
14842SOL    HW247159   7.315   7.797   0.832 -0.3283  1.5686  0.5769
14843SOL     OW47160   2.941   1.304   7.328 -0.2111  0.4815 -0.0433
14843SOL    HW147161   3.006   1.234   7.343 -0.0877  0.6850  0.3956
14843SOL    HW247162   2.948   1.324   7.235 -1.5770 -1.4029 -0.6089
14844SOL     OW47163   1.144   1.292   0.819  0.2943  0.3583 -0.2672
14844SOL    HW147164   1.059   1.253   0.805 -0.3544  1.4355  0.4811
14844SOL    HW247165   1.177   1.252   0.900 -0.0364  0.7956  0.0891
14845SOL     OW47166   5.281   1.017   0.952  0.1276  0.2156 -0.1028
14845SOL    HW147167   5.213   1.011   0.885  0.0843 -0.0386 -0.0370
14845SOL    HW247168   5.344   1.079   0.917 -0.1422  0.4588 -0.1612
14846SOL     OW47169   3.758  10.352   8.051  0.0348 -0.3159  0.1925
14846SOL    HW147170   3.762  10.377   8.143  3.2670 -0.9862  0.3501
14846SOL    HW247171   3.839  10.303   8.036 -1.9832 -3.2377 -2.2086
14847SOL     OW47172   6.426   5.811   5.743 -0.0592  0.5087 -0.0124
14847SOL    HW147173   6.355   5.760   5.704 -2.7620 -0.5199  5.2957
14847SOL    HW247174   6.495   5.747   5.759 -0.2017  0.2764 -0.3080
14848SOL     OW47175   8.354  10.268   1.317 -0.3010  0.4421  0.1009
14848SOL    HW147176   8.383  10.248   1.229  0.6752 -2.5664  0.9912
14848SOL    HW247177   8.421  10.231   1.374 -1.9731  0.3464  2.1436
14849SOL     OW47178   0.377   0.383   2.696  0.6383 -0.1268 -0.8937
14849SOL    HW147179   0.418   0.405   2.780 -0.8851  0.1053 -0.1749
14849SOL    HW247180   0.436   0.419   2.631  2.5927 -1.5389  0.0010
14850SOL     OW47181   7.116   3.918   1.341  0.4976 -0.3468 -0.3649
14850SOL    HW147182   7.162   3.884   1.264  2.1112 -0.2388  0.5116
14850SOL    HW247183   7.178   3.908   1.413  0.1982  2.3236  0.3737
14851SOL     OW47184   9.564   2.069   8.989 -0.3183 -0.0478  0.0569
14851SOL    HW147185   9.533   2.018   8.915 -2.3071  1.9474 -0.5854
14851SOL    HW247186   9.536   2.158   8.971  2.0400  1.1399  1.6517
14852SOL     OW47187   7.871   6.601   8.924 -0.3011 -0.0353 -0.7078
14852SOL    HW147188   7.817   6.567   8.853 -0.7013 -0.0714 -0.3906
14852SOL    HW247189   7.936   6.532   8.939 -1.3537 -0.8601  0.1955
14853SOL     OW47190   8.272   3.330   9.589  0.4014  0.1815  0.3518
14853SOL    HW147191   8.178   3.317   9.597  0.2407 -0.8624 -2.0895
14853SOL    HW247192   8.286   3.423   9.602 -0.8460  0.2307  1.4952
14854SOL     OW47193   6.994   4.957   7.378 -0.0361 -0.4838 -0.6171
14854SOL    HW147194   7.003   5.021   7.307  1.9245 -0.8469 -0.7445
14854SOL    HW247195   7.079   4.956   7.420 -1.5769  0.9186  2.8912
14855SOL     OW47196   5.662  10.324   2.500  0.4607  0.0785 -0.1182
14855SOL    HW147197   5.653  10.230   2.485  1.2373 -0.0678  0.2256
14855SOL    HW247198   5.613  10.365   2.429  1.2106 -0.5849 -1.0533
14856SOL     OW47199   5.427   9.106   1.983 -0.3733  0.8232  0.1927
14856SOL    HW147200   5.428   9.165   2.058  0.0544  1.6343 -0.4269
14856SOL    HW247201   5.515   9.070   1.979  0.4094  2.6802 -1.3236
14857SOL     OW47202   9.494   7.858   5.119 -0.0477 -0.0319  0.2355
14857SOL    HW147203   9.452   7.869   5.205 -0.0141 -1.0459  0.3935
14857SOL    HW247204   9.573   7.807   5.137  0.0070 -0.1760 -0.3956
14858SOL     OW47205   2.136   0.106   0.795  0.1852 -0.6635 -0.7487
14858SOL    HW147206   2.150   0.131   0.703 -1.2914  2.1023 -0.3281
14858SOL    HW247207   2.224   0.087   0.828  1.1335  1.2331 -2.0020
14859SOL     OW47208  10.135   1.881   0.914  0.3947  0.3673  0.0951
14859SOL    HW147209  10.220   1.906   0.950  1.5935  0.2624 -2.5026
14859SOL    HW247210  10.109   1.954   0.858 -0.3080 -0.4100 -0.6338
14860SOL     OW47211   8.432   3.929   4.975  0.2845  0.3791 -0.2226
14860SOL    HW147212   8.428   3.835   4.994 -1.0161  0.2896 -0.8351
14860SOL    HW247213   8.369   3.942   4.904  0.4055  1.7283 -0.1131
14861SOL     OW47214   6.829   3.332   6.180 -0.4180  0.3606  0.4715
14861SOL    HW147215   6.850   3.404   6.240  2.2599 -1.0810  1.4492
14861SOL    HW247216   6.849   3.253   6.230 -0.4888 -0.9809 -1.5112
14862SOL     OW47217   7.131   0.403   7.246 -0.0385 -0.6381 -0.4959
14862SOL    HW147218   7.098   0.318   7.215 -0.7730 -0.4321 -0.2893
14862SOL    HW247219   7.138   0.393   7.341 -1.9587  0.1249 -0.2275
14863SOL     OW47220  10.232   1.691   1.553  0.1509  0.2919 -0.1354
14863SOL    HW147221  10.306   1.634   1.529  0.1122 -0.0179  0.4555
14863SOL    HW247222  10.253   1.775   1.513 -0.3560 -0.4165 -2.0377
14864SOL     OW47223   4.383   9.522   0.809 -0.2060 -0.4687 -0.1069
14864SOL    HW147224   4.435   9.494   0.884  1.4360 -0.5772 -1.2463
14864SOL    HW247225   4.356   9.440   0.767 -0.8675 -0.3997  0.1546
14865SOL     OW47226   9.555   0.624   3.383 -0.2451 -0.2630 -0.3639
14865SOL    HW147227   9.472   0.577   3.369 -1.0338  0.9157  0.1291
14865SOL    HW247228   9.597   0.578   3.455 -0.9995 -0.2269  0.1097
14866SOL     OW47229   7.171   3.105   3.199  0.1134 -0.4643 -0.0994
14866SOL    HW147230   7.095   3.063   3.159  0.5495  0.5299 -2.1454
14866SOL    HW247231   7.140   3.191   3.225  0.3424 -0.3082 -0.3234
14867SOL     OW47232   7.571   0.093   2.011 -0.2533  0.0940  0.0762
14867SOL    HW147233   7.579   0.003   1.980  0.7477 -0.3358  1.4651
14867SOL    HW247234   7.639   0.101   2.078 -1.6969  1.2254  1.4907
14868SOL     OW47235   5.757   3.670   4.128  0.1739  0.3261  0.0593
14868SOL    HW147236   5.704   3.747   4.150 -1.4809 -0.5958 -0.5277
14868SOL    HW247237   5.712   3.631   4.053  0.4630 -1.6877  0.8822
14869SOL     OW47238   2.515   9.355   0.285 -0.5809  0.1189 -0.4037
14869SOL    HW147239   2.427   9.317   0.287  0.2991 -2.0640 -0.7172
14869SOL    HW247240   2.526   9.395   0.372 -1.2888 -1.0532  0.2481
14870SOL     OW47241   2.163   4.814   9.310  0.4137  0.2889  0.1809
14870SOL    HW147242   2.217   4.735   9.309 -0.1374 -0.0892 -0.7414
14870SOL    HW247243   2.103   4.801   9.384  1.9962  1.0315  1.6812
14871SOL     OW47244   9.921   3.178   3.101  0.0420  0.3370 -0.0316
14871SOL    HW147245  10.012   3.149   3.089 -0.4120 -1.0684 -0.2928
14871SOL    HW247246   9.898   3.148   3.189 -0.0751  0.9736  0.1563
14872SOL     OW47247   3.609   4.078   4.709  0.1797  0.6201 -0.6191
14872SOL    HW147248   3.702   4.063   4.724  0.1519  1.2674  0.2692
14872SOL    HW247249   3.575   4.109   4.793 -1.1790 -1.1233 -0.4577
14873SOL     OW47250  10.210   5.664   4.564 -0.0296 -0.2154 -0.5844
14873SOL    HW147251  10.249   5.724   4.627 -1.6527  1.0508 -0.7272
14873SOL    HW247252  10.269   5.666   4.489 -0.1964  1.4782 -0.7124
14874SOL     OW47253   7.277   2.199   5.982 -0.0300  0.4390  0.0213
14874SOL    HW147254   7.312   2.261   5.918  3.0449 -1.7125 -0.6478
14874SOL    HW247255   7.330   2.213   6.060  0.1858 -0.7524  0.1103
14875SOL     OW47256   9.830   9.962   8.370  0.1213  0.0958 -0.1210
14875SOL    HW147257   9.767   9.890   8.368  1.1370 -0.8144 -1.1264
14875SOL    HW247258   9.783  10.037   8.335 -0.2484 -0.7113 -1.4146
14876SOL     OW47259   5.331   8.224   6.001  0.1547 -0.2205  0.1349
14876SOL    HW147260   5.259   8.261   6.052  1.8143  1.9632  1.0719
14876SOL    HW247261   5.410   8.260   6.042  1.7976 -2.3539 -0.9714
14877SOL     OW47262   8.731   6.672   6.409 -0.1388  0.8083 -0.4012
14877SOL    HW147263   8.753   6.624   6.488  0.0761  0.3578 -0.7342
14877SOL    HW247264   8.783   6.632   6.340 -1.8058 -0.1614 -1.1693
14878SOL     OW47265   9.905   7.415   7.382  0.0970 -0.8380 -0.3015
14878SOL    HW147266   9.971   7.484   7.370 -2.0866  1.3907 -0.5691
14878SOL    HW247267   9.949   7.348   7.433  3.1721 -0.4924 -2.1984
14879SOL     OW47268   6.181   5.338   6.708 -0.9167  0.8079 -0.0354
14879SOL    HW147269   6.270   5.373   6.711 -0.1760 -0.8366 -1.0853
14879SOL    HW247270   6.191   5.252   6.668 -2.6060 -0.6356  2.3522
14880SOL     OW47271   8.067   0.196   8.430  0.0202  0.0880  0.1802
14880SOL    HW147272   7.991   0.249   8.455  0.0189  0.3922 -0.4512
14880SOL    HW247273   8.035   0.106   8.430  0.1197  0.0346  1.6340
14881SOL     OW47274   7.088   9.576   9.281  0.3075 -0.1041 -0.2506
14881SOL    HW147275   7.128   9.498   9.319  0.4451 -0.0938 -0.3724
14881SOL    HW247276   6.999   9.578   9.317  1.0879  1.1044  1.8097
14882SOL     OW47277   1.137   5.723   7.134 -0.3695 -0.0499  0.1445
14882SOL    HW147278   1.161   5.734   7.226  4.2344  0.7963 -0.8950
14882SOL    HW247279   1.163   5.634   7.112 -2.5464 -0.6641 -0.1602
14883SOL     OW47280   4.454   3.462   0.098  0.0903  0.2357  0.2182
14883SOL    HW147281   4.389   3.527   0.074 -0.0707 -0.2569 -0.7481
14883SOL    HW247282   4.415   3.413   0.171  0.4276  1.5189  1.3042
14884SOL     OW47283   5.965   8.117  10.328  0.0183 -0.4801 -0.1568
14884SOL    HW147284   5.925   8.083  10.249 -1.4553  0.4258  0.1600
14884SOL    HW247285   5.924   8.068  10.399  0.5798 -0.5783  0.1057
14885SOL     OW47286  10.077   9.452   5.357 -0.5008  0.2991  0.1242
14885SOL    HW147287  10.076   9.356   5.360  0.4558  0.3071  1.0281
14885SOL    HW247288   9.990   9.477   5.389 -1.2145 -0.2525 -1.2400
14886SOL     OW47289   5.383   3.874   6.518  0.3982 -0.3663 -0.2100
14886SOL    HW147290   5.346   3.961   6.503 -0.6459 -1.0854 -2.2150
14886SOL    HW247291   5.403   3.872   6.612 -0.8674  1.5140  0.1589
14887SOL     OW47292   7.009   4.502   8.538  0.0489  0.6686  0.0258
14887SOL    HW147293   6.992   4.409   8.552  2.0909 -0.2036 -2.5628
14887SOL    HW247294   6.999   4.541   8.625  0.5439 -2.1913  1.4820
14888SOL     OW47295   7.694   8.061   2.574  0.6045  0.5613  0.3397
14888SOL    HW147296   7.707   8.144   2.528 -1.0153  0.7315  0.1379
14888SOL    HW247297   7.775   8.047   2.622  1.6072  1.3478 -1.0579
14889SOL     OW47298   8.530   9.338   7.914  0.3519 -0.4105 -0.4470
14889SOL    HW147299   8.615   9.302   7.940  1.0085  0.7976 -0.8202
14889SOL    HW247300   8.474   9.261   7.901  2.2322 -1.4995 -3.1601
14890SOL     OW47301   5.678   7.372  10.237  0.1090  0.3334 -0.0507
14890SOL    HW147302   5.655   7.421  10.315  2.9247 -0.2058  1.2619
14890SOL    HW247303   5.629   7.290  10.244  1.1148 -0.1744  1.7985
14891SOL     OW47304   1.857   4.852   3.737 -0.0491  0.1568 -0.3013
14891SOL    HW147305   1.918   4.923   3.719  2.1560 -1.7050 -0.5180
14891SOL    HW247306   1.772   4.896   3.746  1.2235  2.8086 -0.2751
14892SOL     OW47307   9.229   8.444   5.391 -0.2379  0.4127  0.3503
14892SOL    HW147308   9.317   8.483   5.385  0.4886 -1.2436 -0.2927
14892SOL    HW247309   9.230   8.373   5.327 -2.6908  1.4773 -1.0120
14893SOL     OW47310   4.439   5.732   3.988  0.2139 -0.6942 -0.9809
14893SOL    HW147311   4.403   5.738   4.077 -0.8384 -0.3755 -1.4150
14893SOL    HW247312   4.530   5.763   3.997 -0.4838  1.3663 -0.3685
14894SOL     OW47313   9.074   0.975   1.919 -0.5249  0.1422  0.7328
14894SOL    HW147314   9.167   0.998   1.921 -0.5535  0.6416 -1.5437
14894SOL    HW247315   9.028   1.057   1.903 -1.0466 -0.5251 -1.6675
14895SOL     OW47316   8.954   1.728   8.674  0.0009 -0.5858 -0.0273
14895SOL    HW147317   9.022   1.728   8.607 -0.2600  0.1453 -0.3034
14895SOL    HW247318   8.899   1.804   8.653  0.9585  0.7966  2.0712
14896SOL     OW47319   8.403   9.127   7.786  0.1977  0.3469  0.1586
14896SOL    HW147320   8.421   9.110   7.694 -0.2854  1.0657 -0.0757
14896SOL    HW247321   8.327   9.073   7.807 -0.4266  1.0721 -0.1910
14897SOL     OW47322   9.619   5.239   4.227 -1.0508 -0.1669 -0.3695
14897SOL    HW147323   9.599   5.331   4.212  2.9317  0.9968  0.3559
14897SOL    HW247324   9.616   5.228   4.322 -0.5147 -0.5060 -0.3847
14898SOL     OW47325   4.495   0.322   6.018  0.1611 -0.5324 -0.1383
14898SOL    HW147326   4.586   0.342   6.041 -0.4347  3.6948 -0.6062
14898SOL    HW247327   4.449   0.405   6.027 -3.4865 -2.2475 -0.9915
14899SOL     OW47328   1.807  10.343   2.211 -0.0160  0.3484 -0.0025
14899SOL    HW147329   1.852  10.409   2.159 -0.7140 -1.2224 -2.7999
14899SOL    HW247330   1.875  10.281   2.237  0.1121  0.2694 -0.5137
14900SOL     OW47331   9.842   3.736   1.708  0.0489 -0.5209  0.2237
14900SOL    HW147332   9.761   3.756   1.663  0.9178 -0.1133 -1.2191
14900SOL    HW247333   9.838   3.642   1.724 -0.4148 -0.6180 -0.4287
14901SOL     OW47334   2.850   3.200   4.231 -0.6853 -0.1295  0.0194
14901SOL    HW147335   2.864   3.181   4.138  0.2757  2.4446 -0.4689
14901SOL    HW247336   2.782   3.139   4.259  0.8560 -2.7906 -1.6471
14902SOL     OW47337   8.226   1.313   1.335  0.0646  0.0934 -0.8935
14902SOL    HW147338   8.259   1.316   1.245 -0.2159 -0.0271 -0.9996
14902SOL    HW247339   8.285   1.251   1.380  0.3773  0.3699 -0.9224
14903SOL     OW47340   6.589   5.543   9.507 -0.1066 -0.2349 -0.2830
14903SOL    HW147341   6.557   5.454   9.493  0.5895 -0.3085 -1.5709
14903SOL    HW247342   6.669   5.531   9.559  0.7363 -0.5029 -1.5933
14904SOL     OW47343   3.160   9.803   4.514 -0.0677  0.4129  1.3442
14904SOL    HW147344   3.197   9.819   4.427 -0.5730  0.0411  1.0554
14904SOL    HW247345   3.202   9.868   4.571 -0.4974  1.3439  0.6227
14905SOL     OW47346   2.955   1.695   0.617 -0.5412  0.1620 -0.3908
14905SOL    HW147347   2.860   1.703   0.614 -0.5834  0.0025  0.4695
14905SOL    HW247348   2.976   1.689   0.710  0.2071 -1.0345 -0.6260
14906SOL     OW47349   2.443   1.549   5.159 -0.0041  0.1006  0.3008
14906SOL    HW147350   2.531   1.564   5.125 -0.2700  0.2212 -0.3555
14906SOL    HW247351   2.446   1.580   5.249  0.2618  1.3697 -0.1296
14907SOL     OW47352   7.220   2.766   2.259 -0.0926 -0.5626 -0.4011
14907SOL    HW147353   7.310   2.741   2.281  0.9274  1.7681 -1.5846
14907SOL    HW247354   7.177   2.684   2.235  1.1867 -1.9803  1.7735
14908SOL     OW47355   2.877   6.793   9.484 -0.2095  0.2651 -0.7274
14908SOL    HW147356   2.961   6.811   9.527  0.0308  0.1349 -1.1416
14908SOL    HW247357   2.899   6.783   9.391 -0.6003 -0.3432 -0.7572
14909SOL     OW47358   8.548   5.525   5.278 -0.5307 -0.1315  0.0529
14909SOL    HW147359   8.478   5.489   5.333 -0.1472 -0.8076  0.1070
14909SOL    HW247360   8.565   5.611   5.316 -1.2639  0.0002  0.1004
14910SOL     OW47361   3.271   8.109   2.220 -0.7269  0.0730 -0.0885
14910SOL    HW147362   3.191   8.064   2.192  0.0283 -1.5236  0.1978
14910SOL    HW247363   3.338   8.041   2.219  0.9383  1.6536 -1.5222
14911SOL     OW47364   8.269   3.790   0.295  0.3880 -0.0681  0.0248
14911SOL    HW147365   8.360   3.808   0.272  0.4974  1.2814  1.3561
14911SOL    HW247366   8.255   3.837   0.377 -1.1286 -1.3555  0.5719
14912SOL     OW47367   1.487   1.464   2.511 -0.2111 -0.2579 -0.8045
14912SOL    HW147368   1.443   1.414   2.580  0.1827 -0.0314 -0.3847
14912SOL    HW247369   1.575   1.426   2.506  1.1238  2.2047  1.5236
14913SOL     OW47370   0.513   4.825   2.318  0.5637  0.3587 -0.4160
14913SOL    HW147371   0.560   4.890   2.266  2.1544 -0.7257 -0.3770
14913SOL    HW247372   0.456   4.877   2.375  2.6910  1.8171  0.5012
14914SOL     OW47373   8.191   3.567   7.517  0.0345  0.6332 -0.0881
14914SOL    HW147374   8.197   3.646   7.464  1.4467  0.8608  0.3588
14914SOL    HW247375   8.254   3.581   7.588  0.6620 -1.0603 -0.2527
14915SOL     OW47376  10.153   4.422   7.378  0.0420  0.3040  0.6559
14915SOL    HW147377  10.146   4.496   7.317  0.0206 -0.2012  0.0378
14915SOL    HW247378  10.127   4.459   7.463 -2.9845  0.3105 -0.1719
14916SOL     OW47379   7.064   1.908   7.971  0.3794 -0.0175  0.4472
14916SOL    HW147380   7.049   1.970   7.899 -0.1202  0.3348  0.8474
14916SOL    HW247381   7.132   1.849   7.938 -0.2798 -0.2421 -0.5390
14917SOL     OW47382  10.215   2.535  10.264 -0.0394 -0.4843 -0.3627
14917SOL    HW147383  10.266   2.491  10.332 -1.0435  0.7292  1.2367
14917SOL    HW247384  10.275   2.599  10.226  0.4621 -1.0191 -0.4893
14918SOL     OW47385   7.158   1.320   4.317 -0.2560 -0.3037 -0.2978
14918SOL    HW147386   7.213   1.246   4.342  1.4365  0.4966 -1.4363
14918SOL    HW247387   7.103   1.286   4.247 -0.0248 -0.6830 -0.2984
14919SOL     OW47388   5.438   4.654   1.088 -0.0461 -0.3137  0.3886
14919SOL    HW147389   5.418   4.747   1.099 -2.0481 -0.4298 -1.6283
14919SOL    HW247390   5.482   4.629   1.170 -1.5912  1.8345  1.9833
14920SOL     OW47391   8.831  10.168   9.579  0.0787  0.0276 -0.4150
14920SOL    HW147392   8.918  10.204   9.564  0.7520 -1.2629  0.2484
14920SOL    HW247393   8.793  10.226   9.646 -0.4577  1.8848 -2.2156
14921SOL     OW47394   8.718   3.623   5.773  0.5031 -0.6294  0.2194
14921SOL    HW147395   8.732   3.633   5.679  0.0307  0.1437  0.2282
14921SOL    HW247396   8.800   3.586   5.806  0.6073 -1.0703 -0.5188
14922SOL     OW47397   4.035   3.223   5.044 -0.1397 -0.1690 -0.3980
14922SOL    HW147398   3.940   3.216   5.050 -0.0454 -0.5142  1.4294
14922SOL    HW247399   4.068   3.142   5.083  0.8913  0.4188  0.0147
14923SOL     OW47400   1.221   4.729   8.063  0.2762 -0.4241 -0.0772
14923SOL    HW147401   1.305   4.704   8.025 -0.0906 -0.4271 -0.9050
14923SOL    HW247402   1.232   4.717   8.157  0.9435 -1.1939 -0.2461
14924SOL     OW47403   7.021   1.452   0.663  0.4236  0.2042  0.7438
14924SOL    HW147404   7.057   1.363   0.667  1.2328  0.4734 -0.2326
14924SOL    HW247405   6.931   1.443   0.694 -0.1649 -1.3264 -1.2591
14925SOL     OW47406   5.765   8.275   5.845 -0.2040 -0.2746  0.0803
14925SOL    HW147407   5.676   8.265   5.811 -0.3360 -1.0727  0.6404
14925SOL    HW247408   5.814   8.204   5.804  1.0460  2.0458 -2.8913
14926SOL     OW47409   9.292   7.594   8.630 -0.3403 -0.1649  0.0604
14926SOL    HW147410   9.316   7.505   8.604  0.8872  0.2463 -0.3029
14926SOL    HW247411   9.197   7.594   8.631 -0.3937 -2.0489  2.0920
14927SOL     OW47412   4.271   3.087   3.537  0.2315  0.2828 -0.1410
14927SOL    HW147413   4.204   3.104   3.471 -0.3777  3.0644  1.0570
14927SOL    HW247414   4.223   3.054   3.613  0.3335  1.2768  0.3675
14928SOL     OW47415   2.722   2.715   4.922  0.0868 -0.4216 -0.0405
14928SOL    HW147416   2.704   2.621   4.923 -1.0063 -0.2938 -1.9450
14928SOL    HW247417   2.767   2.730   4.839 -0.7164  0.8675 -0.2759
14929SOL     OW47418   6.272   5.914   5.944 -0.6524  0.2023 -0.3030
14929SOL    HW147419   6.338   5.862   5.897 -1.9714 -0.2895 -1.6748
14929SOL    HW247420   6.236   5.972   5.878 -1.0975  0.9815  0.6076
14930SOL     OW47421   9.950   1.523   0.961 -0.5217  0.6437  0.3968
14930SOL    HW147422   9.985   1.442   0.926 -3.3272 -0.4576 -0.1454
14930SOL    HW247423   9.940   1.507   1.055 -0.4452  0.6214  0.4011
14931SOL     OW47424   4.182   5.798   7.219 -0.5884  0.4641 -0.2037
14931SOL    HW147425   4.158   5.889   7.237  1.2340  0.9045  0.2132
14931SOL    HW247426   4.265   5.804   7.172  0.5761 -0.9975  1.5199
14932SOL     OW47427   5.054   4.924   1.204  0.6015  0.6059 -0.3371
14932SOL    HW147428   5.060   4.828   1.207 -0.2344  0.5421  2.9799
14932SOL    HW247429   4.997   4.942   1.130  0.0864 -1.5422 -0.5260
14933SOL     OW47430   3.974   2.670   3.230 -0.1494  0.1470  0.0683
14933SOL    HW147431   3.935   2.686   3.144 -2.7184 -0.8606  0.9349
14933SOL    HW247432   4.028   2.748   3.247 -0.9982  1.1862 -1.6728
14934SOL     OW47433   8.819   7.197   8.784 -0.3806 -0.0967  0.1171
14934SOL    HW147434   8.870   7.253   8.726 -1.2484 -0.3015 -0.8723
14934SOL    HW247435   8.729   7.226   8.771 -0.7495 -1.1736  0.2171
14935SOL     OW47436   1.560   8.979   8.372  0.4000  0.1823  0.1144
14935SOL    HW147437   1.608   9.003   8.292  2.6354 -0.6398  1.1306
14935SOL    HW247438   1.487   8.925   8.340  1.0979  0.0650 -1.3838
14936SOL     OW47439   3.269  10.138   2.794 -0.1307  0.0847  0.4741
14936SOL    HW147440   3.338  10.117   2.731 -1.1494 -1.0592 -0.3139
14936SOL    HW247441   3.316  10.163   2.874  1.2382 -2.1412  0.4471
14937SOL     OW47442   2.265   7.105   9.471  0.3541  0.8530  0.0524
14937SOL    HW147443   2.185   7.112   9.419 -0.3109 -1.3731  0.6467
14937SOL    HW247444   2.330   7.066   9.412  0.8776  2.2240 -0.2945
14938SOL     OW47445   5.217   5.288   3.095 -0.2465 -0.2000  0.0840
14938SOL    HW147446   5.162   5.365   3.084 -0.3988 -0.2992  0.1564
14938SOL    HW247447   5.161   5.223   3.136  0.3237  0.1971  1.5529
14939SOL     OW47448   4.944  10.271   6.212  0.4552  0.5615 -0.1471
14939SOL    HW147449   4.946  10.366   6.201  0.7445  0.4218 -1.5424
14939SOL    HW247450   4.958  10.257   6.305 -0.5045  1.9139  0.2316
14940SOL     OW47451   9.889   8.041   9.439  0.5416  0.2565  0.5280
14940SOL    HW147452   9.979   8.009   9.451 -0.5808 -2.8332  1.9985
14940SOL    HW247453   9.868   8.084   9.522  0.8217  1.4837 -0.0278
14941SOL     OW47454   2.799   2.826   7.285 -0.1567 -0.0927 -0.3091
14941SOL    HW147455   2.851   2.848   7.208  1.4051 -0.3511  0.6240
14941SOL    HW247456   2.710   2.815   7.252  0.5850 -0.8618 -2.1778
14942SOL     OW47457   5.785   1.977   2.612  0.2398  0.5750 -0.2796
14942SOL    HW147458   5.750   1.917   2.678 -0.8923  1.5321  0.0463
14942SOL    HW247459   5.820   1.920   2.543 -1.8307 -0.4997 -0.5333
14943SOL     OW47460   3.549   0.286   2.262  0.0829  0.3250 -0.0286
14943SOL    HW147461   3.506   0.365   2.231  1.3174  1.7213  1.6348
14943SOL    HW247462   3.543   0.290   2.358  0.6046 -1.3487  0.1192
14944SOL     OW47463   1.173   2.176   8.890 -0.3295 -0.0428  0.2486
14944SOL    HW147464   1.267   2.157   8.892  0.3283  2.8413  0.3469
14944SOL    HW247465   1.157   2.208   8.801 -0.7956  1.2454  0.7691
14945SOL     OW47466   0.944   0.884   3.247  0.0572  0.6032 -0.3990
14945SOL    HW147467   1.036   0.859   3.254 -0.2473 -0.7290 -0.7913
14945SOL    HW247468   0.897   0.809   3.283 -0.8648  1.5720  0.4609
14946SOL     OW47469   4.800   5.302   6.572 -0.5303  0.3302 -0.3635
14946SOL    HW147470   4.874   5.361   6.581 -0.3231  0.5126 -2.7108
14946SOL    HW247471   4.836   5.223   6.533 -0.9676 -1.0855  1.9167
14947SOL     OW47472   4.706   0.418   5.266  0.4071  0.5637  0.0234
14947SOL    HW147473   4.642   0.395   5.199  0.2742  2.4673 -0.5760
14947SOL    HW247474   4.665   0.395   5.349  0.0534 -0.6614 -0.4720
14948SOL     OW47475   1.966   6.600   4.935 -0.3646 -0.0300  0.1100
14948SOL    HW147476   2.030   6.619   5.003 -0.7063 -0.2996  0.5130
14948SOL    HW247477   1.975   6.506   4.918 -0.1343  0.0741 -0.3742
14949SOL     OW47478   7.179   4.887   8.669  0.0034 -0.0425 -0.4607
14949SOL    HW147479   7.140   4.802   8.689 -0.1292  0.0168 -0.4652
14949SOL    HW247480   7.261   4.887   8.718  0.0506 -0.2124 -0.5383
14950SOL     OW47481   1.565   7.342   2.279 -0.6159  0.2324  0.0102
14950SOL    HW147482   1.509   7.284   2.331 -1.1263  0.0482 -0.7465
14950SOL    HW247483   1.505   7.405   2.240  0.0799  2.4752  2.2675
14951SOL     OW47484   7.887   7.860   0.157 -0.1643 -0.1293  0.1396
14951SOL    HW147485   7.915   7.930   0.215 -0.4077  0.3699 -0.3367
14951SOL    HW247486   7.926   7.781   0.195 -1.0059  0.0542  1.4454
14952SOL     OW47487   7.599   0.716  10.333 -0.2057  0.3871  0.4861
14952SOL    HW147488   7.633   0.723  10.423  1.6759  1.5828 -0.2690
14952SOL    HW247489   7.636   0.791  10.288 -0.3007 -0.7322 -1.5651
14953SOL     OW47490   9.855   8.669   7.945  0.7413  0.2041  0.2897
14953SOL    HW147491   9.907   8.636   8.019 -0.6040 -2.9335 -0.0099
14953SOL    HW247492   9.903   8.640   7.867 -0.4604 -1.0763  0.0031
14954SOL     OW47493   7.166   0.247   8.545  0.0041  0.4500  0.0390
14954SOL    HW147494   7.135   0.326   8.502  0.1651  0.8560  0.6656
14954SOL    HW247495   7.192   0.189   8.473 -1.2950  0.4597 -0.4635
14955SOL     OW47496   7.804   2.001   5.137 -0.7840  0.1778  0.5170
14955SOL    HW147497   7.886   1.980   5.181 -0.4752 -1.1635 -0.6193
14955SOL    HW247498   7.737   1.955   5.187 -0.7373  0.5752  0.9468
14956SOL     OW47499   3.987   6.360   8.024  0.0693 -0.3533 -0.0079
14956SOL    HW147500   3.952   6.385   7.939  0.1234 -1.2399 -0.3052
14956SOL    HW247501   3.970   6.266   8.030 -1.2504 -0.0738  1.5760
14957SOL     OW47502   7.946   4.299   8.667  0.9613  0.3934  0.7863
14957SOL    HW147503   7.986   4.346   8.594  0.7297 -2.4267 -1.3272
14957SOL    HW247504   8.008   4.309   8.739  1.0491  3.5468  0.4297
14958SOL     OW47505   7.700   6.248   2.455  0.3049  0.4403  0.0079
14958SOL    HW147506   7.710   6.155   2.475  1.5639  0.3331 -0.9787
14958SOL    HW247507   7.788   6.284   2.463  0.3592  0.9656 -2.3414
14959SOL     OW47508   5.314   6.642   3.695 -0.8756  0.0720 -0.4321
14959SOL    HW147509   5.345   6.615   3.608 -1.5036 -2.8289  0.1581
14959SOL    HW247510   5.394   6.660   3.744 -0.3153 -1.4967 -0.6960
14960SOL     OW47511   8.125   9.444   9.656 -0.2656 -0.2213  0.2954
14960SOL    HW147512   8.212   9.482   9.644 -0.7209  0.7806  0.0838
14960SOL    HW247513   8.134   9.353   9.628  0.5610  0.0518 -0.3404
14961SOL     OW47514   2.434   2.506   9.176 -0.2323 -0.2501 -0.3715
14961SOL    HW147515   2.472   2.432   9.129 -2.8194 -1.5562 -0.5801
14961SOL    HW247516   2.440   2.482   9.268  0.5391  0.1338 -0.3128
14962SOL     OW47517   4.935   9.035   5.015  0.4499 -0.3341  0.2980
14962SOL    HW147518   4.850   8.992   4.999 -0.0308  0.1698  1.4154
14962SOL    HW247519   4.942   9.100   4.945 -0.2934 -0.0885  0.4432
14963SOL     OW47520   4.792   5.136   0.347  0.3284 -0.2038  0.2124
14963SOL    HW147521   4.817   5.167   0.434 -2.7602 -1.0730  1.5390
14963SOL    HW247522   4.753   5.212   0.305  0.2793 -0.2072  0.2511
14964SOL     OW47523   4.513   6.859   7.059 -0.5748  0.5958 -0.3216
14964SOL    HW147524   4.546   6.780   7.103 -1.1312  0.4150 -0.2199
14964SOL    HW247525   4.547   6.932   7.111 -0.2044  0.4181 -0.3135
14965SOL     OW47526   1.868   1.588   5.304 -0.2261  0.7033 -0.3918
14965SOL    HW147527   1.866   1.493   5.288 -0.8702  0.7411 -0.5831
14965SOL    HW247528   1.806   1.623   5.241  0.4235  1.3160 -0.6945
14966SOL     OW47529   0.140   0.424   9.195 -0.0044  0.0773  0.3400
14966SOL    HW147530   0.156   0.512   9.162 -1.7039  0.3532  0.1700
14966SOL    HW247531   0.133   0.370   9.117 -1.7999  0.3362  0.2710
14967SOL     OW47532   4.466   4.300   6.758 -0.6054 -0.5581 -0.1026
14967SOL    HW147533   4.465   4.227   6.819 -0.5359 -0.3497  0.1490
14967SOL    HW247534   4.474   4.259   6.672 -0.6809 -0.8506  0.0294
14968SOL     OW47535   8.100  10.056   4.767  0.1649  0.0971 -0.1960
14968SOL    HW147536   8.074   9.972   4.805 -2.4305  0.9916  0.1484
14968SOL    HW247537   8.048  10.064   4.688  0.6889  1.2061 -0.4425
14969SOL     OW47538   9.546   0.045   0.332  0.6230  0.0710 -0.0304
14969SOL    HW147539   9.634   0.026   0.301  0.7521  0.0465  0.3494
14969SOL    HW247540   9.528  -0.022   0.397 -0.1413 -0.6476 -0.9498
14970SOL     OW47541   0.358   3.036   9.163 -0.7806  0.0027 -0.2898
14970SOL    HW147542   0.445   3.004   9.189 -0.2421  3.0545  2.1617
14970SOL    HW247543   0.297   2.979   9.209  0.0318 -0.0428  0.7795
14971SOL     OW47544   2.970   6.166   6.912  0.3493 -0.0483  0.3937
14971SOL    HW147545   2.964   6.100   6.981  0.4198  1.3836  1.8141
14971SOL    HW247546   2.956   6.249   6.956 -0.0060  0.8983 -1.3976
14972SOL     OW47547   8.582  10.143   8.618  0.3258  0.1293 -0.2181
14972SOL    HW147548   8.527  10.094   8.679  1.5607 -0.2712  0.6258
14972SOL    HW247549   8.596  10.227   8.660 -0.7298  0.7511 -1.0659
14973SOL     OW47550   8.671  10.277   2.507 -0.0835 -0.1319  0.0511
14973SOL    HW147551   8.642  10.239   2.590  0.3108  2.3135  1.4123
14973SOL    HW247552   8.766  10.269   2.509 -0.0292  0.4662  0.1432
14974SOL     OW47553   8.504   9.361   1.757  0.3883 -0.1321 -0.4304
14974SOL    HW147554   8.515   9.280   1.707 -1.0310 -0.0861 -0.8573
14974SOL    HW247555   8.457   9.419   1.697  0.1691  0.5204  0.3677
14975SOL     OW47556   9.696   4.861   9.102  0.3279  0.4506  0.2228
14975SOL    HW147557   9.753   4.937   9.104 -0.5340  1.1144 -0.0290
14975SOL    HW247558   9.702   4.823   9.190 -2.0513  2.9378  1.5892
14976SOL     OW47559   1.121   3.701   7.204  0.3011 -0.1773 -0.6984
14976SOL    HW147560   1.188   3.703   7.137  1.0171 -1.5750 -0.0503
14976SOL    HW247561   1.121   3.612   7.237 -0.5651  0.2754  0.6370
14977SOL     OW47562   7.587   4.858   3.711 -0.5804  0.5127 -0.2665
14977SOL    HW147563   7.573   4.767   3.738  0.3658  1.0171  2.0936
14977SOL    HW247564   7.682   4.867   3.707 -0.6654  1.5104 -0.1320
14978SOL     OW47565  10.218   6.632   6.110  0.3185 -0.3754 -0.6007
14978SOL    HW147566  10.165   6.664   6.183 -0.4677 -2.7943 -0.0460
14978SOL    HW247567  10.297   6.687   6.112 -0.2353  0.4141  1.2836
14979SOL     OW47568   0.943   6.060   9.658 -0.0186 -0.0822  0.0093
14979SOL    HW147569   0.849   6.069   9.648  0.1683  1.0251 -0.8978
14979SOL    HW247570   0.961   6.089   9.748 -0.4828  0.1867  0.0161
14980SOL     OW47571   9.181   7.696   7.127 -0.1717 -0.2479 -0.1042
14980SOL    HW147572   9.115   7.741   7.074  0.5531 -0.7602 -1.4976
14980SOL    HW247573   9.150   7.704   7.217 -1.5244  0.5263 -0.6197
14981SOL     OW47574  10.051   7.583   9.576  0.2128 -0.1232  0.4222
14981SOL    HW147575  10.132   7.623   9.544  0.3174 -0.8543 -0.2731
14981SOL    HW247576  10.077   7.533   9.653  0.7915 -1.7433 -0.7524
14982SOL     OW47577   7.434   3.860  10.028  0.3225  0.0362 -0.1407
14982SOL    HW147578   7.442   3.911  10.109 -2.4684  0.2381  0.1220
14982SOL    HW247579   7.395   3.777  10.056  0.3004 -0.3038 -1.1578
14983SOL     OW47580   5.258   5.663   5.360 -0.2131  0.6383  0.3707
14983SOL    HW147581   5.166   5.648   5.382  0.0867 -0.0313  1.2112
14983SOL    HW247582   5.301   5.678   5.444  0.6220 -0.0192  0.0734
14984SOL     OW47583   5.439   4.087   8.973  0.0785  0.2629  0.5075
14984SOL    HW147584   5.421   4.046   9.058 -0.1894  0.0853  0.3667
14984SOL    HW247585   5.530   4.063   8.954  0.0157 -0.0256  0.5620
14985SOL     OW47586   0.036   8.947   4.775 -0.2475 -0.0268  0.5781
14985SOL    HW147587  -0.037   8.905   4.731  0.5328 -1.9484  1.0404
14985SOL    HW247588   0.077   9.000   4.706  0.8867 -2.8554 -1.1108
14986SOL     OW47589   6.359   6.239   3.443  0.0870 -0.2355  0.5484
14986SOL    HW147590   6.333   6.297   3.515 -0.2667 -0.9196  0.9822
14986SOL    HW247591   6.277   6.215   3.400  0.3103  0.2975 -0.1925
14987SOL     OW47592   5.137  10.189   6.923  0.0184 -0.0138 -0.8351
14987SOL    HW147593   5.104  10.125   6.860 -1.0034 -0.3504  0.0046
14987SOL    HW247594   5.177  10.258   6.870  0.4415 -0.9722 -1.7807
14988SOL     OW47595   1.701   7.829  10.119 -0.2040  0.3017 -0.1769
14988SOL    HW147596   1.646   7.752  10.100  0.8220 -0.3649 -0.5389
14988SOL    HW247597   1.789   7.803  10.090  0.6947  0.6411  2.0943
14989SOL     OW47598   1.039   6.189   9.930  0.7493  0.9343 -0.4566
14989SOL    HW147599   1.006   6.268   9.887 -2.6462 -0.6708 -1.0931
14989SOL    HW247600   0.978   6.174  10.002  1.0227 -1.3360 -0.6216
14990SOL     OW47601   9.031   5.622   7.523 -0.4679  0.0719 -0.0565
14990SOL    HW147602   9.036   5.713   7.495 -1.2978  0.5960  1.4187
14990SOL    HW247603   8.946   5.591   7.491 -0.1529 -0.2136 -0.6247
14991SOL     OW47604   8.012   1.716   8.169  0.4733 -0.6454 -0.0559
14991SOL    HW147605   8.044   1.685   8.254  5.3422  0.6351 -1.0847
14991SOL    HW247606   8.048   1.654   8.106  0.4740  0.6485 -1.3926
14992SOL     OW47607   8.042   1.340   9.573 -0.6940  0.4847 -0.8171
14992SOL    HW147608   7.989   1.261   9.577  0.0902 -0.0218  1.4992
14992SOL    HW247609   8.073   1.344   9.483 -1.8824 -1.0763 -1.3360
14993SOL     OW47610  10.175   3.489   8.150 -0.1729  0.3543 -0.6854
14993SOL    HW147611  10.146   3.521   8.236  1.0505 -0.2083 -0.0498
14993SOL    HW247612  10.232   3.415   8.169 -0.7042 -0.4429 -2.0347
14994SOL     OW47613   1.414   4.589   9.941  0.1304  0.3679 -0.2842
14994SOL    HW147614   1.342   4.539   9.979  1.7849 -0.7277  1.6389
14994SOL    HW247615   1.407   4.675   9.982 -1.2526  0.9725 -1.6982
14995SOL     OW47616   1.369   3.083   1.231 -0.0449 -0.1955 -0.5228
14995SOL    HW147617   1.448   3.101   1.180  1.1407  2.6397  2.0527
14995SOL    HW247618   1.401   3.047   1.314 -1.3186  1.6723  0.8542
14996SOL     OW47619   6.309   2.781   8.959  0.0945  0.0461 -0.1779
14996SOL    HW147620   6.305   2.826   9.043  0.8160 -1.6072  0.7985
14996SOL    HW247621   6.274   2.694   8.977  0.1920 -0.3180 -1.6123
14997SOL     OW47622   8.428   2.146   4.756  0.0619 -0.5326  0.1660
14997SOL    HW147623   8.351   2.090   4.746 -1.7917  1.5158  1.8645
14997SOL    HW247624   8.477   2.108   4.829 -2.5002  1.2236  3.0269
14998SOL     OW47625   8.230   4.389   9.390  0.5215 -0.3628 -0.2753
14998SOL    HW147626   8.323   4.409   9.398  0.5147  1.5725 -3.2608
14998SOL    HW247627   8.187   4.446   9.454  1.2750  0.1754 -0.2471
14999SOL     OW47628   8.778   7.996   0.972 -0.0154  0.4599  0.4071
14999SOL    HW147629   8.844   7.943   0.926  0.1276  1.7115 -0.9063
14999SOL    HW247630   8.812   8.004   1.061  0.7251 -0.3709  0.2160
15000SOL     OW47631   2.239   4.108  10.263 -0.0812  0.3699  0.1802
15000SOL    HW147632   2.322   4.077  10.228 -0.0342  0.8997 -0.2022
15000SOL    HW247633   2.232   4.069  10.350  0.2888 -0.1482 -0.0217
15001SOL     OW47634   3.400   3.229   3.392  0.0665  0.1467  0.4372
15001SOL    HW147635   3.405   3.144   3.435  0.1105  1.2987  2.8628
15001SOL    HW247636   3.342   3.281   3.447 -0.7577  1.4455 -1.5135
15002SOL     OW47637   1.745   6.081   7.521  0.8277 -0.4546  0.4104
15002SOL    HW147638   1.829   6.078   7.474  0.8838 -0.4180  0.5067
15002SOL    HW247639   1.770   6.089   7.613  0.7258  1.3777  0.3232
15003SOL     OW47640   7.209   7.183   9.487 -0.3085 -0.4903 -0.3910
15003SOL    HW147641   7.195   7.251   9.421  0.3964  1.1780  1.0745
15003SOL    HW247642   7.300   7.157   9.476 -0.6402 -1.3942 -1.0958
15004SOL     OW47643   8.736   4.919   5.526 -0.6446 -0.2094  1.3630
15004SOL    HW147644   8.822   4.880   5.511 -0.7228  0.1203 -0.1186
15004SOL    HW247645   8.678   4.845   5.539 -0.4727 -0.5266  0.3916
15005SOL     OW47646   9.656   2.560   3.421 -0.0452  0.1141 -0.4302
15005SOL    HW147647   9.667   2.653   3.437 -0.0842  0.0460  0.0250
15005SOL    HW247648   9.602   2.554   3.342 -0.3491  0.4785 -0.2520
15006SOL     OW47649   5.081   8.996   5.522 -0.3842  0.6830  0.0462
15006SOL    HW147650   5.121   8.912   5.502 -0.5617  0.9521 -1.5557
15006SOL    HW247651   5.065   9.036   5.437 -1.6062  1.7324  0.7354
15007SOL     OW47652   3.811   1.601   2.392 -0.1905 -0.1467 -0.2676
15007SOL    HW147653   3.762   1.644   2.323  0.6112 -1.3634 -1.6460
15007SOL    HW247654   3.788   1.649   2.472  0.3082  2.5251 -1.6254
15008SOL     OW47655   5.183   1.886   8.013 -0.0682 -0.1582 -0.1983
15008SOL    HW147656   5.252   1.879   7.947 -1.0624  0.6463 -1.3415
15008SOL    HW247657   5.221   1.845   8.091  2.1190  1.2309 -0.4563
15009SOL     OW47658   2.930   3.600   0.634  0.4145 -0.8474 -0.3475
15009SOL    HW147659   3.022   3.578   0.625  1.2150  2.1535 -0.5323
15009SOL    HW247660   2.915   3.606   0.729  0.8861  0.2624 -0.3284
15010SOL     OW47661   1.058   0.258   9.032 -0.1332  0.1967  0.1896
15010SOL    HW147662   1.015   0.344   9.038 -2.0488 -0.7184  0.2736
15010SOL    HW247663   1.041   0.229   8.943  0.6326 -0.0524  0.1175
15011SOL     OW47664   8.835   3.054   3.602  0.2750  0.5525  0.0175
15011SOL    HW147665   8.870   3.126   3.550 -0.3339  0.5138 -0.4565
15011SOL    HW247666   8.769   3.096   3.658  0.1025  0.4012 -0.0732
15012SOL     OW47667   0.720   1.778   9.313 -0.4051 -0.0111  0.1271
15012SOL    HW147668   0.645   1.724   9.284 -1.5763  1.9568 -0.7099
15012SOL    HW247669   0.727   1.846   9.247  1.6217  0.3516  0.6696
15013SOL     OW47670   3.088   6.045   8.823  0.4208 -0.0339 -0.3875
15013SOL    HW147671   3.162   5.985   8.808 -1.5808 -3.1445  1.1065
15013SOL    HW247672   3.050   6.058   8.736  2.5085  1.4726 -1.1549
15014SOL     OW47673   6.354   8.647   3.664 -0.0924 -0.1622  0.7696
15014SOL    HW147674   6.295   8.640   3.589 -0.8420 -2.0291  1.4698
15014SOL    HW247675   6.404   8.727   3.648  0.8933 -1.2694 -2.5087
15015SOL     OW47676   1.869   4.700   3.127  1.2673  0.3038 -0.4815
15015SOL    HW147677   1.928   4.642   3.079  0.2945 -1.9737  0.8680
15015SOL    HW247678   1.864   4.661   3.215 -0.1402  1.9657  0.2339
15016SOL     OW47679   8.522   8.537   5.999 -0.3065  0.2200 -0.0889
15016SOL    HW147680   8.456   8.564   5.935 -1.1677 -0.1716  0.6117
15016SOL    HW247681   8.586   8.487   5.948 -0.9985 -0.1242 -0.6416
15017SOL     OW47682   3.511   7.935   3.065 -0.4804 -0.2619  0.0030
15017SOL    HW147683   3.554   7.866   3.015 -0.4733  0.1827 -0.6119
15017SOL    HW247684   3.463   7.888   3.133 -2.1540 -1.0444 -1.6279
15018SOL     OW47685   6.587   1.092   7.230  0.0649  0.1819  0.1064
15018SOL    HW147686   6.542   1.035   7.292  1.1419 -0.5056  0.2956
15018SOL    HW247687   6.593   1.041   7.149 -0.7234  0.8091 -0.3621
15019SOL     OW47688   7.186   2.574   2.920  0.5507  0.2069  0.0760
15019SOL    HW147689   7.097   2.568   2.885 -0.3653 -1.8229  2.4541
15019SOL    HW247690   7.243   2.552   2.847 -1.0336 -0.5934 -0.9562
15020SOL     OW47691   1.757   5.449   0.958 -0.3002 -0.4381  0.0943
15020SOL    HW147692   1.766   5.531   0.909 -1.1719 -1.0614 -1.1524
15020SOL    HW247693   1.818   5.458   1.031  0.2553  0.9610 -0.5117
15021SOL     OW47694   3.033   5.998   9.445  0.3478 -0.2325 -0.2973
15021SOL    HW147695   2.972   6.021   9.516 -1.0316  0.0556 -1.5227
15021SOL    HW247696   2.977   5.966   9.375  1.6729 -0.4210 -1.3051
15022SOL     OW47697   8.550   1.458   4.525 -0.1658 -0.0860  0.0368
15022SOL    HW147698   8.558   1.508   4.606 -0.8320  1.4938 -0.8240
15022SOL    HW247699   8.521   1.522   4.460  1.4751 -1.0328 -1.7446
15023SOL     OW47700   8.380   6.827   9.864  0.3683 -0.5666 -0.3861
15023SOL    HW147701   8.330   6.801   9.942  1.5133  1.5366  1.1491
15023SOL    HW247702   8.464   6.782   9.873  0.7612  0.2165  0.0128
15024SOL     OW47703   7.775   7.985   0.855 -0.4353  0.0272 -0.3418
15024SOL    HW147704   7.776   8.070   0.900  1.9710 -0.5524  0.8431
15024SOL    HW247705   7.779   7.921   0.926 -2.0146 -1.1322 -1.2277
15025SOL     OW47706   2.406   8.732   5.992  0.4935 -0.2463  0.3259
15025SOL    HW147707   2.429   8.818   5.959 -1.8076 -0.0199 -0.9086
15025SOL    HW247708   2.443   8.670   5.929  1.7359 -0.1792  0.9577
15026SOL     OW47709   9.357   4.099   7.777  0.7392  0.3258  0.1023
15026SOL    HW147710   9.404   4.022   7.807 -0.2760 -0.6407 -0.6989
15026SOL    HW247711   9.293   4.117   7.846 -1.0823 -1.4401 -1.0136
15027SOL     OW47712   8.705   3.505   5.325  0.0663  0.3968 -0.0600
15027SOL    HW147713   8.779   3.543   5.278  1.9005 -0.3261  2.0767
15027SOL    HW247714   8.693   3.419   5.284  0.6080  0.4051 -0.2480
15028SOL     OW47715   4.699   3.871   2.004  0.4477 -0.2373 -0.0783
15028SOL    HW147716   4.703   3.867   1.909  1.5312  1.2753 -0.1393
15028SOL    HW247717   4.767   3.811   2.034  1.6019  0.8801 -0.3522
15029SOL     OW47718   3.936   4.493   6.676  0.5582  0.0051  0.0074
15029SOL    HW147719   4.005   4.427   6.685  0.3081 -0.3849 -0.8305
15029SOL    HW247720   3.859   4.444   6.647  0.4749  0.7191 -1.0195
15030SOL     OW47721   2.067   8.700   2.400  0.1063 -0.0057 -0.5983
15030SOL    HW147722   2.070   8.782   2.449 -0.3789  0.1871 -0.8830
15030SOL    HW247723   1.978   8.668   2.412  0.2271 -0.3757 -0.6729
15031SOL     OW47724   4.759   1.544   7.904  0.1760 -0.1944  0.0737
15031SOL    HW147725   4.796   1.591   7.829 -1.3464  0.5665 -0.2270
15031SOL    HW247726   4.724   1.463   7.866  0.4094 -0.3387  0.1608
15032SOL     OW47727   1.373   5.208   5.146  0.4764 -0.1904  0.8033
15032SOL    HW147728   1.334   5.275   5.090  1.4695 -1.2752 -1.2910
15032SOL    HW247729   1.301   5.148   5.166  0.4967 -0.8658 -1.0128
15033SOL     OW47730   9.219   2.202   6.000  0.0070 -0.3031  0.3897
15033SOL    HW147731   9.282   2.268   6.027  0.6972 -0.8690  0.1927
15033SOL    HW247732   9.134   2.242   6.016  0.4011  1.1220 -0.9469
15034SOL     OW47733   2.320   6.752   3.949  0.0778  0.2144 -0.2365
15034SOL    HW147734   2.384   6.716   3.888 -0.9358 -0.9362 -0.6706
15034SOL    HW247735   2.278   6.823   3.900  1.1739  1.1684  0.1523
15035SOL     OW47736   6.046   8.293   4.547  0.2332 -0.0598  0.5728
15035SOL    HW147737   6.092   8.318   4.627  0.6959  1.4493 -0.1236
15035SOL    HW247738   6.101   8.327   4.476  0.7097 -2.7868 -0.4990
15036SOL     OW47739   2.453   8.556   8.741  0.2595  0.2227 -0.3419
15036SOL    HW147740   2.539   8.547   8.699  1.1408 -1.5989  1.6471
15036SOL    HW247741   2.454   8.642   8.782  1.0384  0.3029 -0.5223
15037SOL     OW47742   2.507   4.533   4.203  0.0360 -0.0313  0.5519
15037SOL    HW147743   2.563   4.468   4.245  1.4516  1.5964  1.3117
15037SOL    HW247744   2.565   4.606   4.184 -1.7424  1.5991  1.0412
15038SOL     OW47745  10.059   1.137   7.874 -0.8120 -0.3701  0.3797
15038SOL    HW147746  10.035   1.227   7.895 -0.4825  0.0458 -0.9316
15038SOL    HW247747  10.149   1.143   7.843 -1.3108 -0.8901 -1.2603
15039SOL     OW47748   5.987   6.553   2.001 -0.6009 -0.1386  0.3723
15039SOL    HW147749   6.075   6.517   1.990 -0.3008  0.9883 -1.1994
15039SOL    HW247750   6.001   6.637   2.045 -0.8787  0.0743  0.0598
15040SOL     OW47751   7.579   2.088   7.639  0.4399 -0.5848  0.1377
15040SOL    HW147752   7.670   2.061   7.633  0.7183 -0.7411  3.2429
15040SOL    HW247753   7.580   2.163   7.699 -1.3484  0.3808 -0.9429
15041SOL     OW47754   2.522   1.530  10.091  0.7409 -0.4863  0.1254
15041SOL    HW147755   2.600   1.484  10.059  2.5690  1.2009  1.9001
15041SOL    HW247756   2.496   1.585  10.017  1.1651 -1.1474 -0.5352
15042SOL     OW47757   0.082   7.590   1.177 -0.0761 -0.2093  0.4611
15042SOL    HW147758   0.012   7.568   1.116 -2.6795  4.3367  1.3303
15042SOL    HW247759   0.049   7.562   1.263 -0.4401  1.0380  0.7484
15043SOL     OW47760   9.772   9.058   8.765  0.1213  0.8114  0.4282
15043SOL    HW147761   9.703   9.124   8.777 -1.8921 -0.7507 -1.5968
15043SOL    HW247762   9.757   8.995   8.835 -1.0920  0.0751 -0.4533
15044SOL     OW47763   0.968   1.172   9.356 -0.0101  0.3353  0.1515
15044SOL    HW147764   0.880   1.200   9.333  0.2880 -0.3305 -2.0325
15044SOL    HW247765   1.018   1.253   9.365 -0.5234  0.6668  0.0340
15045SOL     OW47766   3.340   5.766   3.667 -0.3311 -0.1770 -0.6062
15045SOL    HW147767   3.424   5.741   3.706 -0.0973  1.1935 -0.1575
15045SOL    HW247768   3.295   5.814   3.737 -0.7459  0.5973 -1.3876
15046SOL     OW47769   2.560   1.484  10.337 -0.4069  0.6100 -0.2554
15046SOL    HW147770   2.555   1.495  10.242 -0.0049  1.1176 -0.2216
15046SOL    HW247771   2.578   1.572  10.371  0.6217  0.2451  0.1989
15047SOL     OW47772   0.343   9.203   3.005  0.1066 -0.0810 -0.3718
15047SOL    HW147773   0.362   9.116   3.040 -1.0792 -1.0081 -1.9104
15047SOL    HW247774   0.408   9.215   2.936  1.5073  1.1291  1.0680
15048SOL     OW47775   2.265   6.571   2.280 -0.5706 -0.0581  0.2003
15048SOL    HW147776   2.191   6.630   2.294 -1.1546 -0.1085 -2.2599
15048SOL    HW247777   2.341   6.620   2.313 -1.0179  2.1663 -1.8059
15049SOL     OW47778   0.410   8.545   7.823  0.2644  0.1998  0.0447
15049SOL    HW147779   0.477   8.613   7.815 -0.8141  1.2881 -0.0704
15049SOL    HW247780   0.370   8.541   7.737  1.0489 -1.4155 -0.2850
15050SOL     OW47781   9.105   0.640   3.449  0.2878 -0.8363  0.2480
15050SOL    HW147782   9.131   0.704   3.515  0.1251 -0.4267 -0.0731
15050SOL    HW247783   9.036   0.685   3.399 -0.2705 -1.5003  0.4185
15051SOL     OW47784   2.655   3.902   7.369 -0.8527  0.3712  0.0611
15051SOL    HW147785   2.672   3.852   7.289 -0.8346  0.2588  0.1356
15051SOL    HW247786   2.616   3.984   7.338  0.7357  1.0797 -0.2121
15052SOL     OW47787   9.114   2.792   0.254  0.5772  0.1005 -0.3879
15052SOL    HW147788   9.171   2.864   0.225  0.9516  0.5469  1.3395
15052SOL    HW247789   9.148   2.768   0.341 -1.2788 -0.2668  0.2742
15053SOL     OW47790   5.422   9.688   3.058  0.2116 -0.1926 -0.2784
15053SOL    HW147791   5.356   9.757   3.060 -0.7360 -1.0678  1.8709
15053SOL    HW247792   5.505   9.735   3.060 -0.3927  1.0160  3.0671
15054SOL     OW47793   6.873   9.061   8.575  0.2356  0.1535 -0.3732
15054SOL    HW147794   6.836   8.998   8.514  1.0378 -0.1384 -0.5631
15054SOL    HW247795   6.799   9.118   8.598 -0.0982  0.2263 -1.5470
15055SOL     OW47796   0.819   4.351   3.452  0.2341  0.0113 -0.2333
15055SOL    HW147797   0.863   4.436   3.447  0.6527 -0.2636 -1.6527
15055SOL    HW247798   0.880   4.295   3.499 -0.6009  0.7906  1.9135
15056SOL     OW47799   1.915   1.206   7.735 -0.3688 -0.8263  0.1819
15056SOL    HW147800   2.002   1.240   7.756  0.6446 -2.0067 -1.8043
15056SOL    HW247801   1.911   1.206   7.639 -2.5566 -0.8603  0.2060
15057SOL     OW47802   0.470   9.917   6.889 -0.0073  0.3958  0.1753
15057SOL    HW147803   0.532   9.981   6.923  3.5717 -1.2031 -2.7120
15057SOL    HW247804   0.477   9.843   6.949  0.9310  0.2495 -0.0958
15058SOL     OW47805   4.875   6.012   2.992 -0.5820 -0.9433  0.4591
15058SOL    HW147806   4.803   5.955   3.020 -0.7653 -0.6801  0.5318
15058SOL    HW247807   4.863   6.092   3.044 -2.4407  0.5899 -2.0949
15059SOL     OW47808   4.364   5.550   9.918 -0.5958 -0.2613  0.6905
15059SOL    HW147809   4.385   5.598   9.998 -1.3342  1.6814 -0.2216
15059SOL    HW247810   4.449   5.519   9.886  0.2368  2.2068  0.2921
15060SOL     OW47811   3.302   8.892   2.707 -0.2378  0.0775  0.5705
15060SOL    HW147812   3.253   8.912   2.787 -0.8808  1.1406 -0.0535
15060SOL    HW247813   3.387   8.934   2.719  0.3453 -1.2890  1.4224
15061SOL     OW47814   8.543   7.417   9.191  0.3048 -0.6026  0.2337
15061SOL    HW147815   8.592   7.345   9.230  2.5872  0.6975 -0.0911
15061SOL    HW247816   8.514   7.470   9.265  1.4925 -0.1142  0.3776
15062SOL     OW47817   7.467   1.018   3.679 -0.2100 -0.0998 -0.6966
15062SOL    HW147818   7.389   1.052   3.635 -1.2424  1.5870  2.1342
15062SOL    HW247819   7.495   1.089   3.737  1.8528 -1.6429  0.3421
15063SOL     OW47820   8.313   8.189   8.387  0.5096  0.1146 -0.2665
15063SOL    HW147821   8.242   8.154   8.442  0.5243  1.5170  0.6851
15063SOL    HW247822   8.270   8.247   8.325  0.4805 -1.5537 -1.8971
15064SOL     OW47823   4.340   2.491   2.341 -0.7810  0.2424  0.1620
15064SOL    HW147824   4.329   2.401   2.371 -0.2698  0.2718  0.4506
15064SOL    HW247825   4.376   2.484   2.253  1.7886  0.1286  1.1164
15065SOL     OW47826   4.617   4.155   5.867 -0.2348 -0.4242 -0.6301
15065SOL    HW147827   4.680   4.210   5.821  1.0429 -1.6030 -0.3902
15065SOL    HW247828   4.671   4.088   5.909 -1.5857 -0.9005  0.4237
15066SOL     OW47829   5.404   8.534   6.838 -0.6819  0.4273 -0.2376
15066SOL    HW147830   5.383   8.459   6.781 -1.4043 -0.3167  0.9441
15066SOL    HW247831   5.411   8.608   6.779  1.1554 -0.7354 -1.6035
15067SOL     OW47832   5.698   8.889   5.784  0.2943 -0.2713  0.1774
15067SOL    HW147833   5.747   8.938   5.850 -2.2629 -0.0079  2.0232
15067SOL    HW247834   5.607   8.916   5.797 -0.7769 -3.0227 -0.9862
15068SOL     OW47835   6.960   2.041   2.803  0.0374  0.0391  0.1370
15068SOL    HW147836   7.015   2.021   2.879 -0.9746  0.0768  0.8983
15068SOL    HW247837   6.904   2.113   2.832 -1.0660 -0.6172 -0.2703
15069SOL     OW47838   4.903   4.750   3.504 -0.7715 -0.4301  0.5536
15069SOL    HW147839   4.886   4.660   3.479 -0.9513 -0.7864  1.8767
15069SOL    HW247840   4.824   4.798   3.480 -0.7201 -0.6331 -0.0385
15070SOL     OW47841   1.571   1.983   2.105 -0.1057  0.0534  0.3260
15070SOL    HW147842   1.645   1.931   2.073 -0.1919 -0.0293  0.2603
15070SOL    HW247843   1.515   1.919   2.149 -0.4401  0.0121 -0.1511
15071SOL     OW47844   8.354   3.861   7.702 -0.3048 -0.2769  0.0191
15071SOL    HW147845   8.332   3.812   7.781  0.4753 -0.9442 -0.1618
15071SOL    HW247846   8.284   3.925   7.693 -0.4049 -0.1967  1.2469
15072SOL     OW47847   3.461  10.123   7.289 -0.1673  0.6352 -0.5058
15072SOL    HW147848   3.514  10.074   7.227  0.6219 -1.1206  1.4393
15072SOL    HW247849   3.507  10.207   7.299  1.9772 -0.6034  0.6666
15073SOL     OW47850   5.812   5.706   1.016 -0.3544 -0.3111 -0.4085
15073SOL    HW147851   5.873   5.773   0.987  0.2299 -1.8307 -3.1078
15073SOL    HW247852   5.730   5.753   1.035  1.0161  1.5137  1.3482
15074SOL     OW47853   9.344   7.281   5.468  0.1943  0.2303 -0.3057
15074SOL    HW147854   9.368   7.337   5.542 -1.4888  1.2472 -0.4696
15074SOL    HW247855   9.254   7.254   5.487 -0.0243 -0.0510 -1.6383
15075SOL     OW47856  10.336   1.443   6.115  0.5225 -0.0929  0.0923
15075SOL    HW147857  10.279   1.504   6.069 -0.2433 -2.1071 -1.8015
15075SOL    HW247858  10.417   1.442   6.064 -0.1604 -1.9947 -1.0584
15076SOL     OW47859   7.648   6.042   4.534 -0.1607  0.1237  0.3198
15076SOL    HW147860   7.657   6.128   4.574  0.3554  0.1188  0.2219
15076SOL    HW247861   7.648   6.059   4.440 -0.3089  0.0381  0.3043
15077SOL     OW47862   7.789   2.310   7.746 -0.3696  0.2419 -0.1367
15077SOL    HW147863   7.864   2.327   7.804 -1.5822 -1.2832  1.9995
15077SOL    HW247864   7.813   2.229   7.700 -0.3053  0.2841 -0.1779
15078SOL     OW47865   4.383   6.677   9.505  0.7036  0.3116  0.0442
15078SOL    HW147866   4.322   6.750   9.500 -1.9892 -1.8093 -0.3070
15078SOL    HW247867   4.400   6.666   9.599  0.2785  0.7122  0.1718
15079SOL     OW47868   2.419   8.158   1.751  0.2756 -0.0894 -0.9913
15079SOL    HW147869   2.402   8.243   1.791  0.3046 -1.3276  1.9258
15079SOL    HW247870   2.335   8.130   1.715 -1.2109 -1.0629  2.8350
15080SOL     OW47871   6.546   0.122   7.031  0.2285  0.1621 -0.5845
15080SOL    HW147872   6.452   0.128   7.018  0.2078 -0.9049 -1.0121
15080SOL    HW247873   6.570   0.206   7.071 -1.0543  0.0223  0.5427
15081SOL     OW47874   7.612   8.203   5.926  0.8894 -0.1497 -0.0411
15081SOL    HW147875   7.615   8.163   5.839  0.4065 -0.9590  0.3024
15081SOL    HW247876   7.634   8.295   5.911 -1.1064  0.1789 -1.3128
15082SOL     OW47877   5.972   8.439   7.124  0.1564 -0.3756  0.0631
15082SOL    HW147878   5.901   8.502   7.134  1.3337  0.6704  2.5376
15082SOL    HW247879   5.933   8.368   7.072 -2.3188  0.6707  0.3465
15083SOL     OW47880   5.315   8.793   9.964 -0.0837  0.4906  0.1260
15083SOL    HW147881   5.287   8.884   9.955  0.6149  0.5479 -2.2777
15083SOL    HW247882   5.236   8.746   9.990 -0.2960  1.8313  2.1544
15084SOL     OW47883   5.209   5.866   3.948 -0.2329  0.1917 -0.3866
15084SOL    HW147884   5.262   5.844   4.024  0.6732  1.2901 -0.6626
15084SOL    HW247885   5.232   5.800   3.883  0.7930  0.6208 -0.4828
15085SOL     OW47886   5.014   3.225   6.520  0.5003 -0.2566  0.3681
15085SOL    HW147887   5.067   3.280   6.577  2.4251 -1.9835  0.3386
15085SOL    HW247888   4.963   3.170   6.580 -0.0086  0.2302  0.3918
15086SOL     OW47889   5.299   3.681   2.281 -0.3039  0.8119  0.0232
15086SOL    HW147890   5.345   3.716   2.205 -0.5373 -1.5757 -1.3334
15086SOL    HW247891   5.365   3.676   2.350  0.4801  0.9950 -0.7085
15087SOL     OW47892   4.123   3.761   7.956  0.2977  0.2756 -0.2543
15087SOL    HW147893   4.124   3.778   7.861 -0.2669  0.9541 -0.1483
15087SOL    HW247894   4.133   3.848   7.995  2.5752 -0.1996  0.3211
15088SOL     OW47895   5.828   6.067   6.440  0.2658  0.8653  0.0141
15088SOL    HW147896   5.788   6.152   6.421  1.0869  1.4641  0.8805
15088SOL    HW247897   5.908   6.089   6.488  0.3504 -0.4168  0.4772
15089SOL     OW47898   8.703   5.901  10.093 -0.1753 -0.0136  0.0182
15089SOL    HW147899   8.787   5.866  10.065  0.6803  0.9867  1.2263
15089SOL    HW247900   8.647   5.823  10.103  0.9190 -0.7986  0.2160
15090SOL     OW47901   1.853   7.291   2.311 -0.3154 -0.4424  0.1568
15090SOL    HW147902   1.758   7.293   2.299 -0.1961 -0.4366 -0.9549
15090SOL    HW247903   1.885   7.363   2.257  0.3976 -1.2665 -0.5672
15091SOL     OW47904  10.342   9.364   9.135 -0.3158  0.4673 -0.2055
15091SOL    HW147905  10.253   9.395   9.153 -0.3256  1.0033 -1.1174
15091SOL    HW247906  10.374   9.423   9.067  0.9857  0.6936  0.5808
15092SOL     OW47907   1.492   4.059   9.737 -0.1365 -0.0199 -0.7009
15092SOL    HW147908   1.479   4.153   9.742  1.7977  0.2686  0.0291
15092SOL    HW247909   1.450   4.033   9.655 -1.8674  1.2232 -0.2493
15093SOL     OW47910   1.657   6.662   4.132 -1.0188 -0.2134  0.2825
15093SOL    HW147911   1.705   6.655   4.214  1.3524 -2.5010 -1.1763
15093SOL    HW247912   1.721   6.692   4.068 -1.3520 -3.3508 -1.7495
15094SOL     OW47913   7.768   0.147   8.901 -0.2859 -0.2605 -0.0096
15094SOL    HW147914   7.731   0.072   8.948  1.3871  0.2675  2.2682
15094SOL    HW247915   7.738   0.135   8.811 -2.2082 -2.2494  0.8030
15095SOL     OW47916   0.658   6.721   6.227  0.3955  0.4194 -0.7710
15095SOL    HW147917   0.629   6.682   6.144  1.3599 -2.6462  0.2212
15095SOL    HW247918   0.577   6.733   6.277  0.1387 -1.9878 -0.4951
15096SOL     OW47919   2.509   4.533   2.392  0.0567 -0.4238  0.0591
15096SOL    HW147920   2.514   4.466   2.459 -0.6134  0.3039  0.8530
15096SOL    HW247921   2.416   4.557   2.388  0.6640  3.1410  2.5519
15097SOL     OW47922   1.177   1.353   9.432  0.1716  0.3617  0.3357
15097SOL    HW147923   1.204   1.301   9.508  0.6129 -0.4431 -0.3648
15097SOL    HW247924   1.257   1.394   9.401 -0.1727  1.5083  0.8909
15098SOL     OW47925  10.294   1.517   9.814  0.3006  0.1646  0.8119
15098SOL    HW147926  10.334   1.452   9.873  0.2662  0.8151  1.5618
15098SOL    HW247927  10.248   1.577   9.872  1.0207  1.3432  0.2003
15099SOL     OW47928   6.372   9.029   8.570  0.2251  0.3436 -0.5917
15099SOL    HW147929   6.451   9.013   8.622  0.2823  0.7865 -0.5361
15099SOL    HW247930   6.319   9.088   8.624 -1.4021 -2.0181  0.5867
15100SOL     OW47931   9.502   0.647   2.028 -0.1645  1.0820  0.4027
15100SOL    HW147932   9.524   0.740   2.034 -0.5345  1.1654  0.5312
15100SOL    HW247933   9.548   0.616   1.950  1.3963  0.9522  1.3440
15101SOL     OW47934   6.305   8.694   4.258 -0.3392  0.6157  0.0015
15101SOL    HW147935   6.358   8.634   4.310 -1.6946 -0.6476 -0.0190
15101SOL    HW247936   6.345   8.692   4.171 -1.1281 -1.3276 -0.3603
15102SOL     OW47937   8.197   3.320   0.392 -0.0397  0.6932  0.6476
15102SOL    HW147938   8.165   3.343   0.304  1.2148 -0.1783 -0.0813
15102SOL    HW247939   8.233   3.402   0.426 -0.6867  1.0800  0.4144
15103SOL     OW47940   1.898   3.315   2.581 -0.0128 -0.3236 -0.3562
15103SOL    HW147941   1.948   3.296   2.501  1.4669  0.4548  0.3293
15103SOL    HW247942   1.826   3.371   2.551  0.9159  0.5411 -1.0877
15104SOL     OW47943   7.891   2.683   3.598  0.5052 -0.1889  0.7323
15104SOL    HW147944   7.910   2.756   3.657 -1.5721  0.8370  0.2255
15104SOL    HW247945   7.880   2.724   3.512  0.0361 -1.1986  0.2970
15105SOL     OW47946   1.442   6.432   6.250  0.2726  0.1688 -0.3388
15105SOL    HW147947   1.498   6.354   6.247 -0.0323 -0.0867  0.3311
15105SOL    HW247948   1.356   6.398   6.273  0.3145  0.7918  0.8140
15106SOL     OW47949   7.885   3.047   4.180 -0.0301  0.1778 -0.2131
15106SOL    HW147950   7.949   3.083   4.242 -0.0815  0.1291 -0.1303
15106SOL    HW247951   7.831   3.121   4.155  1.7529  0.8169 -2.4098
15107SOL     OW47952   3.529   6.258   2.011 -0.5883 -0.0077 -0.0913
15107SOL    HW147953   3.560   6.167   2.016  2.2104  0.8957  0.8868
15107SOL    HW247954   3.435   6.252   2.027 -0.3695 -2.6764  0.6557
15108SOL     OW47955   4.101   4.080   4.215  0.1504  0.1055 -0.2112
15108SOL    HW147956   4.015   4.106   4.182  0.0053  0.3334  0.3266
15108SOL    HW247957   4.095   3.986   4.227 -0.8914  0.3889  2.1545
15109SOL     OW47958   3.762   8.644   1.012 -0.2148  0.1526  0.0864
15109SOL    HW147959   3.793   8.727   1.048  1.4486 -1.0352  1.5208
15109SOL    HW247960   3.725   8.598   1.087 -2.6902  0.2122 -0.9979
15110SOL     OW47961   1.967   0.109   6.738 -0.1452 -0.2555  0.1451
15110SOL    HW147962   2.003   0.025   6.710  1.7171  0.6137 -0.2160
15110SOL    HW247963   1.994   0.118   6.829  0.3217  0.2509 -0.0309
15111SOL     OW47964   9.241   6.700   3.885  0.1436 -0.5237  0.6177
15111SOL    HW147965   9.317   6.649   3.856 -0.4852 -1.1171 -0.0336
15111SOL    HW247966   9.178   6.634   3.912 -0.4557 -0.0685  0.3502
15112SOL     OW47967   1.182   7.107   7.616 -0.4347 -0.6157  1.0625
15112SOL    HW147968   1.186   7.117   7.521 -0.7162  0.5553  1.1497
15112SOL    HW247969   1.182   7.013   7.631 -0.7022 -0.8184 -0.1121
15113SOL     OW47970   1.566   7.093   6.844 -0.3934  0.4056 -0.1322
15113SOL    HW147971   1.601   7.088   6.933 -0.7385  0.0129 -0.0132
15113SOL    HW247972   1.631   7.050   6.790 -0.3621  0.2998 -0.0116
15114SOL     OW47973   2.895   9.885  10.334 -0.6325  0.1046  0.6583
15114SOL    HW147974   2.861   9.961  10.286  3.7006  1.0332 -1.4527
15114SOL    HW247975   2.879   9.811  10.276  1.0589  0.6008 -0.5186
15115SOL     OW47976   5.192   7.173   0.068  0.3014  0.1303  0.4811
15115SOL    HW147977   5.214   7.121   0.145  0.6871 -0.8252 -0.2520
15115SOL    HW247978   5.100   7.154   0.051  0.0010  0.9273  1.1252
15116SOL     OW47979   0.539   7.347   0.852  0.2928  0.3580  0.4428
15116SOL    HW147980   0.622   7.391   0.836  0.6838  0.7294  3.0186
15116SOL    HW247981   0.478   7.418   0.872 -1.0349  0.1850 -2.5106
15117SOL     OW47982   2.657   4.686   8.133 -0.3392  0.1523  0.0457
15117SOL    HW147983   2.656   4.703   8.039 -0.9142 -0.0235  0.0162
15117SOL    HW247984   2.594   4.615   8.145 -0.9407  0.7710  0.6709
15118SOL     OW47985   6.960   3.843   9.534 -0.2277  0.6971  0.3455
15118SOL    HW147986   7.023   3.864   9.465 -0.3903 -0.3229 -0.1470
15118SOL    HW247987   7.013   3.831   9.612  0.1696  0.2197  0.0156
15119SOL     OW47988   4.742   3.746  10.108  0.3564  0.3066 -0.3944
15119SOL    HW147989   4.733   3.826  10.159 -0.0219 -0.4998  0.8401
15119SOL    HW247990   4.805   3.768  10.039 -0.1775  1.8183 -0.4333
15120SOL     OW47991   6.603   1.196   2.656  0.8349 -0.3003 -0.1568
15120SOL    HW147992   6.666   1.254   2.614 -0.0098 -0.9683 -2.4613
15120SOL    HW247993   6.521   1.245   2.658  0.6293 -0.6357 -0.1727
15121SOL     OW47994   1.749   3.281   1.851  0.1175 -0.3454 -0.0119
15121SOL    HW147995   1.772   3.324   1.933  1.1543  1.7717 -1.3166
15121SOL    HW247996   1.657   3.303   1.836 -0.7798 -2.6029  1.5752
15122SOL     OW47997   1.150   3.729   6.930 -0.2938  0.0889 -0.1704
15122SOL    HW147998   1.214   3.724   6.859  0.1437  0.7019  0.1690
15122SOL    HW247999   1.125   3.822   6.934 -1.0967 -0.1156 -0.1988
15123SOL     OW48000   8.419   6.638   6.652 -0.6238  0.4536  0.3687
15123SOL    HW148001   8.384   6.555   6.683 -0.5662  0.1630 -0.3346
15123SOL    HW248002   8.429   6.627   6.558 -0.0882  1.0649  0.3437
15124SOL     OW48003   2.399  10.267   7.132 -0.4477 -0.6309 -0.0537
15124SOL    HW148004   2.384  10.315   7.050  0.4860  1.2716  0.8262
15124SOL    HW248005   2.494  10.252   7.134 -0.4804 -0.7671  0.6330
15125SOL     OW48006   5.273   0.051   8.193  0.0942  0.1197  0.2633
15125SOL    HW148007   5.258   0.088   8.280 -0.5799 -1.4720  0.8769
15125SOL    HW248008   5.202  -0.013   8.183 -0.6119  1.1550 -2.0039
15126SOL     OW48009   8.360   5.949   9.393  0.5859  0.1808  0.0391
15126SOL    HW148010   8.339   5.864   9.430  0.1250  0.2182 -0.1338
15126SOL    HW248011   8.304   6.011   9.440  0.5857  0.3289 -0.1537
15127SOL     OW48012   5.119   8.984   1.994 -0.7403 -0.1239  0.3890
15127SOL    HW148013   5.090   8.894   2.004  1.1655 -1.1269 -1.9979
15127SOL    HW248014   5.175   9.001   2.070  0.0618 -1.5081  0.1293
15128SOL     OW48015   8.562   6.131  10.032 -0.3024  0.3079 -0.5395
15128SOL    HW148016   8.608   6.050  10.052 -0.0771  0.7501  0.8155
15128SOL    HW248017   8.630   6.198  10.032 -0.7680  0.7937  0.3364
15129SOL     OW48018   0.356   8.156   9.661 -0.0239 -0.0895 -0.3696
15129SOL    HW148019   0.273   8.174   9.705 -0.2832  0.4644 -1.0717
15129SOL    HW248020   0.421   8.160   9.731 -0.5755 -0.5262  0.1878
15130SOL     OW48021   5.689   5.012   1.305  0.4312  0.2360 -0.3405
15130SOL    HW148022   5.636   5.091   1.299 -0.5675 -0.4792 -1.4689
15130SOL    HW248023   5.629   4.944   1.337  0.2327 -0.8675 -2.7663
15131SOL     OW48024   9.682   7.551   1.336  0.3657  0.9547 -0.4678
15131SOL    HW148025   9.630   7.487   1.287  2.5774 -2.3017  1.1056
15131SOL    HW248026   9.768   7.549   1.294  1.0722  1.2904  0.9107
15132SOL     OW48027   1.597   1.874   5.740  0.1071 -0.0770 -0.0383
15132SOL    HW148028   1.638   1.881   5.654  2.0960  0.3775  0.8889
15132SOL    HW248029   1.668   1.893   5.802 -1.2928 -0.2792  1.7008
15133SOL     OW48030   8.528   4.605   9.111  0.1494 -0.3947  0.0937
15133SOL    HW148031   8.456   4.635   9.166  0.8068 -1.8067  1.8660
15133SOL    HW248032   8.567   4.685   9.076 -2.4947  0.3963 -1.3339
15134SOL     OW48033   6.008   1.625   3.221 -0.1093 -0.4964  0.9458
15134SOL    HW148034   6.019   1.548   3.165 -1.3398  0.0681 -0.1145
15134SOL    HW248035   6.080   1.619   3.284  1.2754 -1.2168 -0.6188
15135SOL     OW48036   7.557   8.185  10.043 -0.4771  0.0675  0.4224
15135SOL    HW148037   7.570   8.111  10.104 -1.6812  0.0436  0.6783
15135SOL    HW248038   7.579   8.262  10.094 -0.1307 -0.0497  0.4521
15136SOL     OW48039   0.960   7.140   3.520 -0.5564 -0.0434  0.0050
15136SOL    HW148040   0.868   7.164   3.516 -1.0517 -1.8536 -0.3166
15136SOL    HW248041   0.989   7.142   3.429 -0.0203  1.3796  0.1890
15137SOL     OW48042   1.631   5.107   0.251 -0.8218  0.2105  0.5378
15137SOL    HW148043   1.700   5.082   0.188 -0.6129  1.0266  0.4329
15137SOL    HW248044   1.648   5.052   0.328  0.3982  0.8961  0.7856
15138SOL     OW48045   6.567   3.176   1.515 -0.4132  0.3568 -0.2603
15138SOL    HW148046   6.647   3.213   1.553  0.1284 -1.3172  0.3225
15138SOL    HW248047   6.497   3.208   1.573 -0.1100  1.2565 -0.3631
15139SOL     OW48048   7.117   3.576   9.682 -0.1265  0.2803 -0.0690
15139SOL    HW148049   7.092   3.538   9.766  1.1807 -1.2418 -0.3267
15139SOL    HW248050   7.037   3.571   9.629 -0.6801  0.3331  0.7358
15140SOL     OW48051   0.068   5.236   7.991  0.3796 -0.0077  0.0252
15140SOL    HW148052   0.152   5.278   8.013  1.3064 -1.2759 -0.8856
15140SOL    HW248053   0.087   5.185   7.912 -0.6210 -2.1754  1.0821
15141SOL     OW48054   9.277   9.301   4.244  0.2576 -0.8689  0.5359
15141SOL    HW148055   9.233   9.323   4.326  0.9721  0.5420  0.5721
15141SOL    HW248056   9.207   9.300   4.179  0.1726  2.6067  0.3479
15142SOL     OW48057   0.429   6.588  10.236  0.2923 -0.7015  0.3513
15142SOL    HW148058   0.368   6.524  10.200  1.1798 -1.2352 -0.2258
15142SOL    HW248059   0.505   6.536  10.264  1.3826  0.1681 -0.8863
15143SOL     OW48060   2.606  10.158   8.532 -0.2153  0.1570  0.6407
15143SOL    HW148061   2.553  10.079   8.543  1.3854 -1.0176  0.3567
15143SOL    HW248062   2.694  10.125   8.514  0.4611  2.0260  0.3041
15144SOL     OW48063   4.836  10.041   0.674  0.4245  0.2328  0.4357
15144SOL    HW148064   4.908  10.015   0.731  0.9614  0.6987 -0.0190
15144SOL    HW248065   4.788  10.106   0.725 -0.0164 -0.4809  0.9609
15145SOL     OW48066   0.368   7.548  10.123  0.1395 -1.2926 -0.2111
15145SOL    HW148067   0.330   7.625  10.166  1.6472 -1.1658  0.9683
15145SOL    HW248068   0.308   7.529  10.051 -0.2366  1.0452 -0.6006
15146SOL     OW48069   9.369   9.072   8.512  0.5830 -0.3053 -0.2461
15146SOL    HW148070   9.344   9.002   8.452 -0.4374  1.0390 -1.4701
15146SOL    HW248071   9.337   9.042   8.598 -0.0189 -1.2415 -0.7748
15147SOL     OW48072   2.362   8.977   3.167 -0.0688  0.2315  0.2769
15147SOL    HW148073   2.436   9.016   3.119 -0.0857  0.8070  0.7068
15147SOL    HW248074   2.403   8.912   3.224  0.3356  1.7200  1.7599
15148SOL     OW48075   6.678   7.431   0.980 -0.3627 -0.3107 -0.6891
15148SOL    HW148076   6.764   7.390   0.986  0.3676  1.1290 -0.8270
15148SOL    HW248077   6.616   7.358   0.973  1.0300 -1.3503 -3.1176
15149SOL     OW48078   1.996   9.461   8.475  0.7650 -0.2182  0.2998
15149SOL    HW148079   2.058   9.439   8.406  0.8583 -0.5060  0.4743
15149SOL    HW248080   1.950   9.539   8.442  1.5542  0.2953  0.3767
15150SOL     OW48081   4.862   9.743   4.289  0.2631 -0.3529  0.1704
15150SOL    HW148082   4.793   9.684   4.257 -1.0746  1.2125  0.0000
15150SOL    HW248083   4.929   9.741   4.221 -0.9519  0.2812 -1.0920
15151SOL     OW48084   2.535   9.037   5.444 -0.4901  0.2798 -0.0662
15151SOL    HW148085   2.539   9.100   5.515  0.8923  0.5225 -0.3189
15151SOL    HW248086   2.548   8.952   5.485  0.0276  0.3948  0.0165
15152SOL     OW48087   2.053   7.093   2.251  0.2864 -0.2187 -0.1611
15152SOL    HW148088   2.128   7.151   2.263  0.1515 -0.3985  2.0033
15152SOL    HW248089   1.977   7.149   2.267  0.0414 -0.4587 -0.4706
15153SOL     OW48090   2.064   7.835   6.009  0.1663 -0.4433  0.4054
15153SOL    HW148091   2.061   7.745   5.978  0.2104 -0.6417  0.9795
15153SOL    HW248092   2.149   7.844   6.051  0.1500 -0.1428  0.3802
15154SOL     OW48093   0.567   8.126   3.510  0.2630  0.2834 -0.1610
15154SOL    HW148094   0.573   8.156   3.419  1.1712  0.2923 -0.1047
15154SOL    HW248095   0.658   8.117   3.538 -0.0109 -0.2798  0.5673
15155SOL     OW48096   4.184   5.068   2.139  0.2950 -0.2780  0.0067
15155SOL    HW148097   4.137   5.075   2.056 -0.0242  1.1148  0.2730
15155SOL    HW248098   4.151   4.987   2.178 -1.0148  0.0435 -0.3605
15156SOL     OW48099   4.695   3.369   1.310  0.2644 -0.7418 -0.4005
15156SOL    HW148100   4.645   3.347   1.388 -0.7594 -0.8099 -1.0560
15156SOL    HW248101   4.643   3.437   1.267  1.9850  1.0248  0.1704
15157SOL     OW48102   5.037   9.157   9.867 -0.1297 -0.6569 -0.2638
15157SOL    HW148103   5.016   9.223   9.801  0.2349  0.6372  0.8908
15157SOL    HW248104   5.019   9.199   9.950  0.7577 -1.7873  0.5275
15158SOL     OW48105   8.245   9.821   9.369  0.2141  0.1023 -0.0503
15158SOL    HW148106   8.323   9.788   9.324  0.6234  0.1628  0.5959
15158SOL    HW248107   8.278   9.850   9.454 -0.3407  1.1002 -0.1699
15159SOL     OW48108   7.373   0.044   9.224  0.9041  0.1624  0.5335
15159SOL    HW148109   7.359  -0.041   9.267  0.5816  0.3674  0.8322
15159SOL    HW248110   7.348   0.109   9.290  0.5411  0.4804  0.0887
15160SOL     OW48111   0.055   7.695   8.591 -0.5268  0.0104  0.5013
15160SOL    HW148112   0.099   7.780   8.582 -0.2981 -0.2305 -0.7364
15160SOL    HW248113   0.116   7.643   8.643 -0.7923  0.6715  1.5104
15161SOL     OW48114   7.534   2.052   0.806 -0.2062  0.0774  0.9067
15161SOL    HW148115   7.494   2.131   0.844  2.0528  1.6815  0.1785
15161SOL    HW248116   7.588   2.017   0.877 -0.9281 -0.6473  1.1135
15162SOL     OW48117   6.100   6.637   1.433  0.1266 -0.5897 -0.5557
15162SOL    HW148118   6.072   6.578   1.504 -3.0794 -0.2934 -1.4248
15162SOL    HW248119   6.142   6.580   1.369  0.8109 -1.2361  0.4342
15163SOL     OW48120   7.857   7.044   6.822  0.5301 -0.0640  0.6360
15163SOL    HW148121   7.792   7.113   6.805  0.3285 -0.3980 -0.0194
15163SOL    HW248122   7.926   7.061   6.758  0.7581 -0.1222  0.8673
15164SOL     OW48123   3.630   2.181   5.795  0.2201  0.0098  0.1126
15164SOL    HW148124   3.695   2.250   5.802  2.1641 -1.5643 -1.2915
15164SOL    HW248125   3.637   2.150   5.704 -3.5514  0.6945 -0.5779
15165SOL     OW48126   2.869   0.289   1.565 -0.8318 -0.6907  0.4941
15165SOL    HW148127   2.814   0.347   1.512 -1.2066  0.6760  2.2743
15165SOL    HW248128   2.951   0.338   1.576 -0.7113 -1.0240  1.0748
15166SOL     OW48129   4.803   3.035   0.686 -0.7247  0.6620 -0.0780
15166SOL    HW148130   4.784   3.082   0.605  0.6333 -0.4225 -1.0797
15166SOL    HW248131   4.899   3.040   0.694 -0.7136 -0.4739  0.6779
15167SOL     OW48132   8.278   8.980   0.111 -0.0726 -0.5913 -0.3207
15167SOL    HW148133   8.274   8.903   0.168  1.1440  1.1655  2.3646
15167SOL    HW248134   8.217   9.042   0.150  0.8713  0.7207 -0.8515
15168SOL     OW48135   8.539  10.182   5.460 -0.1107  0.4328 -0.0196
15168SOL    HW148136   8.568  10.183   5.552 -1.1278  0.0111  0.3196
15168SOL    HW248137   8.593  10.248   5.417  1.0375 -0.0215  0.6820
15169SOL     OW48138   9.473   8.794   3.148  0.9197  0.0864 -0.3050
15169SOL    HW148139   9.538   8.752   3.091 -0.2607  0.3063 -1.8860
15169SOL    HW248140   9.403   8.822   3.088 -0.0525  0.9763  1.1795
15170SOL     OW48141   5.923   7.137   7.183  0.1178  0.0512 -0.1754
15170SOL    HW148142   5.873   7.198   7.129 -1.4886  0.2163  1.4047
15170SOL    HW248143   5.956   7.071   7.121 -2.1817 -0.1343 -1.3077
15171SOL     OW48144   7.671   4.990   8.563  0.2991  0.5121 -0.3380
15171SOL    HW148145   7.584   5.026   8.545 -0.0276  0.1018  0.3528
15171SOL    HW248146   7.655   4.920   8.626  0.8372 -1.2891 -2.0968
15172SOL     OW48147   6.257   3.673   5.612  0.2136  0.1797 -0.1205
15172SOL    HW148148   6.328   3.667   5.675 -0.5588  0.0662  0.7595
15172SOL    HW248149   6.203   3.595   5.629 -2.7134  2.4969  2.4952
15173SOL     OW48150   0.382   8.390   0.351  0.2338  0.4265 -0.4148
15173SOL    HW148151   0.364   8.430   0.436  1.4809  1.0829 -0.4320
15173SOL    HW248152   0.299   8.348   0.326  0.0797 -0.5489  1.5160
15174SOL     OW48153   4.136   3.432   1.032 -0.8618 -0.7567 -0.6998
15174SOL    HW148154   4.074   3.383   0.979 -0.8057 -1.0985 -0.4504
15174SOL    HW248155   4.193   3.475   0.968 -0.3069 -1.7903 -0.9213
15175SOL     OW48156   4.640   7.926   7.372  0.0925 -0.4892 -0.3365
15175SOL    HW148157   4.564   7.946   7.317  1.1684  2.4095 -0.9570
15175SOL    HW248158   4.603   7.890   7.452 -1.6916 -2.2025 -1.8382
15176SOL     OW48159   5.079   9.566   5.046  0.3724 -0.4907  0.0524
15176SOL    HW148160   5.100   9.634   5.110  0.6665 -0.3062 -0.2360
15176SOL    HW248161   5.002   9.600   5.000  1.1920  0.1876 -0.8645
15177SOL     OW48162   1.573   3.842  10.162  0.6381 -0.1945 -0.1186
15177SOL    HW148163   1.530   3.823  10.079  0.5907  0.0515 -0.1507
15177SOL    HW248164   1.577   3.938  10.166  1.9553 -0.2080 -0.5256
15178SOL     OW48165   5.168   7.807   9.102  0.4799  0.6744 -0.0554
15178SOL    HW148166   5.237   7.869   9.080  1.4782  0.3141  1.7695
15178SOL    HW248167   5.147   7.826   9.194 -2.0658  0.9237 -0.6201
15179SOL     OW48168   6.844   7.259   3.938  0.3544  0.4525  0.2757
15179SOL    HW148169   6.765   7.263   3.885  0.2677  0.3310  0.3973
15179SOL    HW248170   6.871   7.167   3.934 -0.4156  0.1410  1.5664
15180SOL     OW48171   2.267   8.744   7.692  0.0697  0.4938 -0.1198
15180SOL    HW148172   2.260   8.750   7.787  0.6899  1.1798 -0.1043
15180SOL    HW248173   2.221   8.663   7.669 -0.1866  0.3845  0.7459
15181SOL     OW48174   0.196   2.647   8.513  0.0824  0.9394  0.0207
15181SOL    HW148175   0.180   2.722   8.456 -1.1099  1.5324  1.0901
15181SOL    HW248176   0.213   2.684   8.599  1.4498  0.0415  0.1676
15182SOL     OW48177   1.868   3.295   8.732 -0.0455  0.0445 -0.9559
15182SOL    HW148178   1.919   3.310   8.811 -0.0629  0.8420 -1.0903
15182SOL    HW248179   1.831   3.380   8.710  1.4573  0.2797 -2.8404
15183SOL     OW48180   2.374   7.076   3.418  0.0664 -0.1331  0.1455
15183SOL    HW148181   2.295   7.055   3.368  1.4307 -0.9015 -1.8228
15183SOL    HW248182   2.358   7.165   3.450 -1.8736 -0.5338  0.4303
15184SOL     OW48183   7.964   3.500   7.722  0.3854  0.9463  0.6100
15184SOL    HW148184   8.054   3.498   7.689 -0.0678 -0.8726 -0.7107
15184SOL    HW248185   7.970   3.539   7.809  2.4782  0.5782  0.6675
15185SOL     OW48186   8.733   8.529   4.573  0.4171 -0.3189  0.0362
15185SOL    HW148187   8.783   8.576   4.639  1.3285  0.8821 -1.4324
15185SOL    HW248188   8.714   8.595   4.506  1.5140 -1.9367 -1.9784
15186SOL     OW48189   6.758   9.020   7.380  0.5210 -0.1453  0.3646
15186SOL    HW148190   6.816   8.967   7.433  1.0885  0.4695  0.3646
15186SOL    HW248191   6.811   9.047   7.305  0.1681  0.2269  0.2435
15187SOL     OW48192   4.117   4.610   8.131 -0.5878 -0.5887  0.1335
15187SOL    HW148193   4.096   4.608   8.038  0.0083 -0.6588 -0.0007
15187SOL    HW248194   4.069   4.536   8.168  0.9545 -1.9560 -0.4966
15188SOL     OW48195   7.142   8.469   8.427 -0.0466 -0.0263  0.4432
15188SOL    HW148196   7.219   8.414   8.411  0.3905  1.0325 -1.4301
15188SOL    HW248197   7.069   8.418   8.391  0.3053  0.4093 -0.9551
15189SOL     OW48198   0.839   2.038   3.342 -0.1043 -0.2655  0.6709
15189SOL    HW148199   0.784   2.117   3.341 -1.6092 -1.2655  0.7059
15189SOL    HW248200   0.898   2.050   3.267  0.6334  1.4955  1.4845
15190SOL     OW48201   3.368   9.269   2.217 -0.0278 -0.3989 -0.2774
15190SOL    HW148202   3.344   9.285   2.308 -0.1447 -1.5914 -0.0773
15190SOL    HW248203   3.286   9.278   2.168 -0.5649 -2.5311  0.1410
15191SOL     OW48204   9.600   2.867   9.208  0.1139 -0.1621  0.4160
15191SOL    HW148205   9.651   2.946   9.191  0.3420 -0.6300 -1.2181
15191SOL    HW248206   9.586   2.868   9.303  3.0478  0.0718  0.9443
15192SOL     OW48207   8.324   7.505   2.644 -0.1157 -0.2225  0.2599
15192SOL    HW148208   8.327   7.429   2.585  0.7428 -0.4275  0.5526
15192SOL    HW248209   8.416   7.523   2.665 -0.2622  1.3312 -0.3369
15193SOL     OW48210   5.634   8.207   8.551 -0.2873  0.4322  0.4771
15193SOL    HW148211   5.710   8.224   8.496 -1.3446 -0.5536 -1.3767
15193SOL    HW248212   5.572   8.162   8.494 -2.2624  1.1413  1.9392
15194SOL     OW48213   8.798   3.447   6.800  0.0462  0.3109  0.1159
15194SOL    HW148214   8.749   3.423   6.721  0.9245  2.6848 -1.2319
15194SOL    HW248215   8.734   3.493   6.854  0.1566  1.2925 -0.5674
15195SOL     OW48216   1.814   3.104   4.475  0.2374  0.3708  0.0577
15195SOL    HW148217   1.854   3.173   4.527  0.6589 -0.3266  0.6800
15195SOL    HW248218   1.841   3.022   4.518 -2.8514 -0.1452  1.2962
15196SOL     OW48219   1.907   8.427   7.799  0.0238 -0.1162 -0.2805
15196SOL    HW148220   1.899   8.509   7.848 -0.8102 -0.6266  0.4689
15196SOL    HW248221   1.932   8.362   7.864  1.4366 -0.3456 -0.9991
15197SOL     OW48222   1.049   4.910   6.296  0.2496 -0.1123 -0.2599
15197SOL    HW148223   1.013   4.910   6.208  0.8107 -0.4477 -0.4932
15197SOL    HW248224   1.126   4.853   6.291 -0.3685 -1.0859  0.7051
15198SOL     OW48225   9.575   8.791   9.389 -0.4371 -0.5564 -0.3801
15198SOL    HW148226   9.578   8.695   9.395 -2.1926 -0.7012 -1.2187
15198SOL    HW248227   9.499   8.815   9.442 -0.5596  0.2954 -0.9351
15199SOL     OW48228   0.432   9.559   9.587  0.3964 -0.7250  0.2953
15199SOL    HW148229   0.352   9.511   9.563  0.1195 -0.8304  1.3584
15199SOL    HW248230   0.452   9.613   9.510 -0.2441 -1.2922 -0.2833
15200SOL     OW48231   8.484   7.299   6.125 -0.0599  0.0782  0.2076
15200SOL    HW148232   8.410   7.298   6.064  0.8795  4.5053 -1.3840
15200SOL    HW248233   8.444   7.310   6.211 -1.4202  2.3816 -0.6160
15201SOL     OW48234   5.379  10.090   8.417 -0.2074 -0.3648  0.7506
15201SOL    HW148235   5.465  10.060   8.386 -0.4933 -1.7278  1.2133
15201SOL    HW248236   5.374  10.059   8.507 -1.6406 -1.3454  0.3785
15202SOL     OW48237   4.009   3.033   2.049 -0.1061 -0.3997  0.4643
15202SOL    HW148238   3.959   3.111   2.072 -0.0372 -0.2243  0.0309
15202SOL    HW248239   4.083   3.066   1.998 -1.2289 -0.9093 -1.6028
15203SOL     OW48240   3.368   2.029   3.270  0.1146  0.3499 -0.4225
15203SOL    HW148241   3.441   2.049   3.211  1.2474  0.7070  1.0335
15203SOL    HW248242   3.326   1.953   3.231  2.1134 -0.7201 -0.6068
15204SOL     OW48243   8.375   2.364   8.126  0.0163  0.1658  0.2824
15204SOL    HW148244   8.333   2.432   8.179  1.2941  0.5319  0.8747
15204SOL    HW248245   8.456   2.344   8.173  0.3484 -0.7535 -0.6393
15205SOL     OW48246   4.680   8.957   6.463 -0.1650 -0.1809 -0.4073
15205SOL    HW148247   4.610   8.915   6.513 -0.8650 -0.5660 -1.6614
15205SOL    HW248248   4.756   8.900   6.477 -0.1269  0.1532  0.8362
15206SOL     OW48249   1.497   0.376   7.384 -0.2831 -0.6204 -0.2992
15206SOL    HW148250   1.550   0.407   7.310 -1.2693  0.7791 -0.4658
15206SOL    HW248251   1.559   0.330   7.440  1.4511  2.1052  0.2214
15207SOL     OW48252   9.090   2.745   4.486  0.1056  0.0550 -0.0637
15207SOL    HW148253   9.018   2.804   4.463 -0.5438 -0.3860  0.7891
15207SOL    HW248254   9.050   2.658   4.488  0.4359 -0.0863  1.3218
15208SOL     OW48255   0.818   1.362   3.210  0.4860  0.1899  0.5095
15208SOL    HW148256   0.745   1.361   3.272 -1.0247 -0.2559 -1.2087
15208SOL    HW248257   0.895   1.380   3.265 -0.6936 -0.6839  2.5742
15209SOL     OW48258   4.971   1.101   7.838  0.2055  0.0344  0.0139
15209SOL    HW148259   4.892   1.064   7.877  0.7158  0.3440  1.4190
15209SOL    HW248260   5.042   1.042   7.865  1.3314  2.7137  3.8478
15210SOL     OW48261  10.164   2.730   8.595 -0.1666 -0.2031  0.4734
15210SOL    HW148262  10.149   2.817   8.559  1.4318  0.6558  1.7795
15210SOL    HW248263  10.091   2.714   8.654 -0.8035 -0.0473 -0.2559
15211SOL     OW48264   2.382   3.071   6.361  1.0387 -0.0950 -0.1059
15211SOL    HW148265   2.410   3.095   6.273  0.4080  0.2820 -0.2184
15211SOL    HW248266   2.364   2.977   6.357 -1.3376  0.3193 -1.0814
15212SOL     OW48267   6.635   3.994   6.715  0.0269 -0.2043  0.0015
15212SOL    HW148268   6.542   3.974   6.700 -0.1686  0.1231  0.7201
15212SOL    HW248269   6.636   4.089   6.730  0.0917 -0.5449  2.6215
15213SOL     OW48270   1.764   7.838   8.087 -0.0947  0.3694 -0.1490
15213SOL    HW148271   1.748   7.750   8.121 -0.3067  0.1278 -0.8351
15213SOL    HW248272   1.750   7.896   8.161  1.4251 -0.2667  0.6730
15214SOL     OW48273   7.288   4.231   0.516 -0.2751  0.4175  0.3417
15214SOL    HW148274   7.314   4.272   0.598 -1.3591  1.5514  0.1527
15214SOL    HW248275   7.326   4.287   0.448 -0.2938  0.1146  0.0817
15215SOL     OW48276   8.727   9.922   6.517  0.1988  0.0493 -0.3913
15215SOL    HW148277   8.667   9.996   6.530 -0.4002 -0.4280 -0.4045
15215SOL    HW248278   8.763   9.904   6.603 -1.3588 -1.0775  0.0537
15216SOL     OW48279   2.025   4.964   6.040 -0.3336  0.3137  0.0328
15216SOL    HW148280   1.998   4.942   5.951 -1.3355  0.3990  0.3097
15216SOL    HW248281   2.046   4.879   6.080 -1.3937  0.1201  0.1972
15217SOL     OW48282   5.297   3.767   1.554  0.0556 -0.1123 -0.6557
15217SOL    HW148283   5.296   3.846   1.500  1.8275  0.9393  0.6984
15217SOL    HW248284   5.277   3.696   1.494  2.3615  0.9195 -2.8514
15218SOL     OW48285   5.948   6.617   8.461 -0.4444  0.0798 -0.1237
15218SOL    HW148286   5.912   6.529   8.444  0.1186  0.0961 -1.4679
15218SOL    HW248287   5.877   6.662   8.507 -0.9696 -0.8807  0.0582
15219SOL     OW48288   6.200   5.047   4.130 -0.4015  0.0371 -0.0483
15219SOL    HW148289   6.232   5.115   4.190 -0.7272 -0.1414  0.3368
15219SOL    HW248290   6.238   5.070   4.045 -2.1999  1.9646 -0.4260
15220SOL     OW48291   0.608   7.501   8.823  0.0620 -0.1405  0.0953
15220SOL    HW148292   0.626   7.434   8.890  0.7295 -0.4165 -0.3521
15220SOL    HW248293   0.628   7.458   8.740  1.0482  0.7849 -0.1646
15221SOL     OW48294   4.514   8.836   3.543  0.1725 -0.6513 -0.3677
15221SOL    HW148295   4.487   8.847   3.634  2.0738  4.1207 -0.0792
15221SOL    HW248296   4.609   8.824   3.548  0.2917 -0.3696 -1.7152
15222SOL     OW48297   8.866   2.654   9.964 -0.7150  0.3456 -0.0506
15222SOL    HW148298   8.893   2.604   9.887 -0.9766  0.3298 -0.1359
15222SOL    HW248299   8.772   2.635   9.973 -0.4451 -0.5842  0.9701
15223SOL     OW48300   5.583   2.169  10.000  0.3990  0.4171  0.1165
15223SOL    HW148301   5.533   2.237   9.955  0.6147 -0.3329 -1.2994
15223SOL    HW248302   5.519   2.101  10.020  0.3081  0.7394  0.9431
15224SOL     OW48303   0.700   4.407   5.504  0.7456  0.0049  0.4165
15224SOL    HW148304   0.776   4.368   5.458  0.2810 -0.5305  0.0798
15224SOL    HW248305   0.654   4.331   5.541 -0.1095  0.2367 -0.1391
15225SOL     OW48306   2.997   9.345   9.130  0.4713 -0.4709 -0.2713
15225SOL    HW148307   3.003   9.407   9.057 -0.6774 -1.2086 -1.0165
15225SOL    HW248308   2.944   9.390   9.196  0.4239 -0.3054 -0.4231
15226SOL     OW48309   3.445   6.788   6.339 -0.0392  0.1143 -0.0009
15226SOL    HW148310   3.385   6.741   6.397 -0.6816  1.2147  0.2599
15226SOL    HW248311   3.508   6.829   6.399  0.0012  0.2831 -0.1565
15227SOL     OW48312   5.212   8.205   0.523 -0.1238  0.4495 -0.2281
15227SOL    HW148313   5.187   8.272   0.459 -0.5362 -1.4125 -2.0993
15227SOL    HW248314   5.130   8.175   0.561  0.0230  0.6461  0.2562
15228SOL     OW48315   3.135   1.578   2.769 -0.1040 -0.1796 -0.0428
15228SOL    HW148316   3.175   1.530   2.697  0.9677  0.2385  0.2507
15228SOL    HW248317   3.056   1.528   2.790 -0.4901 -0.2462 -1.5554
15229SOL     OW48318   9.539   8.009   3.995 -0.5474 -0.0996  0.0226
15229SOL    HW148319   9.464   7.953   3.976 -0.1301 -0.1173 -1.7720
15229SOL    HW248320   9.615   7.952   3.977 -0.1185  0.3182  0.5062
15230SOL     OW48321   8.726   5.866   9.255 -0.4040  0.7334  0.2802
15230SOL    HW148322   8.684   5.781   9.250  0.1277  0.5281 -0.7987
15230SOL    HW248323   8.777   5.873   9.175 -0.6346  2.1731  0.2330
15231SOL     OW48324   9.823   1.163   1.022 -0.0610  0.0733  0.0393
15231SOL    HW148325   9.812   1.226   1.094  0.9037  0.6548 -0.2977
15231SOL    HW248326   9.867   1.088   1.063 -0.7563 -0.1777  0.3374
15232SOL     OW48327   4.060   7.557  10.176  0.6388  0.5283  0.3232
15232SOL    HW148328   3.981   7.506  10.197  1.0001 -0.1545  0.0520
15232SOL    HW248329   4.037   7.647  10.199 -0.5921  0.5111 -0.7130
15233SOL     OW48330   9.753   2.210   3.330  0.0442 -0.0996 -0.5636
15233SOL    HW148331   9.808   2.142   3.370  1.1494  0.3929 -1.1912
15233SOL    HW248332   9.730   2.267   3.402 -1.2855 -1.3631  0.0641
15234SOL     OW48333   7.666   5.770   6.472  0.6633  0.2963  0.1060
15234SOL    HW148334   7.712   5.814   6.543 -1.0611 -1.0215  2.1773
15234SOL    HW248335   7.684   5.677   6.487 -0.9011 -0.0934 -0.2993
15235SOL     OW48336   8.532   4.044   0.483 -0.0014  0.5513 -0.0278
15235SOL    HW148337   8.623   4.072   0.494 -0.1300  0.4318  1.4975
15235SOL    HW248338   8.512   4.064   0.391  1.2631  1.4365 -0.1363
15236SOL     OW48339   8.378   2.867   4.246  0.1443 -0.5672 -0.0356
15236SOL    HW148340   8.451   2.885   4.305 -0.1531 -2.0351  0.8460
15236SOL    HW248341   8.376   2.941   4.187  0.8812  0.6634  1.4036
15237SOL     OW48342   3.242   3.240  10.207  0.4918 -0.2650  0.4785
15237SOL    HW148343   3.168   3.180  10.213 -0.0262  0.5348  3.2428
15237SOL    HW248344   3.207   3.324  10.235  1.7434  0.8831 -1.1811
15238SOL     OW48345   8.986   8.693   3.017  0.4057 -0.0612  0.0257
15238SOL    HW148346   8.943   8.776   3.038 -2.1131 -1.1730 -0.4599
15238SOL    HW248347   8.968   8.679   2.925  2.3737 -0.3494 -0.3715
15239SOL     OW48348   9.579   1.301   6.941 -0.0715  0.0416 -0.4690
15239SOL    HW148349   9.510   1.309   7.007  0.4376 -0.7209  0.1777
15239SOL    HW248350   9.627   1.384   6.946  1.2171 -0.7329  1.6115
15240SOL     OW48351  10.357   4.681   3.947 -0.4448 -0.7604 -0.3686
15240SOL    HW148352  10.328   4.601   3.903 -0.1439 -0.8293 -0.4421
15240SOL    HW248353  10.425   4.652   4.007 -0.0898 -0.5091 -0.6486
15241SOL     OW48354   4.386   3.935   6.358 -0.3096 -0.5594 -0.0870
15241SOL    HW148355   4.471   3.914   6.319  0.3855  1.5964  0.1516
15241SOL    HW248356   4.357   3.853   6.398  1.5564 -1.3969 -0.3489
15242SOL     OW48357   3.364   5.421   9.555 -0.3067 -0.1781  0.1334
15242SOL    HW148358   3.283   5.428   9.504 -0.2467 -1.3675 -0.1657
15242SOL    HW248359   3.367   5.329   9.581  1.8325 -0.5880 -1.3527
15243SOL     OW48360   5.576   4.438   6.127 -0.0025 -0.2965 -0.2192
15243SOL    HW148361   5.590   4.451   6.221  1.4567 -0.7806 -0.3472
15243SOL    HW248362   5.481   4.430   6.118 -0.2367  0.7494  1.0778
15244SOL     OW48363   7.568   6.288  10.306  0.0296 -0.1317 -0.2210
15244SOL    HW148364   7.585   6.327  10.220 -2.9697 -0.3157 -1.0423
15244SOL    HW248365   7.512   6.212  10.287 -1.6230  0.4405  1.9183
15245SOL     OW48366   5.715   2.590   0.230 -0.5978 -0.1300 -0.0827
15245SOL    HW148367   5.684   2.651   0.296  0.9897 -0.0686  0.6365
15245SOL    HW248368   5.736   2.644   0.154 -1.9850 -0.1490 -0.4996
15246SOL     OW48369   2.639   9.644   8.213 -0.4773 -0.0744  0.1799
15246SOL    HW148370   2.625   9.678   8.301  0.0323  0.1036  0.1955
15246SOL    HW248371   2.616   9.551   8.219 -1.3625  0.1413  0.2635
15247SOL     OW48372   2.820   5.355   4.373  0.6833  0.2530  0.1540
15247SOL    HW148373   2.799   5.416   4.444  0.6710 -0.6388  0.9383
15247SOL    HW248374   2.792   5.400   4.294 -1.2695  0.4331  0.8840
15248SOL     OW48375   4.794   1.375   1.684 -0.9043 -0.1302  0.4362
15248SOL    HW148376   4.839   1.443   1.733  0.6784 -0.4960 -0.4536
15248SOL    HW248377   4.762   1.420   1.605 -0.1039 -0.3344 -0.0157
15249SOL     OW48378   4.254   1.070   5.417 -0.2462  0.0421  0.3468
15249SOL    HW148379   4.341   1.044   5.387 -0.2013 -1.2610  1.5106
15249SOL    HW248380   4.256   1.165   5.418  0.9845  0.0398 -0.1320
15250SOL     OW48381   8.448   6.211   6.917 -0.4899  0.2575 -0.4769
15250SOL    HW148382   8.517   6.233   6.854 -2.6750 -0.9794 -3.5437
15250SOL    HW248383   8.484   6.136   6.965 -0.4504 -2.0912 -3.8030
15251SOL     OW48384   4.499   4.674   2.595 -0.1924 -0.1549 -0.7095
15251SOL    HW148385   4.457   4.760   2.596  1.5733  0.7855 -1.5221
15251SOL    HW248386   4.427   4.612   2.594 -1.5307  1.3305 -0.9435
15252SOL     OW48387   6.287   1.835   5.031  0.5391 -0.6283 -0.3033
15252SOL    HW148388   6.244   1.847   5.115  1.2286 -1.1032  0.1313
15252SOL    HW248389   6.365   1.782   5.051  1.0356 -0.2402 -1.1421
15253SOL     OW48390  10.016   5.325   2.745 -0.7131 -0.2607  0.4579
15253SOL    HW148391  10.090   5.272   2.776 -1.4674 -0.3741  2.1901
15253SOL    HW248392  10.055   5.409   2.720 -0.0527 -0.0604  2.0386
15254SOL     OW48393   8.732   5.378   3.855 -0.1718  0.0303  0.0019
15254SOL    HW148394   8.645   5.417   3.848  0.3325  1.3365  0.7228
15254SOL    HW248395   8.740   5.355   3.948  0.3028  0.0377 -0.0377
15255SOL     OW48396   7.685   3.910   1.169  0.0886  0.3958 -0.2532
15255SOL    HW148397   7.676   3.899   1.074 -1.6950 -0.8023 -0.0071
15255SOL    HW248398   7.595   3.902   1.202  0.7570  0.0706  1.6116
15256SOL     OW48399   3.341   6.823   9.303  0.0993  0.2027 -0.1855
15256SOL    HW148400   3.298   6.824   9.218  0.8985 -0.7480 -0.6265
15256SOL    HW248401   3.434   6.811   9.284  0.3676  0.5715  0.7992
15257SOL     OW48402   2.545   3.032   5.345  0.0747  0.6384 -0.1284
15257SOL    HW148403   2.599   3.110   5.359  0.5040  0.2425  0.4595
15257SOL    HW248404   2.586   2.987   5.271  1.9541 -0.8417  1.7101
15258SOL     OW48405   0.220   7.768   5.330 -0.3369 -0.8878 -0.6130
15258SOL    HW148406   0.165   7.799   5.402  1.7388  0.6973  0.3789
15258SOL    HW248407   0.290   7.719   5.373  1.9710  1.6037 -1.2627
15259SOL     OW48408   2.453   2.321   1.129 -0.2904 -0.0596 -0.0129
15259SOL    HW148409   2.430   2.379   1.201  1.9712 -0.8263  1.4332
15259SOL    HW248410   2.444   2.375   1.050  1.4301  2.2089  1.2296
15260SOL     OW48411  10.089   9.451   9.160  0.6522 -0.1446  0.1491
15260SOL    HW148412  10.011   9.438   9.106 -0.5654  0.7480  1.6258
15260SOL    HW248413  10.077   9.536   9.201  3.6268  1.2153 -1.4791
15261SOL     OW48414   8.853   3.844   3.873  0.4558  0.1813 -0.1380
15261SOL    HW148415   8.872   3.786   3.799  0.8726  0.4039 -0.2072
15261SOL    HW248416   8.758   3.855   3.872  0.3650 -0.5495 -0.0916
15262SOL     OW48417   7.192   8.107   2.615  0.5064  0.2254 -0.6902
15262SOL    HW148418   7.261   8.043   2.601  0.2837  0.5044 -3.6365
15262SOL    HW248419   7.217   8.183   2.562 -0.4706  1.6248  0.7459
15263SOL     OW48420   0.912   4.993   7.844 -0.5821  0.2191  0.7546
15263SOL    HW148421   0.883   4.919   7.897 -1.5030  0.8305  1.1209
15263SOL    HW248422   1.007   4.998   7.859 -0.0911 -2.1423 -0.8817
15264SOL     OW48423   4.053  10.044   5.022  0.3766  0.4815  0.0984
15264SOL    HW148424   3.972  10.029   4.973 -0.0479 -0.6175  1.0922
15264SOL    HW248425   4.098  10.114   4.974 -0.1677 -0.3393 -1.6642
15265SOL     OW48426   3.988   8.599   6.948 -0.0374 -0.6187  0.0494
15265SOL    HW148427   3.927   8.655   6.901  1.4933 -1.3900 -3.1099
15265SOL    HW248428   3.973   8.511   6.912  1.2418 -1.2744  1.0196
15266SOL     OW48429   1.527   1.871   0.937 -0.0474  0.4144 -0.5173
15266SOL    HW148430   1.456   1.833   0.885  1.3943 -0.7009 -1.7539
15266SOL    HW248431   1.597   1.888   0.874  1.3511  0.0888  0.8860
15267SOL     OW48432   6.547   7.252   5.124 -0.2483  0.2377 -0.1653
15267SOL    HW148433   6.615   7.231   5.059 -0.8136 -0.2193 -0.6254
15267SOL    HW248434   6.465   7.232   5.079 -0.6378 -0.3940  0.8066
15268SOL     OW48435   3.546   5.806   0.441 -0.4885  0.8267  0.1139
15268SOL    HW148436   3.523   5.869   0.373  0.0331  0.6087 -0.2706
15268SOL    HW248437   3.632   5.834   0.472 -0.9020  1.1650  0.9761
15269SOL     OW48438   9.754   5.990   0.625 -0.5718 -0.0422  0.1853
15269SOL    HW148439   9.745   6.007   0.531 -1.3218  0.1100  0.2794
15269SOL    HW248440   9.680   6.036   0.665 -0.5875 -0.5922  0.7959
15270SOL     OW48441   5.877   6.658   8.201 -0.3504  0.5280  0.1982
15270SOL    HW148442   5.924   6.659   8.284 -0.5936  1.0482  0.3305
15270SOL    HW248443   5.836   6.571   8.199  0.3471  0.1910  0.2239
15271SOL     OW48444   1.089   7.360   0.822 -0.0681 -0.0677 -0.3191
15271SOL    HW148445   1.113   7.369   0.914 -0.5534 -1.5738 -0.0197
15271SOL    HW248446   1.172   7.344   0.777  0.0863 -0.0679 -0.0366
15272SOL     OW48447   3.631   2.437   0.521 -0.3013 -0.2725 -0.4352
15272SOL    HW148448   3.668   2.457   0.435  0.0918 -0.6505 -0.3606
15272SOL    HW248449   3.559   2.499   0.532 -0.1877 -0.0514 -0.9251
15273SOL     OW48450   6.064   5.177   7.353 -0.0181  0.6095 -0.3306
15273SOL    HW148451   6.061   5.095   7.403  3.0793 -0.1446 -1.1913
15273SOL    HW248452   6.086   5.244   7.419 -1.9527  0.7126  0.2672
15274SOL     OW48453   2.383   9.475   4.257 -0.6517  0.0566  0.1667
15274SOL    HW148454   2.381   9.384   4.285 -0.5742  0.8259  2.9975
15274SOL    HW248455   2.317   9.518   4.311 -1.0613  1.6139 -1.4801
15275SOL     OW48456   5.475  10.005   8.683 -0.0003 -0.1636  0.1670
15275SOL    HW148457   5.428   9.995   8.766 -0.0799 -0.2885  0.1071
15275SOL    HW248458   5.566   9.988   8.706  0.0206  0.1191  0.2903
15276SOL     OW48459   2.844   4.386   9.110 -0.8225  0.0498  0.1802
15276SOL    HW148460   2.918   4.434   9.072 -1.6699  0.5361 -0.9320
15276SOL    HW248461   2.836   4.420   9.199  0.8812 -0.7183  0.6671
15277SOL     OW48462   5.575   8.818   3.653  0.3113 -0.1325  0.1519
15277SOL    HW148463   5.528   8.748   3.606  0.7772 -0.2934 -0.0770
15277SOL    HW248464   5.650   8.838   3.597  0.1742  0.5599  0.2133
15278SOL     OW48465   8.850   5.294   7.757 -0.0778 -0.4064 -0.1606
15278SOL    HW148466   8.857   5.202   7.734  1.8655 -0.9750  2.1967
15278SOL    HW248467   8.939   5.328   7.747 -0.3478  0.6847  0.8546
15279SOL     OW48468   1.676   5.185   2.429  0.5227 -0.4155 -0.2523
15279SOL    HW148469   1.744   5.160   2.491  0.0060  0.7503  0.8564
15279SOL    HW248470   1.594   5.158   2.471  0.2163 -0.6330 -0.9664
15280SOL     OW48471   9.607   3.767   1.578 -1.0172  0.1425  0.6185
15280SOL    HW148472   9.630   3.738   1.490  0.5115  1.6116  0.4908
15280SOL    HW248473   9.520   3.730   1.593 -1.5918  0.3743 -1.7471
15281SOL     OW48474   5.027   3.011   3.961 -0.4036  0.4787 -0.2712
15281SOL    HW148475   5.044   3.018   4.055 -2.1805 -0.9431  0.2072
15281SOL    HW248476   5.091   2.946   3.929  0.6051  1.4031 -0.2134
15282SOL     OW48477   0.583   1.025  10.341  0.1590 -0.5075 -0.7788
15282SOL    HW148478   0.544   0.962  10.280 -0.8829 -0.0177 -0.6443
15282SOL    HW248479   0.547   1.110  10.314 -0.0887 -0.2423  0.3254
15283SOL     OW48480   5.159   0.339   0.776  0.0470 -0.0364 -0.0026
15283SOL    HW148481   5.240   0.321   0.823 -0.8405 -1.1760  1.1568
15283SOL    HW248482   5.168   0.429   0.746  1.4751  0.0552  0.6306
15284SOL     OW48483   6.986   6.573   5.372  0.2207 -0.1813  0.2072
15284SOL    HW148484   7.025   6.630   5.438 -0.7918  0.7646  0.0150
15284SOL    HW248485   7.061   6.539   5.323  0.8485  1.2783  0.0964
15285SOL     OW48486  10.044   0.913   8.166 -0.2177  0.4765 -0.5410
15285SOL    HW148487  10.105   0.872   8.104  0.2125 -0.2746  0.3454
15285SOL    HW248488   9.961   0.868   8.150  0.3066 -0.9831  0.5881
15286SOL     OW48489   8.378   2.704   6.452 -0.2774 -0.0469  0.1303
15286SOL    HW148490   8.328   2.623   6.460 -0.9632  0.4233  0.7620
15286SOL    HW248491   8.334   2.753   6.383 -0.4013  0.1515  0.3443
15287SOL     OW48492   0.032   2.010   5.284  0.2879  0.5538 -0.2640
15287SOL    HW148493  -0.034   2.066   5.326  0.6826  0.4295  0.5507
15287SOL    HW248494  -0.019   1.942   5.241 -0.1195 -0.1153  1.1940
15288SOL     OW48495   3.216   9.256   3.399  0.5128  0.1922  0.3911
15288SOL    HW148496   3.145   9.321   3.395 -0.9425 -1.2822  1.3524
15288SOL    HW248497   3.296   9.309   3.394 -0.6060  1.8632 -1.5168
15289SOL     OW48498   9.511   5.382   7.290  0.3179  0.1770  0.5701
15289SOL    HW148499   9.521   5.319   7.361  0.6981  0.1108  0.4629
15289SOL    HW248500   9.432   5.431   7.312  1.5577  1.5830  2.1446
15290SOL     OW48501   8.837   2.248   4.733 -0.2536  0.2578 -0.4019
15290SOL    HW148502   8.886   2.174   4.699  0.4701  1.0981 -1.2203
15290SOL    HW248503   8.769   2.265   4.667 -0.0823  0.6572 -0.4792
15291SOL     OW48504   2.608   4.429   9.268  0.1859  0.0067  1.0216
15291SOL    HW148505   2.689   4.399   9.309  0.7306 -1.0174 -0.7306
15291SOL    HW248506   2.585   4.509   9.317  0.9423 -0.9528  3.0882
15292SOL     OW48507   9.186   9.110   6.254  0.3159 -0.5961  0.0588
15292SOL    HW148508   9.182   9.049   6.181 -1.8518 -2.5337  1.6326
15292SOL    HW248509   9.279   9.119   6.274  0.7952 -1.8665 -1.4567
15293SOL     OW48510   0.253   0.409   3.697 -0.2907 -0.2489  0.4056
15293SOL    HW148511   0.186   0.386   3.761  0.4811 -2.1232  0.6058
15293SOL    HW248512   0.246   0.504   3.689 -0.2834  0.1152  3.4272
15294SOL     OW48513   8.216   1.175   7.154  0.0268 -0.0227 -0.4420
15294SOL    HW148514   8.128   1.209   7.167 -0.4943 -1.6598  0.4990
15294SOL    HW248515   8.211   1.125   7.073 -0.9203 -3.0983  1.3738
15295SOL     OW48516   5.713  10.244   5.641  0.3462 -0.2555 -0.0006
15295SOL    HW148517   5.782  10.270   5.581 -0.3217  1.8361  0.0624
15295SOL    HW248518   5.632  10.265   5.596 -0.2865 -1.9655  0.2389
15296SOL     OW48519   5.877   1.284   4.504 -0.1881  0.5007 -0.1929
15296SOL    HW148520   5.784   1.274   4.481 -0.9265  1.6727  1.9226
15296SOL    HW248521   5.882   1.371   4.545  1.7300  0.2291  0.2502
15297SOL     OW48522   9.028   2.182   1.848  0.1644  0.4544 -0.1231
15297SOL    HW148523   8.946   2.183   1.799 -0.6314 -2.7148  0.8920
15297SOL    HW248524   9.081   2.115   1.804  1.8333  1.6623 -0.0767
15298SOL     OW48525  10.052   2.887   1.441  0.1142  0.0809  0.1880
15298SOL    HW148526   9.998   2.947   1.493 -1.0336 -0.4049 -0.4133
15298SOL    HW248527  10.112   2.848   1.505  1.2312  2.2061  0.5109
15299SOL     OW48528   2.812   8.880   3.833  0.2816  0.0898 -0.1603
15299SOL    HW148529   2.855   8.834   3.905  1.3525 -0.0736 -0.8758
15299SOL    HW248530   2.884   8.904   3.774 -0.6876 -0.9971 -1.8688
15300SOL     OW48531   8.498   6.875   7.622 -0.0386 -0.6313  0.5385
15300SOL    HW148532   8.440   6.894   7.696 -0.8986 -2.3798  0.3542
15300SOL    HW248533   8.440   6.844   7.553  0.7535  0.9381 -0.9067
15301SOL     OW48534   5.036   5.424   0.261  0.3902  0.1836  0.2518
15301SOL    HW148535   4.951   5.399   0.224 -0.2875  1.3182  0.9508
15301SOL    HW248536   5.059   5.353   0.320  1.3321 -1.5066 -1.9936
15302SOL     OW48537   2.977   9.476   1.061  0.6526 -0.4324  0.6848
15302SOL    HW148538   2.883   9.492   1.046  0.5103 -1.1518  0.7913
15302SOL    HW248539   2.997   9.400   1.007  0.9114 -0.9862  1.5486
15303SOL     OW48540   0.183   5.430   7.093 -0.0927  0.4104  0.3054
15303SOL    HW148541   0.224   5.372   7.029  1.0257  0.1901  1.1867
15303SOL    HW248542   0.192   5.518   7.056 -1.0016  0.1298 -0.6199
15304SOL     OW48543   7.543   0.648   2.249  0.0470 -0.5027 -0.5857
15304SOL    HW148544   7.543   0.577   2.186 -0.5775 -0.6572 -0.4172
15304SOL    HW248545   7.556   0.727   2.197  1.3380 -0.7788 -0.7149
15305SOL     OW48546   0.175   6.286   6.821  0.2217 -0.1388 -0.1294
15305SOL    HW148547   0.168   6.366   6.768  0.4699  0.7887  1.1943
15305SOL    HW248548   0.255   6.244   6.790  2.0290  1.8901  1.3985
15306SOL     OW48549   0.982   1.614   7.105  0.2106 -0.0425 -0.2360
15306SOL    HW148550   0.956   1.535   7.059  3.7487 -2.0851  0.9198
15306SOL    HW248551   0.975   1.684   7.039 -1.2368 -1.5936 -1.8162
15307SOL     OW48552   7.448   8.579   2.336 -0.3790  0.3261 -0.3431
15307SOL    HW148553   7.382   8.512   2.317 -1.0134  0.1144  2.2251
15307SOL    HW248554   7.399   8.650   2.379  0.9136  0.4624  0.9984
15308SOL     OW48555   7.116   1.620   9.960  0.6194  0.2285  0.0775
15308SOL    HW148556   7.145   1.556  10.026  0.4225  0.8918  0.8334
15308SOL    HW248557   7.098   1.568   9.882  0.0715 -0.6988  0.8002
15309SOL     OW48558   7.081   3.124   7.369 -0.0241 -0.0564 -0.5374
15309SOL    HW148559   7.009   3.167   7.414  0.7548  0.4573  0.2489
15309SOL    HW248560   7.040   3.081   7.293 -1.5284 -1.7940  1.1582
15310SOL     OW48561   4.653   1.406   4.387  0.4609 -0.0953 -0.2450
15310SOL    HW148562   4.593   1.476   4.412  0.6879  0.7217 -1.8187
15310SOL    HW248563   4.727   1.416   4.447  1.5718  2.6126 -1.8531
15311SOL     OW48564   5.004   3.284   3.199 -0.9966  0.1260  0.1191
15311SOL    HW148565   4.955   3.365   3.214 -2.3065 -0.6496  0.1554
15311SOL    HW248566   5.070   3.283   3.269 -0.5654  1.4464 -0.2446
15312SOL     OW48567   3.797   9.453   8.198 -0.0898  0.3462  0.5007
15312SOL    HW148568   3.703   9.461   8.181 -0.3401 -1.3302  0.9386
15312SOL    HW248569   3.807   9.368   8.239  1.5232  0.9175  1.3709
15313SOL     OW48570   8.820   7.007   0.856  0.1745  0.6405 -0.1917
15313SOL    HW148571   8.743   7.044   0.812  0.0753  0.3883 -0.2334
15313SOL    HW248572   8.892   7.064   0.830  0.1301  0.4547 -0.7403
15314SOL     OW48573   9.868   3.646   5.208  0.1894 -0.3587  0.2407
15314SOL    HW148574   9.844   3.730   5.247  0.7077 -0.3158  0.4703
15314SOL    HW248575   9.808   3.637   5.133  0.2438  0.2940  0.1075
15315SOL     OW48576   2.185   0.438   6.303  0.3727  0.4410 -0.1334
15315SOL    HW148577   2.130   0.489   6.362  1.2343  1.6227 -0.3136
15315SOL    HW248578   2.228   0.373   6.360 -0.1588  0.3998  0.2246
15316SOL     OW48579   3.599   6.063   2.951 -0.5497  0.1612 -0.4768
15316SOL    HW148580   3.520   6.080   2.899 -1.8074 -1.6491  0.7307
15316SOL    HW248581   3.577   5.986   3.003  1.7249  0.1488  0.5655
15317SOL     OW48582   9.206  10.119   4.466 -0.1262  0.2557 -0.1054
15317SOL    HW148583   9.255  10.111   4.548  2.9188 -4.8184 -1.9698
15317SOL    HW248584   9.129  10.063   4.478 -0.5143  0.7426 -0.2687
15318SOL     OW48585   2.686   9.221   4.582  0.4120 -0.4752 -0.6529
15318SOL    HW148586   2.615   9.199   4.522 -0.7187 -1.5163  0.9796
15318SOL    HW248587   2.643   9.265   4.655  1.4546 -1.1234  0.3809
15319SOL     OW48588   2.722   1.516   4.477  0.4413 -0.0251  0.2907
15319SOL    HW148589   2.632   1.547   4.483 -0.4661 -2.3088 -0.5086
15319SOL    HW248590   2.751   1.541   4.390  0.1146 -0.3732  0.0770
15320SOL     OW48591   1.345   3.405   8.993 -0.1589  0.1252 -0.6057
15320SOL    HW148592   1.269   3.383   8.939 -0.5606 -0.3497  0.1154
15320SOL    HW248593   1.322   3.489   9.033  1.1598  1.7107 -2.9716
15321SOL     OW48594   9.995   7.083   8.813 -0.5369 -0.2439 -0.4223
15321SOL    HW148595   9.974   6.996   8.846 -0.3025  0.1827  0.9423
15321SOL    HW248596  10.027   7.130   8.890  1.5502  0.3477 -1.5881
15322SOL     OW48597   6.604   3.083   5.631  0.4227 -0.6205 -0.9320
15322SOL    HW148598   6.513   3.082   5.660  0.6505  1.7438  0.1023
15322SOL    HW248599   6.650   3.029   5.695 -0.2197 -2.0138 -1.5860
15323SOL     OW48600   3.135   1.162   7.876 -0.1495  0.4274 -0.0018
15323SOL    HW148601   3.150   1.069   7.859 -0.6463  0.7142 -2.3084
15323SOL    HW248602   3.070   1.188   7.811 -1.1827  2.0702  1.6002
15324SOL     OW48603   8.938   1.794   4.424  0.3376 -0.2016 -0.1263
15324SOL    HW148604   8.858   1.841   4.448  0.6621  0.2939 -0.0000
15324SOL    HW248605   9.007   1.835   4.475  0.9535  0.5010 -1.4661
15325SOL     OW48606   5.901   6.721   6.799  0.3587  0.7413 -0.2901
15325SOL    HW148607   5.867   6.693   6.884  0.0692 -0.5350 -0.7957
15325SOL    HW248608   5.823   6.737   6.747  0.4955  3.1834  0.1430
15326SOL     OW48609  10.035   0.361   7.921 -0.5753 -0.0367 -0.0545
15326SOL    HW148610   9.992   0.303   7.983  1.6346 -1.0921  0.6001
15326SOL    HW248611  10.052   0.305   7.845  0.0293  0.2218 -0.1119
15327SOL     OW48612   1.429   0.972   1.002  0.3549  0.5902  0.3139
15327SOL    HW148613   1.487   1.028   1.053  0.8589  0.6637 -0.3339
15327SOL    HW248614   1.377   0.926   1.068  0.4629  1.2448  0.8744
15328SOL     OW48615   7.253   6.673   3.364  0.3254  0.3613  0.1746
15328SOL    HW148616   7.235   6.767   3.374 -0.3383  0.1956  0.5619
15328SOL    HW248617   7.341   6.662   3.399 -0.0360  0.6434  1.2006
15329SOL     OW48618   9.662   8.934   0.845 -0.3507  0.2703 -0.2817
15329SOL    HW148619   9.724   8.922   0.916 -0.8604  1.9134  0.4758
15329SOL    HW248620   9.580   8.958   0.888 -0.3001  2.7616 -1.4431
15330SOL     OW48621   4.610   3.019   2.613 -0.3600 -0.5739 -0.0506
15330SOL    HW148622   4.559   2.978   2.682 -1.9183  0.8129 -0.3099
15330SOL    HW248623   4.558   3.006   2.534  0.3043 -0.2055 -0.5591
15331SOL     OW48624   2.963   1.887   2.125  0.4020 -0.0529 -0.4651
15331SOL    HW148625   2.966   1.905   2.219 -2.5741 -0.5646 -0.1715
15331SOL    HW248626   3.017   1.810   2.113  2.1921  0.9879  0.5054
15332SOL     OW48627   5.199   9.844   8.223 -0.0403 -0.6131  0.4527
15332SOL    HW148628   5.239   9.931   8.220 -1.1426 -0.1170 -0.7756
15332SOL    HW248629   5.269   9.787   8.256  1.4439  0.3355 -0.9055
15333SOL     OW48630   2.128   2.525   3.150  0.2378  0.0174 -0.0001
15333SOL    HW148631   2.100   2.511   3.060  0.4881  0.8895 -0.2246
15333SOL    HW248632   2.105   2.444   3.196 -0.4466 -0.1985 -0.7106
15334SOL     OW48633   8.886   9.103   3.309  0.2871  0.2470  0.6726
15334SOL    HW148634   8.952   9.153   3.261  0.8514 -1.4705 -0.4121
15334SOL    HW248635   8.803   9.135   3.276  0.6586 -0.3396 -0.8993
15335SOL     OW48636   9.183   0.240   7.513  0.4085 -0.1047  0.1759
15335SOL    HW148637   9.105   0.212   7.466  1.5022  0.0844 -1.8387
15335SOL    HW248638   9.173   0.202   7.601 -1.6691 -0.5027 -0.1829
15336SOL     OW48639   2.964   6.166   4.482 -0.3411 -0.2147  0.5317
15336SOL    HW148640   2.910   6.131   4.553 -0.5962 -0.4677  0.2132
15336SOL    HW248641   2.904   6.220   4.431 -0.6329 -1.5372 -0.5830
15337SOL     OW48642   2.784   7.796   8.995 -0.4356 -0.0944 -0.6382
15337SOL    HW148643   2.709   7.836   9.038 -0.4817  1.9395 -2.4421
15337SOL    HW248644   2.753   7.774   8.908  0.4090 -1.5727 -0.6012
15338SOL     OW48645   5.750   6.149   9.323  0.0490 -0.1497 -0.0352
15338SOL    HW148646   5.787   6.152   9.411 -0.9597 -1.1065  0.4591
15338SOL    HW248647   5.816   6.102   9.271 -0.1488 -1.2486  0.6694
15339SOL     OW48648   7.571   9.324   9.109  0.7454  0.3511  0.3834
15339SOL    HW148649   7.543   9.261   9.175 -0.5718 -0.9096 -1.2923
15339SOL    HW248650   7.634   9.380   9.154  0.8523 -1.2503  2.3350
15340SOL     OW48651   5.093   2.696   1.602 -0.6154  0.2583 -0.4363
15340SOL    HW148652   5.092   2.737   1.515  0.0139  0.1182 -0.5140
15340SOL    HW248653   5.108   2.603   1.584 -1.8077  0.0071 -0.2489
15341SOL     OW48654   0.056   9.579   1.701  0.2187 -0.2237  0.2504
15341SOL    HW148655   0.068   9.510   1.767  0.0914 -1.2790 -0.7910
15341SOL    HW248656  -0.007   9.639   1.741 -0.4506 -1.2496  0.8104
15342SOL     OW48657   9.772   8.889   2.452 -0.6047 -0.1573  0.0724
15342SOL    HW148658   9.709   8.870   2.383 -0.1872  0.4658 -0.4896
15342SOL    HW248659   9.734   8.965   2.498  0.5925  1.4154 -1.4236
15343SOL     OW48660   8.540   8.186   7.414  0.4052 -0.5564 -0.0324
15343SOL    HW148661   8.540   8.127   7.338  0.7989 -0.3111 -0.2269
15343SOL    HW248662   8.490   8.139   7.481 -0.8785 -0.3251 -0.7885
15344SOL     OW48663   1.838   4.759   2.399  0.3168  0.5143 -0.2497
15344SOL    HW148664   1.852   4.690   2.464 -0.9094  0.6189  0.1399
15344SOL    HW248665   1.764   4.809   2.432 -0.3347  0.5674 -1.7340
15345SOL     OW48666   1.931   9.726   6.677 -0.3373  0.5964  0.8129
15345SOL    HW148667   1.952   9.633   6.683 -0.5688  0.5194  0.4514
15345SOL    HW248668   1.981   9.757   6.602 -0.5809  0.6738  0.6831
15346SOL     OW48669   9.720   6.039   8.591  0.1802  0.1982 -0.2414
15346SOL    HW148670   9.659   6.108   8.617  0.8041  0.7892 -0.3189
15346SOL    HW248671   9.794   6.085   8.551 -0.0948 -0.6010 -1.7665
15347SOL     OW48672  10.277   4.514   5.855  0.2416 -0.8830  0.2264
15347SOL    HW148673  10.243   4.534   5.942  2.5426 -1.5713  1.3728
15347SOL    HW248674  10.308   4.424   5.861 -0.9060 -1.4899 -1.8112
15348SOL     OW48675   7.642   1.991   1.451 -0.0727 -0.3088 -0.1338
15348SOL    HW148676   7.636   2.079   1.414 -2.1449 -0.6341 -0.6835
15348SOL    HW248677   7.645   2.005   1.546 -0.0555  0.3643 -0.2303
15349SOL     OW48678   0.910   3.219   0.571  0.5825 -0.3291 -0.5161
15349SOL    HW148679   0.890   3.275   0.497  4.4900  1.2450 -0.6266
15349SOL    HW248680   0.869   3.262   0.646  0.6283  0.7656 -1.1005
15350SOL     OW48681   4.085   4.062   0.015  0.5778 -0.6828  0.0181
15350SOL    HW148682   4.049   4.087  -0.071  1.7385 -0.4854 -0.4357
15350SOL    HW248683   4.170   4.022  -0.006  2.0520  1.6303  1.1971
15351SOL     OW48684   3.310   6.926   8.421  0.0876 -0.3375  0.4505
15351SOL    HW148685   3.271   7.013   8.407  3.1982  1.2119  0.6283
15351SOL    HW248686   3.282   6.901   8.509 -1.0677  0.3439  0.2949
15352SOL     OW48687   1.605   3.515   2.613 -0.2753 -0.2303  0.4708
15352SOL    HW148688   1.529   3.477   2.656  0.4089 -0.5686  1.4170
15352SOL    HW248689   1.573   3.597   2.576 -1.0175 -0.1935  1.1689
15353SOL     OW48690   6.427   3.731   8.317  0.4406  0.3223  0.2624
15353SOL    HW148691   6.505   3.676   8.325  1.2904  0.7973 -3.2209
15353SOL    HW248692   6.360   3.672   8.284 -0.0499  0.4385  1.0124
15354SOL     OW48693   9.399   4.300   3.456 -0.2824 -0.2687  0.0348
15354SOL    HW148694   9.494   4.291   3.450  0.0292  2.7165 -1.2845
15354SOL    HW248695   9.367   4.277   3.369 -0.6556 -0.3348  0.1883
15355SOL     OW48696   9.404   2.842   7.647  0.3826  1.0276  0.3924
15355SOL    HW148697   9.312   2.852   7.672 -0.3251 -2.2405 -0.4797
15355SOL    HW248698   9.409   2.883   7.560 -0.4681  0.5309  0.0954
15356SOL     OW48699   3.990   4.534   8.452  0.4489  0.1127  0.6195
15356SOL    HW148700   3.896   4.545   8.467  0.2900  1.7195 -1.1237
15356SOL    HW248701   4.018   4.618   8.414  2.0119 -1.2497 -1.4696
15357SOL     OW48702   6.434   6.381   8.764  0.2133  0.5276  0.0880
15357SOL    HW148703   6.396   6.379   8.677  2.7014 -0.7853 -1.0735
15357SOL    HW248704   6.436   6.289   8.791 -1.3583  0.9849  1.9903
15358SOL     OW48705   4.634   3.794   1.129 -0.2979  0.1227 -1.2866
15358SOL    HW148706   4.564   3.808   1.192 -0.4239 -1.3875 -1.0482
15358SOL    HW248707   4.714   3.793   1.182 -0.2545  0.2746 -1.3484
15359SOL     OW48708   3.452   2.011   9.155  0.1658  0.1686 -0.4824
15359SOL    HW148709   3.372   2.021   9.207  2.2371  1.6694  2.7942
15359SOL    HW248710   3.436   1.934   9.101 -3.0232 -0.2800  0.8556
15360SOL     OW48711   3.283   3.475   4.621  0.2370 -0.3586  0.0329
15360SOL    HW148712   3.308   3.396   4.668  0.4513 -0.8943 -0.9597
15360SOL    HW248713   3.196   3.457   4.585 -1.0298  0.9504  2.2152
15361SOL     OW48714   6.521   3.454   0.462 -0.2245 -0.0915  0.1924
15361SOL    HW148715   6.446   3.416   0.416  0.6772  0.2331 -1.6356
15361SOL    HW248716   6.531   3.541   0.424  0.8639  0.0032  0.6587
15362SOL     OW48717   9.130   4.105   0.794 -0.2256 -0.1115 -0.3273
15362SOL    HW148718   9.133   4.091   0.700  0.4217 -0.3641 -0.2766
15362SOL    HW248719   9.169   4.191   0.807  4.1053 -1.8302  0.0205
15363SOL     OW48720   3.466   2.443   7.507 -0.2803 -0.1287  0.1644
15363SOL    HW148721   3.540   2.383   7.514  0.7520  1.2299  1.4235
15363SOL    HW248722   3.414   2.409   7.434  0.9442 -1.7916  0.0250
15364SOL     OW48723   4.902   2.153   3.958  0.3741  0.4484  0.1672
15364SOL    HW148724   4.854   2.095   3.899  1.0313  1.0656 -1.0097
15364SOL    HW248725   4.987   2.166   3.915  0.3757  1.9913  0.5676
15365SOL     OW48726   4.368   5.021   6.577  0.1148 -0.2995 -0.1009
15365SOL    HW148727   4.326   5.034   6.662 -0.1157  1.9979 -0.4848
15365SOL    HW248728   4.459   5.001   6.598  0.3350  1.3702  0.7349
15366SOL     OW48729   7.231   0.624   5.346 -0.4762  0.4218 -0.0950
15366SOL    HW148730   7.231   0.720   5.350 -1.6883  0.4217  0.2113
15366SOL    HW248731   7.273   0.597   5.427 -0.2392  0.6966 -0.1250
15367SOL     OW48732   4.571   3.114   1.718 -0.0338 -0.8806 -0.0136
15367SOL    HW148733   4.480   3.140   1.705  0.2487  0.3289  0.2704
15367SOL    HW248734   4.572   3.020   1.702 -1.2856 -0.8691 -0.2500
15368SOL     OW48735   2.647   4.759   4.157 -0.0726 -0.0268 -0.1000
15368SOL    HW148736   2.731   4.804   4.172  0.5797 -0.7020 -1.6064
15368SOL    HW248737   2.582   4.819   4.194  0.8591  1.6772 -1.0673
15369SOL     OW48738   7.840   7.802   9.609 -1.1377 -0.1648  0.1810
15369SOL    HW148739   7.815   7.893   9.626 -0.2898 -0.0596  0.9629
15369SOL    HW248740   7.793   7.751   9.674 -1.1331 -0.2186  0.1429
15370SOL     OW48741   2.490   3.856   1.605  0.4051 -0.0559 -0.7220
15370SOL    HW148742   2.417   3.917   1.613  1.0028  0.6998 -1.0056
15370SOL    HW248743   2.455   3.774   1.641 -0.2824  0.5301  0.0053
15371SOL     OW48744   2.510   5.928   5.674 -0.1044 -0.5043  0.0070
15371SOL    HW148745   2.458   5.999   5.711  1.0508 -0.1926  1.0973
15371SOL    HW248746   2.446   5.860   5.652 -1.0817  0.3242  0.2269
15372SOL     OW48747  10.323   3.958   2.370 -0.7783 -0.1138 -0.1603
15372SOL    HW148748  10.321   4.033   2.310 -0.0885  1.3545  1.5398
15372SOL    HW248749  10.249   3.972   2.428  0.3664  0.2428  1.2670
15373SOL     OW48750   9.441   0.639   0.494  0.0733 -0.1039  0.3886
15373SOL    HW148751   9.391   0.709   0.452 -1.0041 -0.4039  1.1318
15373SOL    HW248752   9.470   0.677   0.577  1.0552  0.0526 -0.0192
15374SOL     OW48753  10.045   5.100   4.988  0.1212 -0.0112 -0.0474
15374SOL    HW148754   9.978   5.087   5.055  1.7197  3.5510  2.5945
15374SOL    HW248755  10.106   5.027   5.001 -1.5525 -1.5135 -0.3352
15375SOL     OW48756   0.925   0.956   9.523 -0.7636  0.2434 -0.3682
15375SOL    HW148757   0.895   1.030   9.469 -0.7922  0.8441  0.4457
15375SOL    HW248758   0.865   0.885   9.501 -0.3338  0.2582 -1.6531
15376SOL     OW48759   4.841   4.729   0.564 -0.5575  0.6745 -0.3123
15376SOL    HW148760   4.809   4.672   0.494 -0.5611  0.5570 -0.2156
15376SOL    HW248761   4.762   4.758   0.610 -0.5470  0.6449 -0.2753
15377SOL     OW48762   2.749   5.997   2.027 -0.2258 -0.2152 -0.8764
15377SOL    HW148763   2.677   6.013   1.966 -0.6508  0.2981 -0.2606
15377SOL    HW248764   2.767   5.904   2.019  0.6702  0.0939 -2.8008
15378SOL     OW48765   7.635   1.480   1.116 -0.0419 -0.1470 -0.1167
15378SOL    HW148766   7.640   1.537   1.039 -0.1578 -0.7438 -0.5692
15378SOL    HW248767   7.610   1.395   1.082 -0.0660 -0.4295  0.5823
15379SOL     OW48768   3.759   4.821   5.497 -0.5935  0.2502  0.5804
15379SOL    HW148769   3.780   4.876   5.572 -1.4881  2.1909 -0.5140
15379SOL    HW248770   3.790   4.870   5.421 -0.8634 -1.0604 -0.4217
15380SOL     OW48771   9.619   5.237   0.015 -0.0411 -0.2732  0.4325
15380SOL    HW148772   9.660   5.177   0.078 -0.1117 -0.8852 -0.0933
15380SOL    HW248773   9.525   5.228   0.030 -0.0204  0.4645  1.0351
15381SOL     OW48774   3.574   4.668  10.063  0.3567  0.1286 -0.2758
15381SOL    HW148775   3.655   4.629  10.029 -1.0433 -2.0998 -1.3113
15381SOL    HW248776   3.506   4.639  10.002 -1.1743  2.4565  0.2015
15382SOL     OW48777   4.469   7.836   6.366 -0.3385 -0.0381 -0.1821
15382SOL    HW148778   4.467   7.760   6.425  1.9921  0.5124  0.7405
15382SOL    HW248779   4.503   7.802   6.284 -1.8701 -0.4645 -0.6668
15383SOL     OW48780   0.305   3.091   3.189  0.2429 -0.1242  0.1981
15383SOL    HW148781   0.218   3.087   3.229  0.2737 -0.8771  0.2158
15383SOL    HW248782   0.288   3.082   3.095  0.1502  1.8913 -0.0215
15384SOL     OW48783   1.098   4.676   7.590 -0.1908 -0.9534  0.1430
15384SOL    HW148784   1.124   4.763   7.621  0.3365 -1.1304  0.2190
15384SOL    HW248785   1.016   4.658   7.635 -1.0114  0.0556 -0.8745
15385SOL     OW48786   8.446   1.834   4.892 -0.3987  0.4558 -0.1247
15385SOL    HW148787   8.436   1.819   4.798  0.4569  0.4824 -0.2296
15385SOL    HW248788   8.357   1.836   4.926 -0.7070 -2.8310 -0.4111
15386SOL     OW48789   1.506   8.973   0.348  0.0242  0.0348 -0.1489
15386SOL    HW148790   1.509   8.883   0.315  1.4079  0.1419 -0.3901
15386SOL    HW248791   1.586   8.982   0.399 -1.1015  0.5047  1.5994
15387SOL     OW48792   0.907   3.342   6.793 -0.1716  0.1135 -0.0428
15387SOL    HW148793   0.927   3.386   6.876  1.3601  1.1408 -0.9042
15387SOL    HW248794   0.843   3.399   6.751  1.4312  1.3534 -0.9298
15388SOL     OW48795  10.204   9.298   1.292 -0.1465  0.4695  0.0020
15388SOL    HW148796  10.213   9.381   1.339  3.1113  0.7200 -0.8112
15388SOL    HW248797  10.158   9.241   1.354  1.9884  1.4286  2.7149
15389SOL     OW48798  10.169   1.516  10.220 -0.3335 -0.7263  0.6124
15389SOL    HW148799  10.243   1.577  10.223  0.2889 -1.1494 -2.2987
15389SOL    HW248800  10.098   1.566  10.180 -1.1022 -0.8224  1.8188
15390SOL     OW48801   7.727   4.243   1.018  0.3928  0.5332 -0.5910
15390SOL    HW148802   7.660   4.311   1.014  0.2588  0.4715  0.2779
15390SOL    HW248803   7.795   4.279   1.075  0.4955  0.0909 -0.4269
15391SOL     OW48804   1.561   9.404   0.208  0.3575 -0.5821 -0.1153
15391SOL    HW148805   1.554   9.310   0.189  0.0461 -0.5859  0.0138
15391SOL    HW248806   1.569   9.445   0.122 -1.2863 -0.5821 -0.3069
15392SOL     OW48807   5.012   0.697   5.497 -0.1232  0.9212  0.4057
15392SOL    HW148808   5.008   0.778   5.548 -0.2370  1.7973 -0.9355
15392SOL    HW248809   5.084   0.712   5.435 -1.4861  0.8853 -1.2549
15393SOL     OW48810   6.315   8.173   0.495  0.1573  0.4057 -0.1094
15393SOL    HW148811   6.277   8.106   0.552  0.0594  0.2882 -0.3117
15393SOL    HW248812   6.409   8.168   0.511  0.1582  0.1580 -0.1913
15394SOL     OW48813   6.072   8.760   2.096 -0.1903  0.1553  0.5172
15394SOL    HW148814   6.027   8.839   2.066  0.2137 -0.2124 -1.1505
15394SOL    HW248815   6.044   8.692   2.036  0.7970 -0.5920  0.8759
15395SOL     OW48816   9.374   2.052   2.131  0.2410 -0.2072  0.2872
15395SOL    HW148817   9.419   2.092   2.056 -0.8026  0.9155  0.2242
15395SOL    HW248818   9.286   2.036   2.100  0.4204 -1.9041  0.5741
15396SOL     OW48819   2.299   9.300   2.023  0.0825  0.2368 -0.3750
15396SOL    HW148820   2.287   9.245   2.100  0.9647  0.3458 -0.1555
15396SOL    HW248821   2.380   9.270   1.983  0.6337  1.4200 -0.1992
15397SOL     OW48822   3.211   4.863   1.859 -0.1226  0.7700 -0.5756
15397SOL    HW148823   3.169   4.932   1.808  0.3149  0.5245 -1.2780
15397SOL    HW248824   3.303   4.865   1.832  0.0144  0.3104 -0.1639
15398SOL     OW48825   8.746   4.586   3.946  0.4615 -0.1827  0.2602
15398SOL    HW148826   8.719   4.675   3.967  0.5357  0.1716 -1.0621
15398SOL    HW248827   8.674   4.550   3.895  1.3902 -0.0667 -1.2044
15399SOL     OW48828   1.079   3.466   5.539 -0.0811 -0.1450  0.3878
15399SOL    HW148829   1.031   3.424   5.468  0.1767 -0.9749  0.7005
15399SOL    HW248830   1.112   3.394   5.593  3.0945  0.2196 -0.7957
15400SOL     OW48831   5.455   9.683   5.189 -0.4073  0.3446  0.0386
15400SOL    HW148832   5.536   9.684   5.239  0.3998 -2.7824 -0.9700
15400SOL    HW248833   5.386   9.687   5.255  0.6282 -1.0769  1.2797
15401SOL     OW48834   6.400   0.087   3.819  0.2195  0.0568  0.2209
15401SOL    HW148835   6.374   0.179   3.822  1.2862  0.4320 -0.8629
15401SOL    HW248836   6.336   0.045   3.761  0.0043  0.2254  0.3373
15402SOL     OW48837   8.780   5.610   7.389 -0.2889 -0.3640 -0.3299
15402SOL    HW148838   8.743   5.679   7.445  0.7941  1.0923 -1.3296
15402SOL    HW248839   8.704   5.562   7.357 -1.1186  0.5914  0.1290
15403SOL     OW48840   0.417   2.278   0.401  0.1588 -0.8797 -0.0492
15403SOL    HW148841   0.339   2.295   0.348 -0.0822 -0.9474  0.2848
15403SOL    HW248842   0.477   2.350   0.379  0.0839 -0.9398 -0.4587
15404SOL     OW48843   5.405   0.716   8.322  0.4192  0.4385  0.2003
15404SOL    HW148844   5.313   0.697   8.305  0.9931 -0.3879 -2.3348
15404SOL    HW248845   5.411   0.721   8.417 -2.1677  0.1821  0.4407
15405SOL     OW48846   5.298   8.350  10.136  0.1572  0.0671 -0.2878
15405SOL    HW148847   5.353   8.426  10.116  0.2956 -0.0107 -0.2061
15405SOL    HW248848   5.300   8.343  10.231  0.6806 -0.4281 -0.3252
15406SOL     OW48849   1.979   5.974   5.516  0.0521 -0.0068  0.1325
15406SOL    HW148850   2.071   5.957   5.496 -0.2696 -1.5214 -0.1584
15406SOL    HW248851   1.980   6.002   5.608  0.7365 -0.6627  0.3366
15407SOL     OW48852   6.444   4.666   7.553 -0.1357 -0.0068 -0.1992
15407SOL    HW148853   6.483   4.592   7.600  0.0974  0.7608  0.8571
15407SOL    HW248854   6.418   4.727   7.623 -2.7022 -0.2267 -0.8626
15408SOL     OW48855   8.662   7.045   6.544  0.0126 -0.2324  0.1531
15408SOL    HW148856   8.635   7.058   6.453  1.2322 -0.6626 -0.2855
15408SOL    HW248857   8.580   7.044   6.593 -0.8930 -2.4979 -1.2362
15409SOL     OW48858   0.570   0.329   9.500  0.4367 -0.3119 -0.1993
15409SOL    HW148859   0.586   0.391   9.429  0.3758 -0.0579  0.0059
15409SOL    HW248860   0.485   0.290   9.480  0.1037  0.2508  0.0816
15410SOL     OW48861   5.921   8.585   7.493  0.1453  0.1144 -0.1587
15410SOL    HW148862   5.983   8.515   7.471 -0.0661 -0.0610 -0.2042
15410SOL    HW248863   5.955   8.623   7.573  0.7593  0.5577 -0.6179
15411SOL     OW48864   2.259   7.150   1.163 -0.0504 -0.5238  0.1641
15411SOL    HW148865   2.194   7.079   1.171  0.1868 -0.9658 -1.4539
15411SOL    HW248866   2.262   7.190   1.250  0.1503 -2.8095  1.2857
15412SOL     OW48867   4.347   2.325   4.463  0.5573 -0.5009  0.1853
15412SOL    HW148868   4.264   2.333   4.414 -0.4561 -2.0525  1.5426
15412SOL    HW248869   4.320   2.296   4.550  2.5978 -2.2218  0.3256
15413SOL     OW48870   9.904   0.730  10.185  0.2923  0.2787  0.1603
15413SOL    HW148871   9.823   0.758  10.227 -0.1750  0.2858 -0.7286
15413SOL    HW248872   9.934   0.808  10.138  0.1093 -0.0925 -0.5877
15414SOL     OW48873   8.543   1.302   2.313  0.4443 -0.3564  0.1071
15414SOL    HW148874   8.568   1.392   2.292  0.3066 -0.7278 -1.8145
15414SOL    HW248875   8.614   1.270   2.369  0.2643  1.0655  1.1985
15415SOL     OW48876   7.288   5.365   1.280  0.2572 -0.9896  0.3796
15415SOL    HW148877   7.349   5.433   1.305 -0.5563  0.3352 -1.0468
15415SOL    HW248878   7.277   5.311   1.359  1.4770  0.0825  1.3122
15416SOL     OW48879   3.097   5.995   4.046  0.2845 -0.1202 -0.8588
15416SOL    HW148880   3.134   6.041   3.972 -0.8345 -0.0747 -1.4120
15416SOL    HW248881   3.026   5.942   4.009  1.1284 -1.8240 -0.1598
15417SOL     OW48882   4.617   6.033   3.828 -0.4429  0.1277 -0.1624
15417SOL    HW148883   4.651   6.112   3.784  0.2530 -0.0804 -0.0098
15417SOL    HW248884   4.598   5.973   3.756 -3.7314  1.4138 -0.5477
15418SOL     OW48885   0.476   5.408   9.640 -0.4587 -0.2557 -0.0652
15418SOL    HW148886   0.479   5.397   9.545 -1.5404  0.6556 -0.2270
15418SOL    HW248887   0.405   5.352   9.669 -1.6132  1.1400 -0.0907
15419SOL     OW48888   3.519   3.258   0.602 -0.3463  0.1793 -0.5796
15419SOL    HW148889   3.496   3.211   0.682 -1.1427  1.9981  0.3334
15419SOL    HW248890   3.579   3.200   0.556  0.9604 -0.5156  1.8313
15420SOL     OW48891   1.540   0.771   8.428  0.3956 -0.1759 -0.1499
15420SOL    HW148892   1.483   0.847   8.438 -0.4386 -0.8504  0.3130
15420SOL    HW248893   1.497   0.717   8.362  0.2824 -0.8790  0.4856
15421SOL     OW48894   0.857   1.713   2.390  0.0047  0.1985  0.0137
15421SOL    HW148895   0.836   1.777   2.322 -1.0826 -1.9373 -1.7974
15421SOL    HW248896   0.864   1.630   2.344 -0.3837 -1.3112  2.4663
15422SOL     OW48897   8.788   0.662   1.413  0.3803 -0.3671 -0.7735
15422SOL    HW148898   8.883   0.672   1.412  0.3236  0.2021 -0.7358
15422SOL    HW248899   8.755   0.750   1.429 -0.0427 -1.1150  3.4951
15423SOL     OW48900   4.130   5.637   1.065  0.3146 -0.1250  0.0019
15423SOL    HW148901   4.154   5.627   0.973  1.2456  1.2123  0.0724
15423SOL    HW248902   4.162   5.557   1.107  0.6706 -0.3490 -0.6912
15424SOL     OW48903   9.847   1.332   6.763 -0.3115 -0.1128 -0.1294
15424SOL    HW148904   9.752   1.330   6.748 -0.0470  0.4922 -2.1849
15424SOL    HW248905   9.862   1.416   6.805 -0.6337  0.0426 -0.3171
15425SOL     OW48906   9.050   2.764   9.612  0.1630  0.1330  0.4437
15425SOL    HW148907   8.979   2.812   9.653  0.5586  0.4074  0.8108
15425SOL    HW248908   9.062   2.686   9.666 -0.2822 -0.2437  0.0152
15426SOL     OW48909   2.933   1.691   8.728 -0.4481 -0.3398  0.0521
15426SOL    HW148910   2.929   1.649   8.642 -0.6547  1.0354 -0.6446
15426SOL    HW248911   2.867   1.761   8.723  0.3419  0.4981  0.9138
15427SOL     OW48912   5.036  10.284   8.154 -0.3150  0.0318  0.0971
15427SOL    HW148913   4.950  10.325   8.142 -0.9002 -1.3789 -0.7610
15427SOL    HW248914   5.034  10.251   8.244  0.8600  3.3357  1.4629
15428SOL     OW48915   8.801   1.212   4.572 -0.3464  0.2131  0.2433
15428SOL    HW148916   8.712   1.209   4.537 -0.2364  0.2123 -0.0416
15428SOL    HW248917   8.849   1.268   4.510 -0.0020 -0.2841  0.0590
15429SOL     OW48918   6.737   5.282   4.583 -0.0748  0.2378 -0.1509
15429SOL    HW148919   6.675   5.308   4.651 -0.2764  0.8595 -0.5627
15429SOL    HW248920   6.814   5.338   4.599 -0.2897  0.6977 -0.6904
15430SOL     OW48921   2.491   1.360   2.332 -0.0248  0.5350 -0.2131
15430SOL    HW148922   2.498   1.265   2.331  1.5935  0.6177 -0.2513
15430SOL    HW248923   2.580   1.390   2.310 -0.5115  2.0468 -0.2107
15431SOL     OW48924   4.335   0.227   8.890 -0.3347  0.4607  0.1852
15431SOL    HW148925   4.361   0.140   8.860 -3.0409 -0.0967 -0.7689
15431SOL    HW248926   4.407   0.284   8.861  2.1944 -1.5311  2.0424
15432SOL     OW48927   9.925   0.186   8.129  0.3107  0.6507 -0.4214
15432SOL    HW148928   9.872   0.205   8.206 -1.9994  0.7253 -1.9320
15432SOL    HW248929  10.002   0.141   8.163 -0.2120  1.4449  1.9796
15433SOL     OW48930   9.686   9.155   2.541  0.3168  0.1085  0.4946
15433SOL    HW148931   9.647   9.233   2.582 -0.3185  0.2441 -0.3328
15433SOL    HW248932   9.682   9.174   2.447 -0.1424 -1.0730  0.2728
15434SOL     OW48933   6.396   4.437   5.272 -0.7757 -0.5044 -0.3921
15434SOL    HW148934   6.305   4.409   5.274 -0.6144 -1.0577  2.1191
15434SOL    HW248935   6.446   4.359   5.297  0.1770  0.4081  0.6671
15435SOL     OW48936   0.387   1.947  10.347 -0.1476 -0.2274 -0.0680
15435SOL    HW148937   0.392   1.851  10.350 -1.7811 -0.4006 -1.4494
15435SOL    HW248938   0.318   1.969  10.408  1.0781  0.2143  1.2126
15436SOL     OW48939   6.949   3.559   1.952  0.2262  0.0408 -0.1219
15436SOL    HW148940   7.026   3.600   1.913  0.8579 -0.3092  0.7137
15436SOL    HW248941   6.980   3.475   1.984 -0.6052 -0.2819 -0.1323
15437SOL     OW48942   8.582   5.271   4.758 -0.0801 -0.2610 -0.0923
15437SOL    HW148943   8.552   5.218   4.683  0.4880 -0.5578 -0.1177
15437SOL    HW248944   8.607   5.355   4.719 -2.6967  0.7420  0.1751
15438SOL     OW48945   3.429   6.318   3.269 -0.0568 -1.0505 -0.6919
15438SOL    HW148946   3.410   6.354   3.182 -1.0152  2.9832  0.9379
15438SOL    HW248947   3.513   6.358   3.292 -0.7231 -0.5206  0.9101
15439SOL     OW48948   2.518   5.287   9.467  0.2981 -0.5103  0.0406
15439SOL    HW148949   2.590   5.259   9.524 -0.9471 -2.7987  0.6439
15439SOL    HW248950   2.489   5.370   9.503  0.3606 -1.3018  2.0473
15440SOL     OW48951   2.084   9.332   8.784  0.2240  0.2691 -0.7705
15440SOL    HW148952   2.052   9.387   8.712  0.7991  2.0939  0.3153
15440SOL    HW248953   2.047   9.372   8.863  2.6094  0.6093  0.2622
15441SOL     OW48954   3.654   0.207   6.991  0.0384 -0.6004  1.1236
15441SOL    HW148955   3.705   0.138   7.033  0.7908  0.5325  2.1350
15441SOL    HW248956   3.655   0.279   7.054 -1.0426  0.2016  0.2535
15442SOL     OW48957   1.362   9.316   3.522  0.3648  0.0401  0.4397
15442SOL    HW148958   1.434   9.266   3.560  0.6008 -0.8992 -1.1533
15442SOL    HW248959   1.293   9.252   3.506  1.5627 -0.4906 -3.9165
15443SOL     OW48960   3.939   5.488   5.676  0.4975  0.3388  0.3586
15443SOL    HW148961   3.942   5.395   5.699 -0.6016 -0.2161 -1.5487
15443SOL    HW248962   4.025   5.522   5.701  1.0803 -1.2862  0.6656
15444SOL     OW48963   5.107   5.832   9.665  0.0368  0.3557  0.8995
15444SOL    HW148964   5.193   5.867   9.644  0.1831  0.0334  0.9662
15444SOL    HW248965   5.063   5.824   9.580 -0.0080  0.7251  0.8866
15445SOL     OW48966   1.453   8.130   4.630  0.7724  0.0601 -0.1282
15445SOL    HW148967   1.521   8.088   4.683  1.5307  0.2540 -0.9160
15445SOL    HW248968   1.501   8.183   4.567  0.0095 -1.5284 -2.1843
15446SOL     OW48969   5.481   8.549   7.123  0.4638  0.5784 -0.0572
15446SOL    HW148970   5.563   8.597   7.109 -1.0984  3.5668  0.1524
15446SOL    HW248971   5.462   8.508   7.039  0.4251  2.8759 -1.2576
15447SOL     OW48972   4.515   2.094   0.434  0.1746  0.2740  0.0645
15447SOL    HW148973   4.424   2.125   0.435 -0.8044 -2.3407 -0.2423
15447SOL    HW248974   4.566   2.167   0.469 -1.9647  2.0049 -0.2347
15448SOL     OW48975   0.527   5.806   8.112  0.3432 -0.1869 -0.0166
15448SOL    HW148976   0.471   5.809   8.034 -1.8261 -0.7679  1.4194
15448SOL    HW248977   0.616   5.804   8.078 -0.5289 -0.5657 -2.4752
15449SOL     OW48978   6.668  10.124   5.272 -0.4202  0.0279  0.3703
15449SOL    HW148979   6.750  10.103   5.316  0.3872  0.2154 -0.9637
15449SOL    HW248980   6.638  10.204   5.314  0.0443 -0.0815  0.9267
15450SOL     OW48981   3.646   5.398   0.725 -0.3206 -0.7085 -0.1108
15450SOL    HW148982   3.627   5.322   0.781 -0.5182 -0.9818 -0.5450
15450SOL    HW248983   3.631   5.366   0.636 -1.8540  0.2521 -0.2276
15451SOL     OW48984   7.711   0.002   5.807  0.4374  0.0236 -0.1528
15451SOL    HW148985   7.694   0.096   5.812 -2.0642 -0.2505 -1.9750
15451SOL    HW248986   7.706  -0.020   5.714  0.4538 -1.9885  0.2590
15452SOL     OW48987   5.775   9.988   4.432 -0.1018  0.1895  0.5223
15452SOL    HW148988   5.780  10.056   4.365  0.8750  2.2986  2.5653
15452SOL    HW248989   5.833   9.919   4.401 -0.4197  0.6522 -1.2144
15453SOL     OW48990   8.879   8.349   2.650 -0.3108  0.2117  0.3024
15453SOL    HW148991   8.794   8.372   2.688 -0.8053 -1.1541  0.1119
15453SOL    HW248992   8.864   8.356   2.555 -0.2927 -0.2454  0.2622
15454SOL     OW48993   7.548  10.047   7.113 -0.2970  0.7734 -0.0576
15454SOL    HW148994   7.591  10.030   7.029  0.6729  0.5953  0.4681
15454SOL    HW248995   7.619  10.069   7.173 -0.6686 -1.5033  1.3399
15455SOL     OW48996   3.427   2.621   0.557 -0.3260 -0.0574  0.1870
15455SOL    HW148997   3.422   2.711   0.523 -1.5884  0.1454  0.8700
15455SOL    HW248998   3.448   2.631   0.650 -2.8114 -0.3267  0.8362
15456SOL     OW48999   8.641   2.676   9.077  0.2884  0.3330  0.4358
15456SOL    HW149000   8.563   2.705   9.123 -0.6387  0.4566 -1.1590
15456SOL    HW249001   8.670   2.753   9.028 -0.6699 -0.6514 -1.7673
15457SOL     OW49002   9.493   1.953   0.376  0.1734  0.4264 -0.4336
15457SOL    HW149003   9.523   2.043   0.386 -0.7341  0.6466  0.4010
15457SOL    HW249004   9.552   1.902   0.432 -0.5723  0.7824  0.7190
15458SOL     OW49005   5.817   0.051   8.750  1.1922 -0.7287 -0.0839
15458SOL    HW149006   5.776   0.012   8.826 -0.3612 -0.2739 -0.6402
15458SOL    HW249007   5.753   0.040   8.680  1.1739  1.6915 -0.5506
15459SOL     OW49008   1.308   5.334   3.759 -0.0305 -0.3603  0.4393
15459SOL    HW149009   1.326   5.243   3.783 -0.0232 -0.3157  0.6055
15459SOL    HW249010   1.334   5.340   3.667  1.3015 -0.1654  0.8053
15460SOL     OW49011   6.333   6.646   1.717 -0.0510  0.0379  0.2351
15460SOL    HW149012   6.362   6.610   1.633  0.0521 -0.0849  0.3235
15460SOL    HW249013   6.414   6.658   1.768 -0.0351  0.8018  0.0485
15461SOL     OW49014   8.371   5.394   5.428 -0.1865 -0.3716  0.1938
15461SOL    HW149015   8.436   5.334   5.463  1.5946  0.3134 -1.7191
15461SOL    HW249016   8.324   5.342   5.363 -0.2425 -0.3387  0.2075
15462SOL     OW49017   1.725   3.490  10.123 -0.7411 -0.2774  0.1645
15462SOL    HW149018   1.642   3.522  10.086 -0.2128  0.9844  0.0204
15462SOL    HW249019   1.739   3.544  10.201 -0.4957 -1.0931  0.6911
15463SOL     OW49020   8.927   6.844   3.197 -0.2247  0.2145 -0.0068
15463SOL    HW149021   8.843   6.889   3.193 -0.2104  0.2846  0.4542
15463SOL    HW249022   8.929   6.803   3.283  0.1125  0.0101 -0.1071
15464SOL     OW49023   4.331   0.600   3.151  0.2299  0.0061  0.0263
15464SOL    HW149024   4.366   0.689   3.149  0.6601 -0.1691 -0.6752
15464SOL    HW249025   4.408   0.543   3.149 -0.0448 -0.3870 -2.2264
15465SOL     OW49026   3.002   8.643   9.714  0.9616  0.8318 -0.2957
15465SOL    HW149027   3.095   8.650   9.693  0.7432  1.5872 -1.0778
15465SOL    HW249028   2.971   8.567   9.665  1.5866 -0.7663  1.6436
15466SOL     OW49029   4.655   9.769   0.092  0.0490  0.1285 -0.3357
15466SOL    HW149030   4.591   9.738   0.028  0.5702  0.3434 -0.9658
15466SOL    HW249031   4.682   9.854   0.060 -0.3148  0.6346  0.6351
15467SOL     OW49032   2.268   7.522   9.975 -0.2904 -0.4489  0.5865
15467SOL    HW149033   2.249   7.595   9.916 -0.5999 -1.6429 -0.8665
15467SOL    HW249034   2.350   7.546  10.018  0.2027  0.2618 -0.7107
15468SOL     OW49035   2.963   4.905   3.087 -0.0973  0.0568  0.1566
15468SOL    HW149036   3.041   4.915   3.032 -1.5681 -0.1607 -2.0418
15468SOL    HW249037   2.992   4.847   3.158  1.8531  0.3480 -0.3255
15469SOL     OW49038   0.504   4.125  10.331  0.0576 -0.2539 -0.1383
15469SOL    HW149039   0.586   4.101  10.375  0.9213  2.2252 -0.2794
15469SOL    HW249040   0.439   4.129  10.402  0.1315 -1.6427  0.0543
15470SOL     OW49041   4.290   0.103   6.800  0.0548 -0.1428 -0.0053
15470SOL    HW149042   4.305   0.009   6.790  0.0317 -0.1564  0.0845
15470SOL    HW249043   4.316   0.122   6.890  1.3190  0.1896 -0.4304
15471SOL     OW49044   2.869   1.993   7.837 -0.3561  0.0806  0.5349
15471SOL    HW149045   2.941   1.978   7.776 -1.1371  1.5934 -0.8418
15471SOL    HW249046   2.865   1.914   7.890  0.6717 -1.1046 -1.0798
15472SOL     OW49047   9.313   1.809   5.144  0.4689  0.0548  0.0510
15472SOL    HW149048   9.242   1.748   5.122  2.1839 -1.6002 -1.2539
15472SOL    HW249049   9.392   1.765   5.112  1.9688  2.3170  0.4805
15473SOL     OW49050   7.967   0.601   9.460 -0.2665  0.2230  0.2636
15473SOL    HW149051   8.007   0.536   9.517 -1.1211  0.3827  1.0665
15473SOL    HW249052   8.038   0.630   9.402  0.5675 -0.0698  1.1241
15474SOL     OW49053   6.682   9.165   8.918 -0.0003  0.2743 -0.3330
15474SOL    HW149054   6.610   9.225   8.937 -0.6170 -0.4851 -0.2274
15474SOL    HW249055   6.656   9.119   8.838 -0.7688 -1.6728  0.9380
15475SOL     OW49056   2.443   0.842   3.937  0.0806  0.3422 -0.0253
15475SOL    HW149057   2.450   0.780   3.865 -0.4366 -0.7013  0.7965
15475SOL    HW249058   2.467   0.926   3.899 -0.2923 -0.1685 -1.4293
15476SOL     OW49059   2.019   0.105   3.168 -0.0876 -0.2804 -0.4758
15476SOL    HW149060   2.058   0.157   3.238 -1.4974 -0.3486  0.4080
15476SOL    HW249061   2.011   0.017   3.204 -0.8782 -0.3050 -0.6819
15477SOL     OW49062   1.777   5.199   0.538 -0.3123  0.6389  0.2290
15477SOL    HW149063   1.793   5.104   0.542  0.8572  0.8142  0.1577
15477SOL    HW249064   1.864   5.237   0.523 -0.8952  1.6642 -0.7125
15478SOL     OW49065  10.057   3.200   9.002  0.0604  0.3893 -0.0209
15478SOL    HW149066  10.108   3.219   9.080 -0.5428  0.2871  0.4090
15478SOL    HW249067  10.003   3.124   9.026  1.1688 -0.7967 -1.1315
15479SOL     OW49068  10.211   7.710   3.279  0.0524 -0.9171  0.3075
15479SOL    HW149069  10.172   7.752   3.356  0.1026  1.4536 -0.8678
15479SOL    HW249070  10.168   7.752   3.204  1.1986 -1.9286 -0.9746
15480SOL     OW49071   1.047   8.183   7.991  0.0607 -0.1627  0.4331
15480SOL    HW149072   0.980   8.205   8.056 -0.4415  0.8507 -0.3888
15480SOL    HW249073   1.123   8.236   8.015 -0.0031 -0.0594  0.4074
15481SOL     OW49074   4.573   2.261   1.195 -0.0937 -0.1107  0.2649
15481SOL    HW149075   4.631   2.246   1.269 -0.8748  0.8637  1.1216
15481SOL    HW249076   4.620   2.227   1.119  1.5983  0.6833  0.9130
15482SOL     OW49077   4.809   0.097   3.608  0.0236  0.0501 -0.1980
15482SOL    HW149078   4.874   0.152   3.564 -0.7132 -0.0170 -1.4222
15482SOL    HW249079   4.742   0.159   3.638  0.1915  0.0264  0.2218
15483SOL     OW49080   2.063   6.025   2.956  0.1238 -0.4208  0.2906
15483SOL    HW149081   2.069   6.076   3.037 -0.6616 -0.9501  0.6949
15483SOL    HW249082   1.970   6.020   2.937  0.2436 -1.0402 -0.1798
15484SOL     OW49083   4.756   8.054  10.066  0.0116  0.1777 -0.6710
15484SOL    HW149084   4.716   8.046   9.980 -0.5603 -2.3873 -0.2295
15484SOL    HW249085   4.697   8.008  10.125 -0.0454  2.5844  1.3136
15485SOL     OW49086   5.806   4.699   7.819 -0.3204 -0.1402  0.3941
15485SOL    HW149087   5.729   4.709   7.876  0.3323 -1.0666  1.4916
15485SOL    HW249088   5.858   4.777   7.836 -1.4775  1.0274 -1.1565
15486SOL     OW49089   2.742  10.218   6.428  0.4696 -0.4310 -0.3542
15486SOL    HW149090   2.762  10.169   6.348  2.1220 -1.0363  0.3875
15486SOL    HW249091   2.692  10.156   6.482 -1.7669  0.3866 -1.3524
15487SOL     OW49092   8.205   7.577   6.656  0.2339 -0.5391 -0.1321
15487SOL    HW149093   8.123   7.617   6.627  0.5148  0.4912  0.4407
15487SOL    HW249094   8.178   7.493   6.692 -0.4569 -0.6081 -0.7678
15488SOL     OW49095   6.546   9.590   0.757  0.2361 -0.1608 -0.0691
15488SOL    HW149096   6.532   9.677   0.719 -0.6613 -0.2833 -0.0272
15488SOL    HW249097   6.585   9.608   0.842  0.6892  0.1746 -0.3404
15489SOL     OW49098   0.161   5.715   2.548  0.2080 -0.0850  0.3995
15489SOL    HW149099   0.070   5.685   2.554 -0.0680  0.9557  3.2942
15489SOL    HW249100   0.158   5.805   2.582  2.2125  0.2646 -0.2269
15490SOL     OW49101   6.185   5.593   1.005 -0.4234 -0.0340 -0.2016
15490SOL    HW149102   6.121   5.601   1.075  0.1676 -0.9969  0.4738
15490SOL    HW249103   6.230   5.510   1.023 -1.7915 -1.5283 -3.0023
15491SOL     OW49104   6.027   8.712   6.681  0.2016 -0.2931 -0.0215
15491SOL    HW149105   6.044   8.761   6.760  0.0131  0.8723 -0.6859
15491SOL    HW249106   5.959   8.762   6.635  0.8585 -0.5085 -1.2867
15492SOL     OW49107   5.762   7.671   2.603 -0.6095  0.1483 -0.5166
15492SOL    HW149108   5.842   7.670   2.657 -0.8291  0.0846 -0.1936
15492SOL    HW249109   5.698   7.622   2.654 -0.6665 -0.3696 -1.0746
15493SOL     OW49110   3.918   2.341   6.040  0.1465 -0.2178 -0.0195
15493SOL    HW149111   3.857   2.397   5.992 -0.9840 -0.7194  0.7760
15493SOL    HW249112   3.989   2.400   6.065 -0.9031  0.8335  0.6113
15494SOL     OW49113   2.538   2.574   0.893 -0.1514  0.2048 -0.2146
15494SOL    HW149114   2.524   2.664   0.921  0.2672  0.1551  0.1773
15494SOL    HW249115   2.510   2.572   0.801  0.8254  0.9952 -0.5514
15495SOL     OW49116   3.545   2.144   1.734  0.0944 -0.0507  0.4454
15495SOL    HW149117   3.517   2.117   1.647  0.0880 -1.2013  0.7835
15495SOL    HW249118   3.464   2.155   1.783  0.0798  1.0323  0.1938
15496SOL     OW49119   8.563   7.962   9.938 -0.1377 -0.0838  0.3704
15496SOL    HW149120   8.551   7.967   9.843 -0.9405  1.2941  0.5268
15496SOL    HW249121   8.475   7.968   9.974  0.2548  0.6020  1.2362
15497SOL     OW49122   9.842   1.105   2.196 -1.1097 -0.5590 -0.0202
15497SOL    HW149123   9.846   1.172   2.128 -1.7997  0.3357  0.7796
15497SOL    HW249124   9.864   1.152   2.277 -1.8315 -1.2391  0.5925
15498SOL     OW49125   6.829   5.066   6.951  0.4171  0.4499 -1.1292
15498SOL    HW149126   6.908   5.099   6.907 -0.5268 -0.3705 -3.6218
15498SOL    HW249127   6.834   5.103   7.039  2.7544  1.7279 -1.6971
15499SOL     OW49128   8.112   7.502   8.537 -0.5030 -0.0050 -0.1674
15499SOL    HW149129   8.062   7.449   8.600  0.0497  0.7926  0.9786
15499SOL    HW249130   8.174   7.550   8.591  0.5618  0.0811 -1.4315
15500SOL     OW49131   3.453   6.152  10.264  0.6346 -0.0951 -0.2239
15500SOL    HW149132   3.548   6.167  10.264  0.7451 -0.7189 -1.0085
15500SOL    HW249133   3.444   6.058  10.250 -0.0962 -0.1509  0.5882
15501SOL     OW49134   1.225   7.581   1.227 -0.0159 -0.1723  0.2682
15501SOL    HW149135   1.269   7.593   1.311 -0.4953  1.1331  0.3578
15501SOL    HW249136   1.140   7.542   1.249  0.8330 -2.2544  0.1333
15502SOL     OW49137   1.018   7.654   5.379 -0.4841  0.3790  0.3557
15502SOL    HW149138   0.939   7.627   5.427 -1.0066  0.6048 -0.3631
15502SOL    HW249139   1.085   7.662   5.447 -1.4346  1.6071  1.1880
15503SOL     OW49140   5.965   5.834   5.436  0.2589  0.2409  0.0663
15503SOL    HW149141   5.877   5.867   5.453 -0.5863 -1.6656 -0.3822
15503SOL    HW249142   5.975   5.759   5.495  0.7069 -0.9279 -1.4247
15504SOL     OW49143   7.623   6.814   1.276 -0.0231 -0.4802  0.2532
15504SOL    HW149144   7.528   6.805   1.269 -0.2363  0.7556  1.2313
15504SOL    HW249145   7.649   6.746   1.337 -0.7244  1.0736  2.3884
15505SOL     OW49146   6.654   1.467   5.833 -0.1819 -0.6213  0.1020
15505SOL    HW149147   6.713   1.525   5.881  0.5248 -1.0608 -0.2130
15505SOL    HW249148   6.573   1.466   5.884 -0.6846  1.6315 -0.5463
15506SOL     OW49149   5.851   0.057   1.690  0.4264  0.2105  0.1970
15506SOL    HW149150   5.855   0.009   1.773 -1.5098 -0.4211 -0.0281
15506SOL    HW249151   5.913   0.130   1.701  0.5437 -0.1248  2.0090
15507SOL     OW49152   7.158   0.015   5.025 -0.2332 -0.5371 -0.1834
15507SOL    HW149153   7.081  -0.008   5.077 -0.1212 -1.0212 -0.2320
15507SOL    HW249154   7.129   0.091   4.973 -0.9959 -1.3234 -0.9430
15508SOL     OW49155   6.144   5.764   6.948  0.0163 -0.3217 -0.7043
15508SOL    HW149156   6.235   5.742   6.927  0.0600 -1.5847  0.6090
15508SOL    HW249157   6.123   5.707   7.022 -0.9861  1.8521  0.7903
15509SOL     OW49158  10.016   5.711   1.714 -0.2156 -0.2359 -0.1066
15509SOL    HW149159   9.945   5.665   1.670  0.6927 -1.4663 -0.3346
15509SOL    HW249160  10.094   5.658   1.695  0.9885  1.6884 -0.8706
15510SOL     OW49161   1.436   5.012   2.439 -0.1925 -0.5813  0.0743
15510SOL    HW149162   1.439   4.971   2.353  0.8588  0.3597 -0.3687
15510SOL    HW249163   1.350   5.053   2.444 -0.1302 -0.3492 -0.6797
15511SOL     OW49164   2.916   1.365   6.259  0.2380 -0.7544 -0.4584
15511SOL    HW149165   2.824   1.346   6.281  0.8817 -3.4079  0.4111
15511SOL    HW249166   2.926   1.459   6.275 -1.8147 -0.7735  1.5147
15512SOL     OW49167   7.818   5.010   2.624 -0.0802 -0.0163 -0.3237
15512SOL    HW149168   7.765   5.077   2.667 -1.8064 -0.4604 -1.6804
15512SOL    HW249169   7.757   4.939   2.604  1.3312 -1.2060 -0.5922
15513SOL     OW49170   1.029  10.145   9.283  0.1656  0.0523 -0.3337
15513SOL    HW149171   1.122  10.135   9.264  0.4075  1.5829 -0.0211
15513SOL    HW249172   0.997  10.055   9.291  1.5243 -0.5020 -0.8359
15514SOL     OW49173   0.859   8.121   2.896  0.8774  0.9633  0.0734
15514SOL    HW149174   0.855   8.205   2.942  1.5324  0.6764  0.6692
15514SOL    HW249175   0.805   8.062   2.950 -0.1038  1.1532 -0.6850
15515SOL     OW49176   3.344   7.143   0.826 -0.0522  0.0129  0.5151
15515SOL    HW149177   3.360   7.090   0.748 -1.8965 -1.4363  1.0397
15515SOL    HW249178   3.430   7.157   0.865  0.6882 -0.8903 -0.7442
15516SOL     OW49179   1.946   1.467   7.075 -0.2621  0.0111  0.1564
15516SOL    HW149180   1.966   1.480   7.168 -1.0871 -0.3653  0.3972
15516SOL    HW249181   1.970   1.550   7.034 -0.3582  0.3602  0.7880
15517SOL     OW49182  10.169   0.755   1.492 -0.1826  0.3721  0.1782
15517SOL    HW149183  10.117   0.677   1.471  1.4449 -0.7562  0.0979
15517SOL    HW249184  10.260   0.725   1.487  0.4753  2.0537  1.1118
15518SOL     OW49185   4.338   9.557   3.183  0.5450 -0.2114  0.1071
15518SOL    HW149186   4.340   9.461   3.185 -0.4612 -0.2822 -1.1062
15518SOL    HW249187   4.427   9.583   3.204  0.5677 -1.3744  1.6032
15519SOL     OW49188   8.450   3.377   1.630  0.1243  0.2697  0.0802
15519SOL    HW149189   8.395   3.452   1.608 -0.7149 -0.5430 -0.6758
15519SOL    HW249190   8.540   3.408   1.619 -0.1745  1.5105  0.9679
15520SOL     OW49191   5.909   6.255   9.857 -0.0012 -0.0153  0.3041
15520SOL    HW149192   5.845   6.326   9.858  0.0956  0.0729  0.2694
15520SOL    HW249193   5.993   6.298   9.869  0.3667  0.2188 -2.3567
15521SOL     OW49194   3.258   2.873   8.680  0.7625 -0.1265  0.2168
15521SOL    HW149195   3.174   2.916   8.664  1.0894  0.1591 -0.7880
15521SOL    HW249196   3.247   2.786   8.642  1.0008 -0.0072 -0.1258
15522SOL     OW49197   6.111   2.925   5.726  0.2485 -0.1533  0.3778
15522SOL    HW149198   6.054   3.002   5.726 -1.2571 -1.2297  0.5372
15522SOL    HW249199   6.051   2.851   5.729  1.6660 -1.3468  0.2098
15523SOL     OW49200   9.536   6.943   6.881  0.4352  0.1474  0.2226
15523SOL    HW149201   9.508   6.969   6.968 -2.3573  0.2790 -0.6103
15523SOL    HW249202   9.455   6.939   6.830  2.0215  0.7404 -2.5544
15524SOL     OW49203   8.774   9.532   5.574 -0.3431  0.0151 -0.0024
15524SOL    HW149204   8.818   9.460   5.530  2.0569  0.3918  1.5852
15524SOL    HW249205   8.778   9.510   5.667 -0.2719  1.7841  0.4587
15525SOL     OW49206   5.881   0.227   9.884 -0.8016 -0.2532 -0.1637
15525SOL    HW149207   5.878   0.146   9.832 -2.6292  0.2952 -1.0076
15525SOL    HW249208   5.826   0.209   9.960 -0.6429 -0.0334  0.0042
15526SOL     OW49209   6.247   0.476   6.099  0.3499  0.4575  0.3391
15526SOL    HW149210   6.236   0.480   6.004  3.0178 -0.2576 -0.0788
15526SOL    HW249211   6.250   0.567   6.126 -0.6223  0.6696 -0.2252
15527SOL     OW49212   5.561   2.359   5.851  0.4725  0.2557  0.8329
15527SOL    HW149213   5.561   2.364   5.755  2.1983  2.1237  0.8677
15527SOL    HW249214   5.506   2.432   5.879  1.4892  0.8654  1.2672
15528SOL     OW49215   0.017   6.043   5.311 -0.3934  0.6234  0.1466
15528SOL    HW149216   0.019   5.952   5.280  1.4883  1.0973 -1.3498
15528SOL    HW249217   0.059   6.039   5.397  1.4249  0.2673 -0.6993
15529SOL     OW49218   9.631   9.314   5.870  0.9995  0.2469  0.1161
15529SOL    HW149219   9.551   9.262   5.864  1.0070  0.2957 -0.5284
15529SOL    HW249220   9.613   9.381   5.936  1.1979 -0.9308  1.4150
15530SOL     OW49221   1.164   2.828   0.316 -0.5000 -0.3088 -0.0196
15530SOL    HW149222   1.254   2.848   0.290 -0.0474 -1.5992  0.4937
15530SOL    HW249223   1.122   2.800   0.235 -0.2785 -0.2525 -0.1566
15531SOL     OW49224   6.419   1.937   6.019  0.2026 -0.2334  0.3597
15531SOL    HW149225   6.453   1.902   6.102  0.9020  0.2416  0.2861
15531SOL    HW249226   6.467   2.019   6.007  0.9809 -0.8673 -1.1047
15532SOL     OW49227   1.170   0.140   8.434 -0.0679  0.6643 -0.7153
15532SOL    HW149228   1.113   0.069   8.406 -0.6243  0.2178  1.3362
15532SOL    HW249229   1.130   0.172   8.515  1.4901  1.7014 -0.2988
15533SOL     OW49230   3.965   4.366   8.254  0.6689  0.0575  0.1215
15533SOL    HW149231   4.009   4.281   8.253  1.0380  0.2378  0.6798
15533SOL    HW249232   3.999   4.410   8.331 -1.7456 -0.4453  1.5975
15534SOL     OW49233   7.446   0.274   5.933  0.0225 -0.4550  0.4491
15534SOL    HW149234   7.397   0.192   5.935  0.8132 -0.9298  1.0143
15534SOL    HW249235   7.511   0.264   6.003 -0.3881  0.9754  1.0607
15535SOL     OW49236   8.195   7.660   4.073  0.2006 -0.3093  0.0641
15535SOL    HW149237   8.185   7.744   4.117  0.4391 -0.1503 -0.1823
15535SOL    HW249238   8.213   7.597   4.143  0.6525 -0.0471  0.1849
15536SOL     OW49239   8.758   3.014   2.805 -0.1993 -0.3710 -0.1121
15536SOL    HW149240   8.699   2.942   2.783  0.3662 -0.9677  0.3060
15536SOL    HW249241   8.733   3.085   2.746 -0.3295 -1.1232 -0.9652
15537SOL     OW49242   2.621   1.831   5.381 -0.9265 -0.2758 -0.3219
15537SOL    HW149243   2.526   1.830   5.374 -1.0072 -1.3125  0.6030
15537SOL    HW249244   2.651   1.867   5.298 -2.1450  0.8040 -0.3122
15538SOL     OW49245   7.511   9.378   2.774  0.1582 -0.0348  0.0028
15538SOL    HW149246   7.596   9.407   2.807  0.7526 -0.6648 -0.9416
15538SOL    HW249247   7.520   9.380   2.679 -1.0193  0.2667 -0.1199
15539SOL     OW49248  10.346   7.900   6.865  0.0975 -0.3805  0.0470
15539SOL    HW149249  10.252   7.901   6.848  0.1702 -0.1808 -0.3395
15539SOL    HW249250  10.376   7.815   6.831  0.1704 -0.1626 -0.4391
15540SOL     OW49251   3.976   9.342   0.303 -0.2456  0.0230  0.3423
15540SOL    HW149252   3.994   9.249   0.321 -0.1838  0.1035  0.6993
15540SOL    HW249253   4.034   9.389   0.363 -0.9977  0.2919  0.8656
15541SOL     OW49254   2.358   3.455   5.461 -0.5031  0.2894 -0.4346
15541SOL    HW149255   2.272   3.441   5.501 -1.0313 -0.6596 -1.8310
15541SOL    HW249256   2.343   3.444   5.367  1.3762 -1.1233 -0.6271
15542SOL     OW49257   3.052   7.133   1.048 -0.0740 -0.0344  0.4312
15542SOL    HW149258   3.019   7.097   0.965  1.4926  1.2820 -0.8237
15542SOL    HW249259   3.067   7.226   1.030  1.7305 -0.0194  1.7108
15543SOL     OW49260   4.807   7.201   5.591  0.3192 -0.0302 -0.6840
15543SOL    HW149261   4.868   7.226   5.660  0.1416 -0.1114 -0.4964
15543SOL    HW249262   4.753   7.132   5.630  0.1223  0.0273 -0.8536
15544SOL     OW49263   0.381   7.326   5.637  0.0027  0.4822  0.2540
15544SOL    HW149264   0.364   7.282   5.553  0.2888 -0.5739  0.7305
15544SOL    HW249265   0.476   7.330   5.643 -0.0216  1.0866  0.2643
15545SOL     OW49266   2.049   0.293   2.127 -0.3928  0.0786 -0.4289
15545SOL    HW149267   2.070   0.205   2.158 -1.1095  0.2595  0.6365
15545SOL    HW249268   1.959   0.286   2.094 -1.4930  0.9413  2.1322
15546SOL     OW49269   2.509   6.968   2.145 -0.0928 -0.1814  0.1450
15546SOL    HW149270   2.580   6.907   2.126 -0.6747 -0.3668 -1.5724
15546SOL    HW249271   2.491   6.955   2.238  2.1628 -0.0585  0.6591
15547SOL     OW49272   0.804   1.598   7.296 -0.4327 -0.0894 -0.4723
15547SOL    HW149273   0.856   1.609   7.376 -2.9788  1.4879  1.1243
15547SOL    HW249274   0.864   1.621   7.225  2.0836 -2.0499  0.8381
15548SOL     OW49275   7.298   2.715   6.551  0.6645 -0.4685 -0.7123
15548SOL    HW149276   7.272   2.710   6.459  0.9299 -0.4460 -0.7916
15548SOL    HW249277   7.362   2.645   6.562  1.1970 -0.0032 -0.7425
15549SOL     OW49278   8.853   9.730   8.433  0.1288  0.2482  0.4435
15549SOL    HW149279   8.777   9.778   8.465  0.5971  0.1423  1.7961
15549SOL    HW249280   8.824   9.639   8.428 -0.7905  0.6078 -2.2246
15550SOL     OW49281   9.627   0.539   7.026 -0.1958  0.4304 -0.2968
15550SOL    HW149282   9.538   0.572   7.040  0.4952  2.8659 -1.0507
15550SOL    HW249283   9.672   0.554   7.109 -0.4118 -0.6107  0.0195
15551SOL     OW49284   6.511   1.119   6.849  0.2107  0.8122 -0.6113
15551SOL    HW149285   6.449   1.140   6.919  2.1288  1.6415  0.9488
15551SOL    HW249286   6.496   1.026   6.831 -2.0128  1.1815 -0.9081
15552SOL     OW49287   9.218   9.149   2.267 -0.0114  0.2416 -0.6059
15552SOL    HW149288   9.129   9.179   2.252 -0.9342 -1.9472  0.1621
15552SOL    HW249289   9.259   9.149   2.181 -0.6821  1.3830 -0.9399
15553SOL     OW49290   0.997  10.200   7.282  0.0469  0.4807  0.8224
15553SOL    HW149291   1.060  10.270   7.270  0.7837 -0.3679 -0.4574
15553SOL    HW249292   0.912  10.239   7.261  0.5742  0.7410 -0.9288
15554SOL     OW49293   6.551   8.622   5.286  0.3293  0.7192 -0.0975
15554SOL    HW149294   6.641   8.590   5.273  0.3815 -0.0263  1.7590
15554SOL    HW249295   6.544   8.635   5.381 -1.2042  1.7881 -0.3219
15555SOL     OW49296   0.406   0.345   0.559  0.4424 -0.0605 -0.4822
15555SOL    HW149297   0.491   0.383   0.582 -0.2167  1.1878  0.0040
15555SOL    HW249298   0.361   0.337   0.643  0.2504 -1.1638 -0.6855
15556SOL     OW49299   2.320   5.882   2.401  0.1910 -0.4407 -0.4110
15556SOL    HW149300   2.252   5.950   2.395  0.2025 -0.1364  1.8328
15556SOL    HW249301   2.382   5.904   2.332  0.0800  1.7588  0.1089
15557SOL     OW49302   5.728   8.506   4.405  0.2113  0.1813  0.4738
15557SOL    HW149303   5.743   8.588   4.452  2.3722  1.2038 -1.7730
15557SOL    HW249304   5.647   8.522   4.356  0.6844  1.0878 -0.0560
15558SOL     OW49305   4.243   4.213   2.710  0.6282 -0.7176 -0.1139
15558SOL    HW149306   4.209   4.153   2.776  0.3689 -0.5182 -0.0611
15558SOL    HW249307   4.283   4.156   2.644 -0.0427 -0.9862 -0.3074
15559SOL     OW49308   8.587   8.494   7.901 -0.1782 -0.4872  0.6032
15559SOL    HW149309   8.627   8.559   7.842 -3.0093 -0.6612 -1.7584
15559SOL    HW249310   8.505   8.536   7.930 -1.1403 -2.2469  0.5397
15560SOL     OW49311   8.542   2.038   0.223  0.5713  0.2444  0.4892
15560SOL    HW149312   8.544   1.949   0.257  0.4411 -0.5303 -1.4290
15560SOL    HW249313   8.631   2.054   0.191  0.0217 -0.1214 -1.3398
15561SOL     OW49314   2.124   1.508   6.482 -0.2710 -0.4645 -0.8176
15561SOL    HW149315   2.212   1.539   6.502 -0.2044 -1.6736  1.1103
15561SOL    HW249316   2.108   1.535   6.392  0.7135  2.8228 -0.1453
15562SOL     OW49317   4.426   5.156   1.779 -0.5939  0.0889 -0.2412
15562SOL    HW149318   4.383   5.177   1.696 -0.9977 -0.0592 -0.0739
15562SOL    HW249319   4.500   5.101   1.754  0.8089  2.0897 -0.7368
15563SOL     OW49320   8.877   1.942   0.750  0.2938 -0.1012 -0.0088
15563SOL    HW149321   8.959   1.924   0.795  0.5188 -0.6265 -0.6194
15563SOL    HW249322   8.896   1.929   0.657  0.1869  2.2876 -0.4238
15564SOL     OW49323   1.323   2.409   8.606  0.3419  0.0141 -0.2341
15564SOL    HW149324   1.330   2.458   8.524 -1.8290  0.3460 -0.2899
15564SOL    HW249325   1.248   2.350   8.593  1.9537 -2.3002  0.3707
15565SOL     OW49326   9.769   6.824   2.802 -0.2269 -0.0290  0.2631
15565SOL    HW149327   9.697   6.887   2.795  0.3541  0.9122  1.9682
15565SOL    HW249328   9.836   6.870   2.852  0.7972 -1.5333  0.3501
15566SOL     OW49329   3.997  10.327   7.146 -0.0268 -0.1228  0.8528
15566SOL    HW149330   3.977  10.416   7.175  0.5352  0.8017 -1.4233
15566SOL    HW249331   3.911  10.285   7.138 -0.6692  1.4465 -1.6089
15567SOL     OW49332   1.908   5.140   9.503  0.0773 -0.1194 -0.4195
15567SOL    HW149333   1.844   5.126   9.433 -2.1344  0.9542  1.2712
15567SOL    HW249334   1.992   5.115   9.464 -1.2698 -1.1380 -2.8983
15568SOL     OW49335   0.103   4.396   6.907  0.4763  0.2491  0.1299
15568SOL    HW149336   0.154   4.322   6.940 -0.2495  0.1712  1.1615
15568SOL    HW249337   0.101   4.384   6.812  1.4509 -0.3321  0.1724
15569SOL     OW49338   2.039   1.159   2.880 -0.1591 -0.2519 -0.8191
15569SOL    HW149339   1.952   1.186   2.910  0.5202 -0.6988  1.7349
15569SOL    HW249340   2.087   1.241   2.869 -0.3060 -0.0800 -0.2335
15570SOL     OW49341   6.338   0.573   3.436 -0.4210  0.2305 -0.0484
15570SOL    HW149342   6.418   0.626   3.444 -0.2286 -0.1881  0.9502
15570SOL    HW249343   6.267   0.635   3.449 -0.1850  0.1849  1.6514
15571SOL     OW49344   2.645   5.535   4.214  0.3057 -0.3551  0.0637
15571SOL    HW149345   2.630   5.571   4.301  1.3262  2.8115 -0.9337
15571SOL    HW249346   2.558   5.521   4.178 -0.2961  2.9405 -0.0610
15572SOL     OW49347   6.233   2.741   3.659 -0.0658 -0.4147 -0.3740
15572SOL    HW149348   6.154   2.718   3.707 -0.2796  0.5794 -0.2297
15572SOL    HW249349   6.299   2.677   3.688 -0.1110  0.3463  1.4720
15573SOL     OW49350   8.244   2.511   4.935 -0.0588 -0.2692  0.1001
15573SOL    HW149351   8.273   2.578   4.996 -0.9947 -0.8299  1.2163
15573SOL    HW249352   8.311   2.443   4.940 -0.0666 -0.2550  0.4160
15574SOL     OW49353   9.778   3.726   7.562 -0.0650 -0.4055 -0.1169
15574SOL    HW149354   9.823   3.748   7.480  0.3844 -0.6685  0.0560
15574SOL    HW249355   9.849   3.709   7.624 -0.4021 -1.5485 -0.0289
15575SOL     OW49356   6.854   9.409   9.708 -0.5879 -0.2695 -0.1199
15575SOL    HW149357   6.894   9.362   9.782  1.4595 -0.9168 -1.5368
15575SOL    HW249358   6.879   9.357   9.631  0.4998  2.3153 -1.6347
15576SOL     OW49359   4.669   4.130   5.116  0.2033  0.5894 -0.2313
15576SOL    HW149360   4.762   4.147   5.132  0.6548 -1.2746 -0.7095
15576SOL    HW249361   4.624   4.186   5.178  1.5783  2.5937 -0.9187
15577SOL     OW49362   8.477   6.161   9.760 -0.3211 -0.1426 -0.3038
15577SOL    HW149363   8.523   6.164   9.844 -0.1828 -0.3381 -0.3716
15577SOL    HW249364   8.536   6.113   9.702 -0.1115  0.5929 -0.7053
15578SOL     OW49365   6.814   5.036   4.500 -0.0944  0.1613  0.4517
15578SOL    HW149366   6.733   4.990   4.480 -0.3803  1.1681 -0.8836
15578SOL    HW249367   6.787   5.123   4.527  0.4831 -0.0744  1.8895
15579SOL     OW49368  10.297   4.749   8.620  0.0694  0.6839  0.0985
15579SOL    HW149369  10.336   4.788   8.698 -1.1697  1.2054  0.4882
15579SOL    HW249370  10.209   4.788   8.615 -0.1527  0.0883 -1.1293
15580SOL     OW49371   2.481   6.308   0.582  0.1278  0.2340 -0.3741
15580SOL    HW149372   2.567   6.347   0.597 -0.9495  1.5182  4.2733
15580SOL    HW249373   2.419   6.380   0.594 -1.6908 -1.3998  0.8815
15581SOL     OW49374   4.419   2.969   9.690 -0.1094 -0.1223  0.2567
15581SOL    HW149375   4.430   3.039   9.755  0.5160 -0.5237  0.6007
15581SOL    HW249376   4.499   2.916   9.699  0.5102  0.4359 -1.6137
15582SOL     OW49377   7.166   2.684   8.492  0.1573  0.2404  0.4544
15582SOL    HW149378   7.076   2.714   8.502 -0.0232 -0.5111  1.2443
15582SOL    HW249379   7.165   2.633   8.410  0.2582  1.5753 -0.3977
15583SOL     OW49380  10.343   0.362   7.066  0.4909 -0.0001  0.1883
15583SOL    HW149381  10.271   0.318   7.113  1.1222 -0.7090  0.5193
15583SOL    HW249382  10.404   0.387   7.135  0.6754  0.3877 -0.1145
15584SOL     OW49383   8.825   1.214   0.024  0.0281 -0.2352  0.0899
15584SOL    HW149384   8.906   1.257   0.052 -0.9590  1.8134  0.0145
15584SOL    HW249385   8.756   1.258   0.074 -1.2009 -0.6962 -1.1317
15585SOL     OW49386   3.242   6.494   5.994  0.4407  0.3717 -0.1554
15585SOL    HW149387   3.250   6.521   5.902  1.7873 -0.8578 -0.4269
15585SOL    HW249388   3.165   6.438   5.995  0.5725  0.1755 -0.5922
15586SOL     OW49389   2.881   3.668   0.132  0.5537 -0.3492  0.1301
15586SOL    HW149390   2.873   3.618   0.213 -1.3489  2.1784  1.6263
15586SOL    HW249391   2.924   3.750   0.158 -0.7485  0.8329 -1.2450
15587SOL     OW49392   2.688   4.741   9.338  0.0075  0.1232 -0.7188
15587SOL    HW149393   2.645   4.789   9.267  0.8084  0.4784 -0.9760
15587SOL    HW249394   2.638   4.765   9.416  0.3182  1.3014 -0.8593
15588SOL     OW49395   4.277   2.741   3.468  0.3362 -0.3758 -0.4233
15588SOL    HW149396   4.219   2.719   3.540 -2.1785  3.3792 -1.0117
15588SOL    HW249397   4.227   2.805   3.416  3.3993 -0.1869 -3.4768
15589SOL     OW49398   5.840   8.678   1.485 -0.6392  0.3824  0.0883
15589SOL    HW149399   5.833   8.735   1.561 -1.8744 -0.8714  0.9743
15589SOL    HW249400   5.754   8.681   1.445 -0.4779 -0.2233 -0.3139
15590SOL     OW49401   4.098   9.860   6.851 -1.1775 -0.3162  0.4065
15590SOL    HW149402   4.168   9.915   6.886  0.0901 -2.2454  1.0722
15590SOL    HW249403   4.017   9.907   6.872 -0.2679  0.3301  2.7352
15591SOL     OW49404   4.849   8.586   0.987  0.0193 -0.3020 -0.2899
15591SOL    HW149405   4.819   8.618   0.902  0.7469 -0.6265 -0.6823
15591SOL    HW249406   4.856   8.491   0.976 -3.4297 -0.9002  1.2585
15592SOL     OW49407   1.439  10.009   7.213  0.4853 -0.4710  0.2304
15592SOL    HW149408   1.368  10.042   7.268  0.3179  0.6973 -0.6560
15592SOL    HW249409   1.400   9.936   7.165  0.6189 -1.4767  1.5743
15593SOL     OW49410   4.367   9.093   9.237  0.9135  0.1692 -0.0807
15593SOL    HW149411   4.428   9.100   9.164 -0.0254  0.7085 -0.8380
15593SOL    HW249412   4.416   9.124   9.312  1.1567  1.9441 -0.9251
15594SOL     OW49413  10.217   6.790   2.287 -0.1971  0.2710  0.2960
15594SOL    HW149414  10.142   6.845   2.310 -0.5315 -0.6512  1.5219
15594SOL    HW249415  10.197   6.758   2.199  0.2056  2.4003 -0.6240
15595SOL     OW49416   2.898   7.864   8.455  0.2173  0.6268 -0.3230
15595SOL    HW149417   2.883   7.808   8.531  0.0775  0.0001 -0.7954
15595SOL    HW249418   2.831   7.932   8.462 -0.9106 -0.3791 -0.7475
15596SOL     OW49419   6.496   2.583   3.402 -0.5028  0.0558  0.3191
15596SOL    HW149420   6.497   2.488   3.417  1.5140  0.1134  0.9756
15596SOL    HW249421   6.520   2.621   3.487 -0.0003  1.0581 -0.2447
15597SOL     OW49422   8.566  10.280   5.744  0.3038  0.2587 -0.2993
15597SOL    HW149423   8.587  10.337   5.817 -0.7137 -1.2406  1.2164
15597SOL    HW249424   8.509  10.332   5.688  1.6776  1.6711 -0.4631
15598SOL     OW49425   0.132   6.736   2.265  0.2189  1.1369  0.0323
15598SOL    HW149426   0.038   6.746   2.279  0.1551 -0.4657  0.8943
15598SOL    HW249427   0.146   6.767   2.175 -1.4068 -0.1207 -0.7082
15599SOL     OW49428   2.387   7.929   5.681 -0.0260 -0.1935 -0.2244
15599SOL    HW149429   2.414   7.922   5.589 -1.7913 -1.7408 -0.6812
15599SOL    HW249430   2.462   7.894   5.730  0.7683  0.2555 -1.0822
15600SOL     OW49431   0.917   2.334   9.695 -0.1294  0.4687  0.1048
15600SOL    HW149432   0.836   2.379   9.719 -0.4397 -0.1009  0.1516
15600SOL    HW249433   0.960   2.316   9.778 -0.0604  0.5751  0.0924
15601SOL     OW49434   0.268   1.413   9.597 -0.1407 -0.1291 -0.2069
15601SOL    HW149435   0.357   1.447   9.604 -0.1826  0.4258 -2.0224
15601SOL    HW249436   0.258   1.357   9.675  1.5422  0.3157  0.3757
15602SOL     OW49437   5.724   6.250   4.772 -0.1481 -0.3362 -0.4158
15602SOL    HW149438   5.810   6.293   4.777 -0.5662  0.5858 -0.9011
15602SOL    HW249439   5.662   6.317   4.802 -0.7786 -0.7325 -0.8209
15603SOL     OW49440   0.316   9.452   2.068  0.1518  0.4653 -0.4806
15603SOL    HW149441   0.259   9.444   2.144 -1.0750  2.3515 -1.1386
15603SOL    HW249442   0.405   9.451   2.105 -0.3061 -0.8933  0.7103
15604SOL     OW49443   8.099   1.706   7.432  0.0327  0.6675 -0.1951
15604SOL    HW149444   8.167   1.770   7.412  1.0266 -0.3598 -0.2552
15604SOL    HW249445   8.114   1.683   7.524 -0.6684  0.9271 -0.0097
15605SOL     OW49446   8.136   4.659   4.944 -0.8349  0.7484  0.1746
15605SOL    HW149447   8.049   4.699   4.953 -1.0597  0.0008  1.4945
15605SOL    HW249448   8.123   4.586   4.883 -0.9022  1.2655 -0.4401
15606SOL     OW49449   8.219   5.739   8.733 -0.2967  0.2487  0.1152
15606SOL    HW149450   8.244   5.756   8.824  1.2705  1.5785 -0.4961
15606SOL    HW249451   8.124   5.730   8.735 -0.3261  0.5826  1.8355
15607SOL     OW49452   5.941   7.550   2.768  0.1645  0.0689 -0.1589
15607SOL    HW149453   5.948   7.454   2.772  1.5655  0.1051 -1.1192
15607SOL    HW249454   6.026   7.579   2.734 -0.1498  1.6817  0.3566
15608SOL     OW49455   2.740   6.808   3.298  0.0240 -0.7524 -0.1268
15608SOL    HW149456   2.739   6.837   3.207 -0.3530 -0.8866 -0.1662
15608SOL    HW249457   2.651   6.777   3.315 -0.3821  0.8416  0.7974
15609SOL     OW49458   7.948   7.772   3.606  1.2705 -0.0636  0.4784
15609SOL    HW149459   7.909   7.782   3.519  3.0186 -1.0802 -0.4716
15609SOL    HW249460   7.873   7.769   3.665  0.0075  0.0578 -1.0428
15610SOL     OW49461   2.110   5.263   6.097  0.0808 -0.2875  0.2736
15610SOL    HW149462   2.152   5.189   6.142 -0.9644  0.0873  1.9742
15610SOL    HW249463   2.171   5.336   6.108  1.4704 -0.9903 -2.0571
15611SOL     OW49464   3.711   9.936   0.158  0.0232 -0.1383  0.2701
15611SOL    HW149465   3.752  10.012   0.202  0.2780 -0.3504  0.4029
15611SOL    HW249466   3.625   9.968   0.131  0.2807  0.3212 -0.0268
15612SOL     OW49467   8.744   6.304   8.903 -0.5463  0.1821 -0.2070
15612SOL    HW149468   8.752   6.222   8.854 -1.0918  0.8213 -1.4165
15612SOL    HW249469   8.834   6.333   8.917 -0.2656 -1.4695  1.7695
15613SOL     OW49470   6.459   4.980   2.039  0.9432  0.0836 -0.0964
15613SOL    HW149471   6.412   4.903   2.008 -0.1112  0.2420  1.0659
15613SOL    HW249472   6.417   5.053   1.994 -0.2822  0.2701  1.2932
15614SOL     OW49473   2.818   4.505   4.893  0.3558 -0.8587 -0.3798
15614SOL    HW149474   2.836   4.411   4.895 -1.1517 -1.2125 -1.2994
15614SOL    HW249475   2.879   4.540   4.829 -0.0025 -1.4754 -1.0819
15615SOL     OW49476   0.048   9.832   4.752 -0.0563 -0.2700  0.2793
15615SOL    HW149477   0.039   9.877   4.668 -1.1698 -1.0877 -0.0577
15615SOL    HW249478   0.038   9.739   4.731  0.5812 -0.5641  1.1963
15616SOL     OW49479   1.337   5.322   0.407  0.9014  0.0159  0.3154
15616SOL    HW149480   1.331   5.407   0.450  1.1147 -0.1008  0.5794
15616SOL    HW249481   1.391   5.269   0.465  2.0862  0.1677 -0.5951
15617SOL     OW49482   1.286   5.071   9.292 -0.1951 -0.1144  0.4495
15617SOL    HW149483   1.293   5.157   9.251  0.4622 -0.1551  0.4535
15617SOL    HW249484   1.193   5.052   9.295 -0.2559 -0.1933 -1.2028
15618SOL     OW49485   8.314   1.019   5.584  0.0478  0.0618  0.1833
15618SOL    HW149486   8.376   1.017   5.657  0.0362 -1.3092  0.1758
15618SOL    HW249487   8.345   0.951   5.524 -2.1030 -1.4918  0.7281
15619SOL     OW49488   6.042   0.335   3.245  0.5271  0.0458  0.4331
15619SOL    HW149489   6.038   0.424   3.209  2.5051 -0.5851 -1.6071
15619SOL    HW249490   5.997   0.281   3.180  1.7588 -0.7778  0.2315
15620SOL     OW49491   9.572   6.549   0.057  0.1303 -0.3242 -0.3180
15620SOL    HW149492   9.616   6.572   0.139  0.5549  1.4082 -0.9886
15620SOL    HW249493   9.643   6.534  -0.005 -0.2002 -0.7047 -0.6088
15621SOL     OW49494   5.519   3.947   9.189  0.1582 -0.0458 -0.7087
15621SOL    HW149495   5.505   3.863   9.146 -0.4983  0.1859 -0.9737
15621SOL    HW249496   5.613   3.955   9.199  0.1977 -1.0279 -0.2512
15622SOL     OW49497   8.071   9.026   0.566  0.2452  0.0965 -0.0431
15622SOL    HW149498   8.084   9.082   0.490  1.4149  0.2969  0.2861
15622SOL    HW249499   8.012   8.957   0.535 -2.3076  2.1389 -0.1109
15623SOL     OW49500   2.836   2.679   8.569  0.7525  0.0210 -0.5752
15623SOL    HW149501   2.800   2.722   8.647  0.3759  1.0619 -1.2922
15623SOL    HW249502   2.762   2.674   8.509  1.1889 -0.2232 -1.0962
15624SOL     OW49503   3.383   2.400   3.758  0.0693  0.2154 -0.3929
15624SOL    HW149504   3.408   2.422   3.668  0.4988 -0.8951 -0.5722
15624SOL    HW249505   3.403   2.478   3.809  1.8737  0.1492 -0.9197
15625SOL     OW49506   5.307   6.450   7.123  0.6761 -0.4935  0.6272
15625SOL    HW149507   5.323   6.372   7.176  0.3439  0.2903  1.9461
15625SOL    HW249508   5.393   6.471   7.085  0.5947 -1.9392 -0.4097
15626SOL     OW49509   3.342   5.986   0.537 -0.6891 -0.3270  0.1584
15626SOL    HW149510   3.425   5.960   0.498 -0.8547 -1.2413  0.3803
15626SOL    HW249511   3.339   5.938   0.620 -1.4765 -0.3746  0.1113
15627SOL     OW49512   8.530  10.291   5.056  0.3733  0.4768 -0.6397
15627SOL    HW149513   8.535  10.197   5.076  0.6848  0.6367  0.0725
15627SOL    HW249514   8.618  10.314   5.028  0.5759  0.7689  0.2046
15628SOL     OW49515   2.387   3.141   5.563 -0.4927 -0.2054  0.6981
15628SOL    HW149516   2.445   3.070   5.592  0.9967  1.3260  1.6983
15628SOL    HW249517   2.390   3.137   5.468  1.8109  0.1483  0.6847
15629SOL     OW49518   7.054   1.370   5.901 -0.2317 -0.0470 -0.2709
15629SOL    HW149519   7.140   1.412   5.897  0.1488 -0.8408 -0.6213
15629SOL    HW249520   7.064   1.288   5.852 -1.1512 -0.2148 -0.2077
15630SOL     OW49521   9.869   7.482   9.065 -0.3680 -0.2316  0.3775
15630SOL    HW149522   9.875   7.573   9.094  1.7685  0.4158 -1.7979
15630SOL    HW249523   9.776   7.461   9.075 -0.5600  1.3629  3.1033
15631SOL     OW49524   0.489   7.002   5.188  0.2044  0.0424 -0.1204
15631SOL    HW149525   0.514   6.955   5.268 -0.4617  0.2255  0.2067
15631SOL    HW249526   0.425   6.945   5.146 -1.5108  1.1414  0.8824
15632SOL     OW49527   6.603   9.620   5.913 -0.4389  0.0476  0.2185
15632SOL    HW149528   6.675   9.667   5.955  0.1142  0.3739 -1.0571
15632SOL    HW249529   6.646   9.556   5.857 -1.1127  0.6162 -0.9886
15633SOL     OW49530   9.153   1.628   5.011  0.0621  0.1269  0.1547
15633SOL    HW149531   9.202   1.626   4.929  1.9354  0.2269  1.2027
15633SOL    HW249532   9.084   1.564   5.000 -1.4487  2.0126 -2.4713
15634SOL     OW49533   6.517   7.808   9.490  0.0995 -0.8867  0.1316
15634SOL    HW149534   6.433   7.824   9.534  1.1995 -1.2284  2.5427
15634SOL    HW249535   6.562   7.745   9.547  1.5126 -1.6877 -1.7560
15635SOL     OW49536   6.471   9.836   7.698  0.0049  0.1280 -0.3596
15635SOL    HW149537   6.476   9.853   7.604 -0.8824 -0.5613 -0.5493
15635SOL    HW249538   6.450   9.920   7.737 -1.8457  0.0196 -1.0212
15636SOL     OW49539  10.207   4.330   3.191 -0.0264 -0.6146  0.3543
15636SOL    HW149540  10.125   4.344   3.145  0.4743 -1.8185 -1.0171
15636SOL    HW249541  10.182   4.306   3.280 -1.1605 -0.9682 -0.0506
15637SOL     OW49542   5.182   8.513   7.301  0.2789 -0.3474 -0.2214
15637SOL    HW149543   5.251   8.532   7.238 -0.1891  0.0356 -0.6216
15637SOL    HW249544   5.170   8.594   7.350 -0.6651 -0.0512 -0.9148
15638SOL     OW49545   7.841   5.913   7.167 -0.7392 -0.1119  0.3507
15638SOL    HW149546   7.881   5.880   7.086 -1.2876  1.7145 -0.7164
15638SOL    HW249547   7.903   5.977   7.200 -0.7962 -0.4230  1.0754
15639SOL     OW49548   6.434   4.817   3.322  0.0228 -0.1370 -0.0406
15639SOL    HW149549   6.496   4.758   3.279  0.3467 -0.0648  0.3109
15639SOL    HW249550   6.355   4.813   3.269  0.1380 -0.6730 -0.1761
15640SOL     OW49551   0.540   0.112   4.899  0.2762  0.0322 -0.2462
15640SOL    HW149552   0.515   0.204   4.885  0.8955  0.3193  0.4259
15640SOL    HW249553   0.523   0.069   4.816  1.2278  1.0415 -0.9954
15641SOL     OW49554   9.743   0.350   7.698 -0.0550  0.0138  0.1249
15641SOL    HW149555   9.785   0.435   7.712  0.0919  0.0950 -0.7240
15641SOL    HW249556   9.816   0.289   7.691 -0.1989 -0.6202  3.1586
15642SOL     OW49557   8.324   6.035   8.440 -0.1023  0.0388  0.7669
15642SOL    HW149558   8.334   5.943   8.464 -2.6110 -0.2346  1.0020
15642SOL    HW249559   8.299   6.034   8.348 -0.4963  0.4523  0.8643
15643SOL     OW49560   6.992   2.154   7.863 -0.4341  0.0411 -0.0139
15643SOL    HW149561   7.082   2.178   7.886 -0.3087  1.8963 -2.1091
15643SOL    HW249562   6.956   2.232   7.822 -2.5125 -1.1740 -0.6426
15644SOL     OW49563   1.019   4.983   9.313  0.2893  0.3519 -0.6617
15644SOL    HW149564   0.939   5.035   9.319  0.2927  0.3106 -0.1563
15644SOL    HW249565   0.997   4.900   9.356  1.5474  1.5498  2.6324
15645SOL     OW49566  10.228   7.023   6.041 -0.6745  0.4864  0.1495
15645SOL    HW149567  10.246   7.078   5.965 -0.2935  0.1131 -0.0396
15645SOL    HW249568  10.136   6.999   6.032  0.1658 -2.4781 -2.2025
15646SOL     OW49569   0.874   5.487   1.120  0.0497  0.1866  0.3691
15646SOL    HW149570   0.816   5.411   1.127 -1.0581  1.0465  0.8436
15646SOL    HW249571   0.834   5.541   1.051  0.6060  0.5235  0.3080
15647SOL     OW49572   9.602   2.697   1.153  0.3247 -0.0050  0.2061
15647SOL    HW149573   9.574   2.638   1.083  2.8646 -1.8345  0.6030
15647SOL    HW249574   9.521   2.733   1.188 -1.2923 -2.4934 -0.7285
15648SOL     OW49575   3.622   2.517   1.120  0.1823  0.1808 -0.6757
15648SOL    HW149576   3.562   2.494   1.192 -0.0939  1.8382 -0.3283
15648SOL    HW249577   3.631   2.436   1.070  1.4093 -1.4255  1.9211
15649SOL     OW49578   0.661   8.576   3.279 -0.1263 -0.0855  0.0638
15649SOL    HW149579   0.600   8.523   3.331 -1.1767 -0.0775 -1.1261
15649SOL    HW249580   0.637   8.666   3.298  0.3525 -0.0528  0.5489
15650SOL     OW49581   8.083   4.381   3.332  0.4650  0.3934 -0.2652
15650SOL    HW149582   8.041   4.420   3.256  1.5131  1.4803 -0.3213
15650SOL    HW249583   8.011   4.349   3.386 -0.3130 -0.0025 -1.4920
15651SOL     OW49584   9.172   2.072  10.049 -0.6797  0.2764  0.4767
15651SOL    HW149585   9.164   2.108  10.137 -0.0576 -1.9757  1.5490
15651SOL    HW249586   9.224   1.992  10.061  1.2420  0.9747 -2.2503
15652SOL     OW49587   4.142   2.070   9.219  0.0086  0.0108  0.0192
15652SOL    HW149588   4.124   1.976   9.229  0.7209  0.0008  1.5957
15652SOL    HW249589   4.224   2.073   9.169 -1.1402 -0.1094 -1.9523
15653SOL     OW49590   4.017   2.099   6.535  0.0972 -0.2654 -0.0030
15653SOL    HW149591   3.973   2.036   6.593  0.5306  0.1058  0.7434
15653SOL    HW249592   3.993   2.071   6.447 -3.8994  1.4975  0.3496
15654SOL     OW49593   7.867   1.354   1.835 -0.7168 -0.2761 -0.3469
15654SOL    HW149594   7.788   1.401   1.861 -0.9931 -1.3249  0.7671
15654SOL    HW249595   7.835   1.281   1.781 -0.5000 -0.5992 -0.0437
15655SOL     OW49596   8.204   4.977   9.996  0.0300 -0.3409  0.8259
15655SOL    HW149597   8.112   4.978   9.971  0.0763  2.3613  0.5283
15655SOL    HW249598   8.250   5.015   9.922  1.0169  1.1277  2.1234
15656SOL     OW49599  10.285   7.707   3.678 -0.2595  0.3556 -0.1743
15656SOL    HW149600  10.295   7.784   3.623 -1.2905  0.0727 -0.7812
15656SOL    HW249601  10.232   7.646   3.626 -1.9846  0.4014  1.4263
15657SOL     OW49602   5.672   0.962   7.243 -0.0801 -0.3449  0.0136
15657SOL    HW149603   5.633   0.880   7.272 -1.5019 -0.0287 -0.8934
15657SOL    HW249604   5.763   0.957   7.272  0.4677 -3.1476 -1.7209
15658SOL     OW49605   1.126   1.147   6.544 -0.3560  0.3098 -0.0296
15658SOL    HW149606   1.048   1.171   6.594  1.2608  1.6562  2.0241
15658SOL    HW249607   1.169   1.230   6.525 -0.4235 -0.2147 -3.0730
15659SOL     OW49608   0.289   5.248   9.193 -0.0282  0.8174  0.1587
15659SOL    HW149609   0.367   5.230   9.141 -0.4451 -2.4274  0.4273
15659SOL    HW249610   0.321   5.261   9.282  0.3648  2.0961 -0.1559
15660SOL     OW49611   4.272   8.468   3.522 -0.3537 -0.4214 -0.4347
15660SOL    HW149612   4.340   8.529   3.493 -0.8550  0.8621  0.9953
15660SOL    HW249613   4.234   8.508   3.600 -1.6979 -1.8741 -0.2793
15661SOL     OW49614   5.750   3.112   7.825  1.0504  0.0743 -0.5511
15661SOL    HW149615   5.709   3.154   7.900  1.6488 -0.3376  0.0205
15661SOL    HW249616   5.678   3.089   7.767  0.2266 -2.2799  1.2465
15662SOL     OW49617   9.393   5.518   5.624  0.6155 -0.4666  0.8475
15662SOL    HW149618   9.432   5.564   5.550  0.7149  2.8943  2.7595
15662SOL    HW249619   9.441   5.550   5.700 -1.9418 -0.7395  2.7339
15663SOL     OW49620   9.453   6.540   6.201  0.1589  0.4125  0.2314
15663SOL    HW149621   9.375   6.489   6.179 -0.0278 -0.1775  2.1103
15663SOL    HW249622   9.434   6.628   6.168 -0.8221  0.0175 -0.2927
15664SOL     OW49623   3.484   1.722   9.158 -0.7265 -0.0630  0.1405
15664SOL    HW149624   3.403   1.706   9.207  0.8650 -0.6817  2.7142
15664SOL    HW249625   3.532   1.639   9.163 -0.4165 -0.1515 -2.5082
15665SOL     OW49626   5.741   1.763   7.553  0.4663  0.2740  0.2452
15665SOL    HW149627   5.707   1.704   7.486 -0.3221  2.4777 -1.4274
15665SOL    HW249628   5.770   1.705   7.623  1.1770 -2.1554 -1.8931
15666SOL     OW49629   3.264   0.401   4.422  0.8309  0.3694  0.4350
15666SOL    HW149630   3.182   0.352   4.432  1.4094 -0.8973 -0.6661
15666SOL    HW249631   3.305   0.395   4.509  0.7539 -0.8847  0.4055
15667SOL     OW49632   8.246   9.180   9.553 -0.0312 -0.7480  0.0942
15667SOL    HW149633   8.211   9.117   9.615  1.4122 -1.0634  0.6424
15667SOL    HW249634   8.322   9.218   9.598 -0.9673  1.5622 -0.1183
15668SOL     OW49635   9.823  10.322   5.274 -0.0616  0.3514  0.2938
15668SOL    HW149636   9.844  10.239   5.232  0.7983  0.7406 -0.0525
15668SOL    HW249637   9.897  10.380   5.254 -0.2611  0.9581  1.2039
15669SOL     OW49638   7.654   0.686   1.393  0.6507 -0.2805  0.2540
15669SOL    HW149639   7.700   0.676   1.310 -0.7657  2.0626 -0.9197
15669SOL    HW249640   7.586   0.618   1.391  0.8535 -0.4711 -0.3535
15670SOL     OW49641   3.564   8.937   5.377  0.4042 -0.0427 -0.4390
15670SOL    HW149642   3.515   8.965   5.300 -1.0227 -3.1533 -0.8036
15670SOL    HW249643   3.647   8.905   5.342 -0.5577 -2.2132 -0.9018
15671SOL     OW49644   5.720   6.154   8.546 -0.4368 -0.0074  0.2797
15671SOL    HW149645   5.719   6.058   8.553  1.1865 -0.0007  1.0437
15671SOL    HW249646   5.676   6.184   8.626 -0.2597 -0.1024  0.4128
15672SOL     OW49647   3.660   2.754   5.284 -0.0602 -0.3750  0.2547
15672SOL    HW149648   3.613   2.816   5.340  1.3364  0.9292  0.0440
15672SOL    HW249649   3.733   2.723   5.337 -0.0051 -0.8646 -0.0958
15673SOL     OW49650   7.355   9.884   8.239 -0.5002 -0.4278  0.1330
15673SOL    HW149651   7.447   9.892   8.265 -0.1536  1.5698 -1.4499
15673SOL    HW249652   7.348   9.796   8.202  1.0007 -0.3314 -0.4530
15674SOL     OW49653   3.677   7.475   7.657  0.0416 -0.6509 -0.5060
15674SOL    HW149654   3.688   7.403   7.719  3.5788 -1.3283 -1.6537
15674SOL    HW249655   3.714   7.551   7.702 -1.0691 -0.1964 -0.3448
15675SOL     OW49656   0.197   5.726   5.122  0.3381  0.2643 -0.6531
15675SOL    HW149657   0.182   5.631   5.111  0.9987  0.1918 -0.9600
15675SOL    HW249658   0.219   5.756   5.034  0.9711  0.5543 -0.3973
15676SOL     OW49659   6.874   0.087   1.540  0.2349 -0.1491  0.6716
15676SOL    HW149660   6.859   0.139   1.619 -1.0346 -0.3306  0.5787
15676SOL    HW249661   6.961   0.112   1.510 -0.6050  2.4697  0.2020
15677SOL     OW49662   7.714   7.337   5.990  0.6434 -0.0308  0.0052
15677SOL    HW149663   7.651   7.319   6.061 -0.8389  2.9786 -0.3762
15677SOL    HW249664   7.721   7.254   5.942 -0.5732 -1.3294  1.9323
15678SOL     OW49665   6.560   2.976  10.241 -0.2137  0.1012 -0.0014
15678SOL    HW149666   6.501   2.902  10.230 -0.1652  0.1275 -0.4625
15678SOL    HW249667   6.636   2.940  10.287  0.6017 -0.5544 -1.8020
15679SOL     OW49668   3.714   8.699   3.049 -0.8251  0.5090 -0.0055
15679SOL    HW149669   3.778   8.669   2.985 -0.1589  0.3474  0.7218
15679SOL    HW249670   3.637   8.643   3.035 -0.8942  0.8419 -1.0189
15680SOL     OW49671   8.330   4.229   1.062 -0.5432 -0.0651  0.3092
15680SOL    HW149672   8.259   4.165   1.069 -0.2650 -0.3962  0.1221
15680SOL    HW249673   8.307   4.282   0.985 -0.4349 -0.3672  0.0656
15681SOL     OW49674   5.272   7.888   0.597 -0.2884  0.5226 -0.7091
15681SOL    HW149675   5.246   7.953   0.532  0.3120  1.4472 -0.0393
15681SOL    HW249676   5.356   7.855   0.567  0.8962  2.2932  0.5242
15682SOL     OW49677   7.304   9.151   9.568  0.0361  0.5337 -0.2291
15682SOL    HW149678   7.364   9.125   9.639 -0.1436 -0.3323 -0.3839
15682SOL    HW249679   7.236   9.202   9.612 -1.2606 -1.7798  0.6282
15683SOL     OW49680   6.238   6.135   4.579  0.0501 -0.7179 -0.0435
15683SOL    HW149681   6.257   6.045   4.606  1.8451 -0.2246  0.4109
15683SOL    HW249682   6.167   6.162   4.637  1.1655 -1.0229  1.5133
15684SOL     OW49683   2.672   0.002  10.110  0.6830  0.6690 -0.2818
15684SOL    HW149684   2.691   0.000  10.204 -1.4327  1.2627  0.2126
15684SOL    HW249685   2.651   0.093  10.091  0.0168  0.3648 -1.0891
15685SOL     OW49686   4.794   5.566   7.204 -0.3591 -0.0926  0.6561
15685SOL    HW149687   4.820   5.658   7.211  0.3215 -0.4115  2.9580
15685SOL    HW249688   4.814   5.543   7.113  1.9092  1.3280  0.7107
15686SOL     OW49689   3.108   0.254   6.355 -0.3858  0.2448 -0.3522
15686SOL    HW149690   3.072   0.274   6.441  0.0048 -1.1160  0.1453
15686SOL    HW249691   3.144   0.166   6.363 -0.9260 -0.1859 -2.0904
15687SOL     OW49692   8.157   0.808   3.166 -0.2689  0.1839  0.0837
15687SOL    HW149693   8.101   0.868   3.116 -0.2367 -0.3711 -0.6388
15687SOL    HW249694   8.237   0.802   3.114 -0.3632 -0.6606  0.0254
15688SOL     OW49695   7.610   2.011   8.507  0.2683  0.3042 -0.1886
15688SOL    HW149696   7.574   2.014   8.418 -0.5021  1.0899  0.1318
15688SOL    HW249697   7.700   2.043   8.498  0.0656  0.7639 -0.6394
15689SOL     OW49698   9.508   8.088   5.335  0.0169 -0.1240  0.1466
15689SOL    HW149699   9.534   8.169   5.290  3.8507 -1.0634  0.2906
15689SOL    HW249700   9.570   8.080   5.408 -0.3825 -3.0357  0.2873
15690SOL     OW49701   0.128   7.903   9.721 -0.1089  0.0392  0.2790
15690SOL    HW149702   0.140   7.886   9.814  2.3897  1.2507  0.2491
15690SOL    HW249703   0.105   7.996   9.716 -1.5140 -0.2961 -0.2977
15691SOL     OW49704   4.064   5.840   6.489  0.1327 -0.3617 -0.3844
15691SOL    HW149705   4.064   5.744   6.489 -2.0736 -0.4185 -1.2235
15691SOL    HW249706   4.148   5.864   6.452 -0.5697 -2.0745 -3.4764
15692SOL     OW49707   8.897   9.575   3.367  0.1416 -0.1081  0.1538
15692SOL    HW149708   8.963   9.526   3.319 -1.5739 -0.8923 -1.5479
15692SOL    HW249709   8.912   9.666   3.343  0.4295 -0.3057 -0.4356
15693SOL     OW49710   3.405   7.482   7.480  0.3038  0.6760  0.6207
15693SOL    HW149711   3.412   7.525   7.395 -0.7950  0.4045  0.3894
15693SOL    HW249712   3.344   7.410   7.467  2.0343 -0.9571  1.0184
15694SOL     OW49713  10.310   3.098   0.309  0.7102 -0.0556  0.1737
15694SOL    HW149714  10.266   3.161   0.252  1.8234  0.1053 -0.5220
15694SOL    HW249715  10.324   3.145   0.392 -0.7750 -0.2445  0.5641
15695SOL     OW49716   5.228   5.108   0.182  0.4292 -0.0915  0.0957
15695SOL    HW149717   5.199   5.107   0.091 -1.2067  0.5461  0.5621
15695SOL    HW249718   5.155   5.069   0.231  0.0983  2.0368  1.4160
15696SOL     OW49719   3.745   4.763   1.932  0.4037 -0.2051  0.2517
15696SOL    HW149720   3.668   4.805   1.894  0.1848  0.4362  1.3555
15696SOL    HW249721   3.710   4.710   2.003  0.7464 -1.8154 -0.7348
15697SOL     OW49722   5.357   1.049   9.382  0.5541 -0.2146 -0.4971
15697SOL    HW149723   5.355   1.047   9.478 -1.1195  1.3881 -0.4204
15697SOL    HW249724   5.437   1.096   9.361  0.5553  0.0944  0.1625
15698SOL     OW49725   3.908   5.360   6.592 -0.4565 -0.7735  0.3382
15698SOL    HW149726   3.976   5.399   6.647  0.9116 -2.3743 -0.1119
15698SOL    HW249727   3.943   5.367   6.503 -1.1755 -1.0716  0.0240
15699SOL     OW49728   3.913   8.350   5.607 -0.9913  0.7152 -0.4742
15699SOL    HW149729   3.942   8.416   5.671 -1.1227  1.1947 -0.8965
15699SOL    HW249730   3.992   8.332   5.555 -1.1068  0.9912 -0.7449
15700SOL     OW49731   3.126   9.240   3.665  0.2525  0.1775 -0.3595
15700SOL    HW149732   3.126   9.240   3.569  0.0741  2.2955 -0.4058
15700SOL    HW249733   3.219   9.242   3.688  0.2923 -0.1687 -0.4762
15701SOL     OW49734   2.064   3.555   9.592  0.2697 -0.3647  0.8621
15701SOL    HW149735   2.134   3.576   9.531 -0.6879 -0.8123 -0.4219
15701SOL    HW249736   2.045   3.462   9.576 -1.6608  0.1166  0.0563
15702SOL     OW49737  10.085   2.647   4.722 -0.1968 -0.1560  0.4714
15702SOL    HW149738  10.108   2.717   4.782 -2.1739 -0.2771  1.4579
15702SOL    HW249739  10.130   2.569   4.755  1.6798  0.5011 -0.3964
15703SOL     OW49740   2.155   5.569   7.396  0.8308  0.1912  0.1499
15703SOL    HW149741   2.148   5.499   7.460 -2.8595  0.6216  0.4487
15703SOL    HW249742   2.120   5.646   7.440  0.7067  1.1492 -1.5089
15704SOL     OW49743   0.658   2.809   1.048  0.5541 -0.1853  0.0427
15704SOL    HW149744   0.710   2.762   1.114  0.0676 -1.5901 -0.5374
15704SOL    HW249745   0.721   2.866   1.005  0.9050  0.6849  1.6337
15705SOL     OW49746   7.547   0.838   8.895  0.6278 -0.0879 -0.1197
15705SOL    HW149747   7.485   0.900   8.933 -0.3874  0.6690 -2.8173
15705SOL    HW249748   7.501   0.754   8.896  0.7625 -0.1657  0.5879
15706SOL     OW49749   4.287   4.498   2.606 -0.1646 -0.3801  0.1884
15706SOL    HW149750   4.233   4.559   2.655  1.2847  0.8153  0.4003
15706SOL    HW249751   4.263   4.411   2.638 -1.3567  0.1718  0.8232
15707SOL     OW49752   2.770   7.761   8.742 -0.3952  0.1688  0.5749
15707SOL    HW149753   2.711   7.823   8.699 -1.5129 -1.5347 -0.4849
15707SOL    HW249754   2.785   7.693   8.676  1.3242 -0.3650  1.4604
15708SOL     OW49755   7.962   4.476   7.759 -0.0205 -0.0373 -0.2926
15708SOL    HW149756   8.054   4.470   7.788 -0.2202  1.9292  0.9630
15708SOL    HW249757   7.958   4.559   7.711 -1.2087  0.0177 -0.1147
15709SOL     OW49758   3.346   6.063   6.456  0.4447 -0.1756 -0.2924
15709SOL    HW149759   3.391   6.067   6.372  0.5682  1.4853 -0.1947
15709SOL    HW249760   3.414   6.081   6.521 -0.0222  0.6385 -0.0114
15710SOL     OW49761  10.066   7.528   2.509  0.3600 -0.2278  0.4632
15710SOL    HW149762  10.077   7.511   2.603 -2.2909  1.3056  1.1608
15710SOL    HW249763  10.124   7.602   2.491  0.9850 -0.6172  0.8414
15711SOL     OW49764   0.308   0.910   5.446  0.3593 -0.3012  0.3724
15711SOL    HW149765   0.310   1.006   5.452  2.6505 -0.3888  2.1473
15711SOL    HW249766   0.223   0.891   5.406 -0.4802  2.4149  0.6404
15712SOL     OW49767   3.729   1.336   6.708 -0.0319  0.0890 -0.2546
15712SOL    HW149768   3.646   1.325   6.754 -0.2106  0.9599 -0.3466
15712SOL    HW249769   3.741   1.431   6.703 -0.1888  0.0359 -2.2978
15713SOL     OW49770   8.736   8.178   3.987  0.4922  0.5288  0.2399
15713SOL    HW149771   8.670   8.152   3.922  1.2450  2.7267 -1.5439
15713SOL    HW249772   8.802   8.110   3.982 -0.5499 -0.5413  0.4430
15714SOL     OW49773   6.253   0.172   3.224  0.6550  0.5244 -0.8388
15714SOL    HW149774   6.321   0.237   3.206  1.1861  0.3820  0.5439
15714SOL    HW249775   6.173   0.223   3.236  1.0654  0.9377  0.2287
15715SOL     OW49776   8.888   2.426   1.948  0.0776 -0.2885  0.0564
15715SOL    HW149777   8.951   2.354   1.940 -0.1454 -0.5766  0.8302
15715SOL    HW249778   8.809   2.385   1.985 -0.9912 -0.1723 -1.9151
15716SOL     OW49779   0.397   5.065   0.253 -0.4079 -0.2315 -0.4585
15716SOL    HW149780   0.395   4.970   0.247  0.6095 -0.2677 -0.2974
15716SOL    HW249781   0.361   5.085   0.340  1.5410 -0.6025  0.4802
15717SOL     OW49782   6.881  10.135   9.062 -0.8700  0.0125 -0.0970
15717SOL    HW149783   6.810  10.136   9.126 -0.8855  1.7217 -0.1021
15717SOL    HW249784   6.958  10.160   9.112 -0.9355  1.6764 -0.7652
15718SOL     OW49785   7.187   5.697   8.534 -0.0036  0.1961 -0.4474
15718SOL    HW149786   7.121   5.704   8.604 -1.6487 -0.6420 -1.8530
15718SOL    HW249787   7.205   5.604   8.527 -1.5824 -0.0118 -2.6115
15719SOL     OW49788   3.850  10.308   0.036 -0.2990 -0.5559  0.6491
15719SOL    HW149789   3.930  10.256   0.039 -0.3794 -0.6737  0.7236
15719SOL    HW249790   3.798  10.269  -0.034 -0.3051 -0.4959  0.6193
15720SOL     OW49791   0.275   4.686   5.728  0.7541  0.5317  0.5430
15720SOL    HW149792   0.186   4.713   5.749  0.8520  1.0141  0.3573
15720SOL    HW249793   0.274   4.671   5.634  0.3467 -1.5038  0.8295
15721SOL     OW49794   8.588   9.707   6.450 -0.1203  0.2846  0.6181
15721SOL    HW149795   8.525   9.730   6.382  1.3264 -0.2238 -0.9646
15721SOL    HW249796   8.635   9.788   6.468  0.2048  0.1734  0.2555
15722SOL     OW49797   6.279   6.902   3.906 -0.1781 -0.6161 -0.2567
15722SOL    HW149798   6.190   6.873   3.883 -0.6376  1.0348 -0.6580
15722SOL    HW249799   6.266   6.962   3.979  0.5890 -0.2333 -0.4271
15723SOL     OW49800   7.370   9.783   8.882  0.0363  0.2543  0.0924
15723SOL    HW149801   7.464   9.801   8.890  0.3628 -0.3303 -1.8917
15723SOL    HW249802   7.360   9.694   8.914  0.3300 -0.0330 -0.6090
15724SOL     OW49803   7.437   0.508   9.280  0.1953 -0.7155 -0.1335
15724SOL    HW149804   7.517   0.540   9.323 -0.3984 -0.3362  0.7212
15724SOL    HW249805   7.469   0.460   9.204  1.3142 -1.6187  0.8566
15725SOL     OW49806   4.357   6.858   0.381  0.3481 -0.8738  0.0289
15725SOL    HW149807   4.341   6.796   0.310  1.5151 -0.2786 -0.7797
15725SOL    HW249808   4.450   6.880   0.373  0.0367  0.7241  0.5064
15726SOL     OW49809   7.906   8.656   2.529 -0.2113  0.5301  0.0090
15726SOL    HW149810   7.851   8.734   2.528 -0.4834  0.3444 -1.1777
15726SOL    HW249811   7.851   8.588   2.488  0.5691  0.1152 -0.3724
15727SOL     OW49812   1.689   4.882   5.643  0.7431  0.0050  0.1334
15727SOL    HW149813   1.618   4.844   5.695  0.6795 -0.0221  0.0278
15727SOL    HW249814   1.646   4.910   5.562  0.8176  0.1685  0.1522
15728SOL     OW49815   3.704   5.634   3.553 -0.4396 -0.7367 -0.0989
15728SOL    HW149816   3.668   5.545   3.553  0.0060 -0.9203  0.0713
15728SOL    HW249817   3.685   5.668   3.640 -1.2976 -0.3739 -0.4129
15729SOL     OW49818   0.052   3.394   0.045 -0.5425 -0.6404  0.1482
15729SOL    HW149819   0.106   3.396   0.124  0.6840  0.4946 -0.6885
15729SOL    HW249820   0.093   3.456  -0.015 -2.1706 -0.5324 -0.9341
15730SOL     OW49821   4.986   6.557   8.336 -0.4182  0.0459  0.1832
15730SOL    HW149822   5.021   6.506   8.409 -1.3025  0.8829  1.2332
15730SOL    HW249823   4.918   6.502   8.298 -0.7078  0.0430  0.6985
15731SOL     OW49824   8.606   9.082   2.564  0.5754 -0.2441 -0.5397
15731SOL    HW149825   8.609   9.177   2.554 -2.4369  0.1327  0.7977
15731SOL    HW249826   8.601   9.048   2.475  0.9618  0.8848 -1.0136
15732SOL     OW49827   8.712   6.049   8.767  0.4021  0.2457 -0.1011
15732SOL    HW149828   8.780   5.982   8.771  1.2953  1.1279 -0.0512
15732SOL    HW249829   8.635   6.003   8.732  1.2572 -0.5800 -0.9710
15733SOL     OW49830   2.298   9.698   0.425 -0.3414  0.1060 -0.1131
15733SOL    HW149831   2.283   9.714   0.518 -0.4512  2.6798 -0.4942
15733SOL    HW249832   2.213   9.673   0.391 -0.8744  1.4781  0.1161
15734SOL     OW49833   7.207   7.125   6.657  0.3397 -0.1501  0.0834
15734SOL    HW149834   7.273   7.149   6.722  0.2603 -0.5016  0.2933
15734SOL    HW249835   7.129   7.175   6.681  0.0872 -0.8186  0.6855
15735SOL     OW49836   6.274   0.330   1.643  0.3082 -0.2446 -0.1898
15735SOL    HW149837   6.338   0.372   1.700  0.6510 -0.0001 -0.7425
15735SOL    HW249838   6.325   0.268   1.591  0.1015 -0.0563 -0.6247
15736SOL     OW49839   3.836   1.495   8.598  0.4844  0.3219 -0.3748
15736SOL    HW149840   3.869   1.478   8.686  0.6083  1.4219 -0.1953
15736SOL    HW249841   3.882   1.574   8.570 -2.1761  2.1392  0.0060
15737SOL     OW49842   9.011   7.057  10.028  0.2650 -0.3222  0.2033
15737SOL    HW149843   8.928   7.021  10.059 -0.3649  1.9400  1.3684
15737SOL    HW249844   9.069   6.981  10.020 -1.5055 -1.7846  0.6438
15738SOL     OW49845   5.583   9.731   7.162  0.5119  0.5207 -0.4460
15738SOL    HW149846   5.612   9.797   7.225 -2.2159  0.1927  1.3047
15738SOL    HW249847   5.609   9.648   7.201  1.9474  0.3940 -1.5666
15739SOL     OW49848   2.682   3.488   3.474  0.0100  0.2483 -0.1536
15739SOL    HW149849   2.765   3.536   3.467 -0.7996  2.3203  2.8458
15739SOL    HW249850   2.709   3.397   3.485  1.7246  0.4107 -2.2215
15740SOL     OW49851   0.805   8.270   8.590  0.4167  0.0427 -0.1420
15740SOL    HW149852   0.892   8.307   8.604  2.2168 -2.8082 -2.6148
15740SOL    HW249853   0.818   8.176   8.601 -2.5582 -0.4155  0.1194
15741SOL     OW49854   0.839   9.907   8.544 -0.6906 -0.5689  0.1543
15741SOL    HW149855   0.859   9.885   8.635 -1.0464  1.2044  0.6883
15741SOL    HW249856   0.924   9.928   8.505 -0.4285 -2.1322 -0.1882
15742SOL     OW49857   4.438   6.119   7.010 -0.3552  0.4181 -0.0939
15742SOL    HW149858   4.356   6.134   6.963  1.0613 -0.3391 -3.0373
15742SOL    HW249859   4.498   6.185   6.976  0.3378  0.8896  1.9357
15743SOL     OW49860   2.418   3.474   2.859  0.3552 -0.2773  0.3739
15743SOL    HW149861   2.444   3.519   2.940 -0.6027  2.2956 -0.6470
15743SOL    HW249862   2.322   3.483   2.857  0.4317  0.4802 -1.4415
15744SOL     OW49863   1.097   2.416   3.701 -0.1259 -0.0581 -0.1082
15744SOL    HW149864   1.095   2.329   3.664  0.7719  0.3658 -1.2079
15744SOL    HW249865   1.036   2.467   3.647  0.9107  0.4727 -0.8090
15745SOL     OW49866   6.488   3.172   6.858 -0.1708 -0.0606 -0.3942
15745SOL    HW149867   6.570   3.178   6.810 -0.5005  0.6001 -0.8715
15745SOL    HW249868   6.430   3.235   6.817 -0.5889  0.2343  0.6126
15746SOL     OW49869   0.037   6.178  10.229 -0.3867 -0.4299 -0.2889
15746SOL    HW149870   0.011   6.245  10.166 -0.0399  0.6644  0.6830
15746SOL    HW249871   0.031   6.222  10.314 -0.1951 -1.6591  0.3879
15747SOL     OW49872   8.012   4.535  10.027 -0.2394 -0.0797  0.0253
15747SOL    HW149873   8.091   4.578   9.994  0.3068 -0.8718  0.2717
15747SOL    HW249874   7.994   4.466   9.964 -0.3797 -0.2939  0.2988
15748SOL     OW49875   1.136   9.477   6.426  0.2346  0.3524  0.0630
15748SOL    HW149876   1.126   9.501   6.518 -1.7148  0.3202 -0.0870
15748SOL    HW249877   1.130   9.560   6.378 -0.4647  0.2057 -0.1160
15749SOL     OW49878   6.445   9.307   7.756 -0.1281 -0.3862 -0.0441
15749SOL    HW149879   6.520   9.272   7.708 -0.8857  0.2941 -1.7796
15749SOL    HW249880   6.453   9.402   7.748 -0.9177 -0.2956  0.1844
15750SOL     OW49881   6.238   2.307   1.245 -0.2164  0.2785  0.8214
15750SOL    HW149882   6.180   2.360   1.300  0.2276  0.4855  1.0930
15750SOL    HW249883   6.326   2.337   1.266 -0.0715  1.0327 -0.6738
15751SOL     OW49884   6.380   3.296   3.349 -0.1249 -0.2363  0.3365
15751SOL    HW149885   6.310   3.232   3.336 -0.6891  0.3991  0.1553
15751SOL    HW249886   6.407   3.321   3.261  0.2797 -0.4165  0.4068
15752SOL     OW49887   2.559   2.785   3.291  0.1831  0.4904 -0.0226
15752SOL    HW149888   2.583   2.779   3.383  1.1245  2.6391 -0.0851
15752SOL    HW249889   2.624   2.731   3.246  0.3788  0.3083  0.4730
15753SOL     OW49890   3.895   2.708   0.250 -0.0676  0.2273 -0.4919
15753SOL    HW149891   3.866   2.630   0.297  0.3745  0.2803 -0.1195
15753SOL    HW249892   3.881   2.687   0.158 -1.4462  0.3214 -0.3288
15754SOL     OW49893   0.238   0.177   8.286  0.4845  0.1268 -0.6074
15754SOL    HW149894   0.262   0.122   8.361  2.6028 -0.0784 -1.3595
15754SOL    HW249895   0.314   0.172   8.228  0.0258  2.4744 -1.5035
15755SOL     OW49896   1.130   9.340   6.084  0.1007  0.3660 -0.3737
15755SOL    HW149897   1.100   9.422   6.125  0.5117  1.2716 -1.7811
15755SOL    HW249898   1.177   9.294   6.153 -0.1853  1.2939  0.4722
15756SOL     OW49899   4.321   0.008   4.286 -0.2187 -0.1467  0.2467
15756SOL    HW149900   4.388  -0.061   4.295  1.2487  0.7088 -2.8741
15756SOL    HW249901   4.371   0.090   4.285 -1.6497  0.7676  0.7880
15757SOL     OW49902   3.434  10.094   8.261  0.0911  0.6895 -0.1520
15757SOL    HW149903   3.412  10.062   8.348 -1.8755  0.4840 -0.6826
15757SOL    HW249904   3.418  10.188   8.264  0.8282  0.8190 -0.0735
15758SOL     OW49905   0.604   7.858  10.230  0.1593 -0.3574  0.5330
15758SOL    HW149906   0.558   7.942  10.221  0.4050 -0.2526  0.2559
15758SOL    HW249907   0.555   7.812  10.299 -1.7547 -1.1935 -1.2878
15759SOL     OW49908   6.767   9.449   0.515  0.0606 -0.3465 -0.5790
15759SOL    HW149909   6.680   9.468   0.479 -0.2543 -0.6363  0.0096
15759SOL    HW249910   6.807   9.535   0.526 -0.8565 -0.0630  0.8416
15760SOL     OW49911   7.379   1.781  10.120  0.3650 -0.3717 -0.3681
15760SOL    HW149912   7.352   1.872  10.115 -1.5743 -0.6870  2.4711
15760SOL    HW249913   7.376   1.750  10.029 -4.2833  1.0119 -0.9121
15761SOL     OW49914   7.309   5.267   4.503 -0.5219 -0.5927  1.1921
15761SOL    HW149915   7.281   5.358   4.514 -0.5252 -0.4167 -0.1346
15761SOL    HW249916   7.229   5.216   4.517 -0.9015 -0.2738  0.2764
15762SOL     OW49917   8.254   9.039   8.348  0.1146 -0.3341  0.4923
15762SOL    HW149918   8.180   9.066   8.293 -0.2612  0.6440  1.4386
15762SOL    HW249919   8.321   9.009   8.286  0.4107  2.4147 -0.6544
15763SOL     OW49920   9.724  10.187   8.206  0.0963 -0.3610  0.5629
15763SOL    HW149921   9.695  10.247   8.275 -0.6141  0.1645 -0.1899
15763SOL    HW249922   9.800  10.230   8.167  0.7207 -0.8269  1.2384
15764SOL     OW49923   1.150   5.551   1.212 -1.3322 -0.3687  0.2709
15764SOL    HW149924   1.124   5.475   1.159 -1.8113 -1.2905  1.7488
15764SOL    HW249925   1.071   5.605   1.217 -1.2461 -0.2137 -0.0792
15765SOL     OW49926   2.356   5.904   4.095 -0.2176  0.0801 -0.1211
15765SOL    HW149927   2.283   5.964   4.104 -0.2413  0.1701 -0.8628
15765SOL    HW249928   2.358   5.856   4.178  1.4660  2.8931  1.6233
15766SOL     OW49929   3.188   9.551   7.480  0.3125  0.0850  0.0695
15766SOL    HW149930   3.206   9.600   7.400 -1.2588 -0.7020 -0.8180
15766SOL    HW249931   3.124   9.603   7.527  1.6570  0.8263  1.1338
15767SOL     OW49932   6.201   7.755   0.697 -0.0028  0.4857  0.1265
15767SOL    HW149933   6.267   7.735   0.763 -1.0132 -0.1160  0.9847
15767SOL    HW249934   6.119   7.761   0.746 -0.4455  2.2617 -0.7701
15768SOL     OW49935   2.145   2.570   0.590  0.3355 -0.6338 -0.1017
15768SOL    HW149936   2.179   2.614   0.512 -0.9577 -1.0401 -0.9161
15768SOL    HW249937   2.053   2.553   0.570  0.3931 -2.2044  0.8647
15769SOL     OW49938  10.190   8.683   2.618 -0.3933  0.0194 -0.0578
15769SOL    HW149939  10.115   8.719   2.571 -1.7207  1.4831  2.9437
15769SOL    HW249940  10.152   8.633   2.690  1.4910  0.7340  1.5116
15770SOL     OW49941   3.654   8.229   6.035  0.5357 -0.0219  0.0781
15770SOL    HW149942   3.614   8.142   6.046  0.8426 -0.1368  0.2797
15770SOL    HW249943   3.629   8.277   6.113 -0.6796  0.4874 -0.5973
15771SOL     OW49944   1.299   0.272   6.119  0.2305  0.1191  0.0911
15771SOL    HW149945   1.324   0.244   6.207  0.3543 -2.9090 -0.7840
15771SOL    HW249946   1.214   0.231   6.104  0.3196  0.3907 -1.2818
15772SOL     OW49947   3.595   4.649   3.242 -0.4071  0.1893  0.3238
15772SOL    HW149948   3.567   4.726   3.290 -1.9379 -0.0559 -0.1010
15772SOL    HW249949   3.639   4.594   3.307 -2.0822  0.0349  1.3995
15773SOL     OW49950   8.467   2.578   2.867 -0.1557 -0.3993 -0.0826
15773SOL    HW149951   8.551   2.545   2.899 -0.4233 -0.7760  0.2352
15773SOL    HW249952   8.402   2.544   2.929 -0.5133  0.1204 -0.1674
15774SOL     OW49953  10.153   3.435   5.368  0.0595  0.3069  0.0318
15774SOL    HW149954  10.066   3.448   5.405 -0.2620 -0.3308 -0.4707
15774SOL    HW249955  10.212   3.482   5.426 -0.4881 -0.2409  1.0564
15775SOL     OW49956   8.129   8.792   9.978  0.0197  0.1855 -0.7555
15775SOL    HW149957   8.153   8.739  10.054 -0.4618 -0.1080 -0.8019
15775SOL    HW249958   8.160   8.880   9.999 -1.4049  0.4475  0.4530
15776SOL     OW49959   8.438   1.751   2.569  0.1468  0.0657  0.2224
15776SOL    HW149960   8.460   1.841   2.593  1.1409  0.5905 -2.3230
15776SOL    HW249961   8.355   1.759   2.523  2.1607  0.4807 -3.7622
15777SOL     OW49962   4.088   9.282   4.265 -0.0081 -0.0426  0.0860
15777SOL    HW149963   4.172   9.302   4.225 -1.1162 -0.2536 -2.6096
15777SOL    HW249964   4.080   9.187   4.258 -1.5215  0.1670 -2.2697
15778SOL     OW49965   2.272   0.344   3.146 -0.3976  0.1487  0.4404
15778SOL    HW149966   2.320   0.371   3.068 -0.8653 -2.3921 -0.8214
15778SOL    HW249967   2.183   0.327   3.116 -0.8092 -0.0759  1.7089
15779SOL     OW49968   0.588  10.128   1.002  0.2918 -0.0303  0.8305
15779SOL    HW149969   0.583  10.051   0.946 -1.4292  0.4212  0.2794
15779SOL    HW249970   0.681  10.147   1.010  0.6404 -0.9542 -0.7186
15780SOL     OW49971   8.659   9.974   8.200 -0.4775  0.0626  0.4875
15780SOL    HW149972   8.584  10.026   8.227  0.9842  0.9327  3.2853
15780SOL    HW249973   8.733  10.035   8.202  0.6355 -1.1966 -0.2550
15781SOL     OW49974   1.416   4.202   2.037  0.4509 -0.6004  0.4364
15781SOL    HW149975   1.361   4.251   1.976 -1.2558 -1.8320  0.9152
15781SOL    HW249976   1.466   4.269   2.084 -1.8961  0.7327  1.1768
15782SOL     OW49977   2.964   0.560   3.565 -0.0570  0.5706 -0.4979
15782SOL    HW149978   2.872   0.560   3.591  0.2157  1.6940  0.5756
15782SOL    HW249979   2.962   0.563   3.469 -1.1343  1.1087 -0.4722
15783SOL     OW49980   8.193   2.606   4.084  0.0978 -0.0740  0.4184
15783SOL    HW149981   8.114   2.661   4.089 -0.3927 -0.7262 -0.0037
15783SOL    HW249982   8.219   2.610   3.992 -0.3944 -1.1554  0.2175
15784SOL     OW49983   2.857   5.857   9.261 -0.2885  0.7098  0.2127
15784SOL    HW149984   2.895   5.926   9.207 -1.2531  2.0024  1.1273
15784SOL    HW249985   2.777   5.832   9.215  0.6148 -0.6492 -0.7063
15785SOL     OW49986   9.248   4.255   5.233 -0.2596 -0.1230 -0.5118
15785SOL    HW149987   9.273   4.271   5.142 -1.2233  1.4249 -0.5330
15785SOL    HW249988   9.321   4.291   5.284 -1.0278  1.7014 -0.6373
15786SOL     OW49989   1.886   7.127   8.321 -0.4483 -0.0358  0.3922
15786SOL    HW149990   1.799   7.167   8.320 -0.0787  0.7886  0.5140
15786SOL    HW249991   1.875   7.045   8.370 -0.9534  0.5458  1.2744
15787SOL     OW49992   9.060   6.053   4.576 -0.3539 -0.1543 -0.4773
15787SOL    HW149993   9.014   6.069   4.658 -0.0697 -0.6098 -0.2279
15787SOL    HW249994   9.132   6.115   4.576  1.3818 -2.0352  0.9787
15788SOL     OW49995   8.201   0.413   0.916 -0.6019 -0.4829  0.2044
15788SOL    HW149996   8.240   0.362   0.987 -0.6229 -2.2714 -1.0247
15788SOL    HW249997   8.275   0.456   0.873 -0.5057 -0.0786  0.7603
15789SOL     OW49998   8.849   5.397   1.499  0.2748  0.0518 -0.3764
15789SOL    HW149999   8.766   5.444   1.494  1.4401  2.7354  2.3796
15789SOL    HW250000   8.856   5.370   1.591  1.8400 -1.3402 -0.8482
15790SOL     OW50001   8.749   2.300   0.053  0.0693 -0.8003 -0.5523
15790SOL    HW150002   8.785   2.223   0.097 -0.4993 -0.8957 -0.2572
15790SOL    HW250003   8.781   2.374   0.104 -0.6166 -0.9119  0.0459
15791SOL     OW50004   8.022   4.348   9.809 -0.5134  0.2775  0.5282
15791SOL    HW150005   8.076   4.300   9.746 -0.5441  0.7080  0.1674
15791SOL    HW250006   7.935   4.308   9.803 -0.4509  0.1461  0.4925
15792SOL     OW50007   0.460   5.596   9.322 -0.2312  0.0676 -0.1641
15792SOL    HW150008   0.384   5.615   9.376 -0.1384  0.1927 -0.0741
15792SOL    HW250009   0.477   5.503   9.334  0.4297  0.2995  0.8684
15793SOL     OW50010   3.338   0.895   5.591  0.6957 -0.0510 -0.3867
15793SOL    HW150011   3.347   0.964   5.525 -0.6704  0.1058 -0.4380
15793SOL    HW250012   3.325   0.943   5.673 -0.3148 -0.2305 -0.4303
15794SOL     OW50013   1.376   2.963   7.023  0.4354  0.3995 -0.5106
15794SOL    HW150014   1.360   2.928   6.935 -0.6154  0.5249 -0.3926
15794SOL    HW250015   1.450   3.023   7.012  0.5518  0.1370 -1.2362
15795SOL     OW50016   7.895   6.526   8.618 -0.8839 -0.1801  0.4403
15795SOL    HW150017   7.872   6.438   8.647  0.0454 -0.8581 -0.7842
15795SOL    HW250018   7.840   6.540   8.540  0.8208 -0.7502 -0.9150
15796SOL     OW50019   4.248   0.111   9.978 -0.0945  0.2464  0.8359
15796SOL    HW150020   4.195   0.170   9.925 -0.0291 -0.6398 -0.2589
15796SOL    HW250021   4.219   0.127  10.068 -1.7568  0.2609  0.3397
15797SOL     OW50022   9.890   8.925   3.059  0.4829 -0.0931  0.2139
15797SOL    HW150023   9.901   9.019   3.074 -0.6790  0.2867 -1.0274
15797SOL    HW250024   9.934   8.909   2.975  2.0448 -1.0129  1.1457
15798SOL     OW50025  10.248   7.195   5.841 -0.1235 -0.0238 -0.7752
15798SOL    HW150026  10.158   7.223   5.827  0.4412  1.6766 -1.2952
15798SOL    HW250027  10.272   7.149   5.761 -0.0947  0.7827 -1.2406
15799SOL     OW50028   0.520   9.692   7.070 -0.0519 -0.1005 -0.2336
15799SOL    HW150029   0.541   9.608   7.029 -2.1717 -0.1708 -1.2969
15799SOL    HW250030   0.427   9.686   7.092  0.0009  1.5937  0.6362
15800SOL     OW50031  10.228   1.632   3.735  0.4262  0.6845 -0.3764
15800SOL    HW150032  10.294   1.646   3.668  0.0414  2.5204 -0.4312
15800SOL    HW250033  10.158   1.694   3.713 -2.4358 -2.6336 -1.6447
15801SOL     OW50034   0.948   7.851   1.427  0.1089  0.6740  0.1061
15801SOL    HW150035   0.909   7.879   1.510 -0.2467  1.0344 -0.1769
15801SOL    HW250036   0.892   7.890   1.360  0.1618  0.0622 -0.3040
15802SOL     OW50037   5.658   8.261  10.195 -0.5451  0.3751  0.3534
15802SOL    HW150038   5.736   8.213  10.223 -0.0946  1.3092  0.7428
15802SOL    HW250039   5.589   8.231  10.254 -0.0659  0.8277  1.1628
15803SOL     OW50040   4.285   4.512   2.316 -0.1848 -0.1191 -0.6177
15803SOL    HW150041   4.276   4.490   2.408 -2.9576  0.8168 -0.5778
15803SOL    HW250042   4.252   4.601   2.309  2.4376  0.8533 -2.1626
15804SOL     OW50043   8.421   2.456   7.083  0.7660 -0.3146  0.2070
15804SOL    HW150044   8.416   2.476   6.990  0.5248  2.1455  0.6882
15804SOL    HW250045   8.419   2.541   7.127 -0.8572 -1.4440  2.5654
15805SOL     OW50046   3.682   3.109   0.442  0.3618 -0.1582 -0.6275
15805SOL    HW150047   3.768   3.091   0.479  1.3863  1.6784 -1.9532
15805SOL    HW250048   3.653   3.024   0.408  0.9569 -1.1131  1.1222
15806SOL     OW50049   9.760   6.163   3.376  0.2422 -0.2948  0.2310
15806SOL    HW150050   9.767   6.187   3.468  1.8024  1.2511 -0.2380
15806SOL    HW250051   9.666   6.167   3.357 -0.0705 -0.3941  1.6654
15807SOL     OW50052   6.668   8.406   8.168  0.5165 -0.0144 -0.0154
15807SOL    HW150053   6.644   8.479   8.226 -1.0811 -0.0456 -0.5664
15807SOL    HW250054   6.624   8.330   8.207 -1.6192  0.1844 -1.8458
15808SOL     OW50055   0.886   5.209   0.184  0.1366  0.2218 -0.5929
15808SOL    HW150056   0.930   5.146   0.241  0.9919  0.0862 -1.3865
15808SOL    HW250057   0.807   5.233   0.232  0.8981  0.2112  0.7224
15809SOL     OW50058   1.000   5.307   8.528  0.1799 -0.0963 -0.3890
15809SOL    HW150059   0.985   5.340   8.617 -0.3600  1.3077 -0.9653
15809SOL    HW250060   1.085   5.264   8.532  0.1696 -0.0388  0.8003
15810SOL     OW50061   0.712   9.665   0.547  0.0020 -0.2786  0.1750
15810SOL    HW150062   0.710   9.709   0.462  1.8973  3.0757  1.6999
15810SOL    HW250063   0.782   9.600   0.539 -0.1804 -0.3597 -0.9327
15811SOL     OW50064   1.871   5.781   4.906 -0.3093 -0.2380 -0.2478
15811SOL    HW150065   1.782   5.804   4.933 -0.0580 -0.1773  0.5459
15811SOL    HW250066   1.912   5.744   4.984  1.3461  2.5294  0.3348
15812SOL     OW50067   3.335   8.067   9.930 -0.0551 -0.5756 -0.1596
15812SOL    HW150068   3.281   8.068  10.009  0.1837 -0.7883  0.0090
15812SOL    HW250069   3.273   8.055   9.858 -0.2923 -0.1954 -0.0191
15813SOL     OW50070   8.614   1.239   4.363 -0.0516  0.5927  0.2042
15813SOL    HW150071   8.579   1.322   4.394 -0.2928  0.4400  0.3433
15813SOL    HW250072   8.537   1.190   4.333  0.1646  0.7147 -0.5844
15814SOL     OW50073   0.037   3.423   4.949  0.5022 -0.0981  0.7125
15814SOL    HW150074  -0.020   3.348   4.930  0.8555 -0.3421  0.5904
15814SOL    HW250075  -0.012   3.499   4.919  1.2384 -0.4865 -1.6892
15815SOL     OW50076   4.587   6.044   6.281 -0.3994 -0.2282  0.3293
15815SOL    HW150077   4.607   6.031   6.188 -1.5971  0.5826 -0.0634
15815SOL    HW250078   4.612   5.962   6.322  1.3760 -0.1553 -0.4773
15816SOL     OW50079   4.263   7.360   8.784 -0.0578  0.4946 -0.2130
15816SOL    HW150080   4.237   7.417   8.712 -0.6553  0.6197  0.0900
15816SOL    HW250081   4.311   7.289   8.742  1.1917  1.4943 -0.5409
15817SOL     OW50082   2.555   3.608   6.898 -0.2789  0.3339 -0.0137
15817SOL    HW150083   2.484   3.633   6.957 -0.3791  0.9053 -0.3715
15817SOL    HW250084   2.562   3.681   6.837  0.3577  0.1038 -0.2196
15818SOL     OW50085   9.687   5.330   9.426  0.1873  0.3345  0.4370
15818SOL    HW150086   9.635   5.276   9.486  1.1351 -1.5783 -0.3706
15818SOL    HW250087   9.731   5.393   9.483 -0.4416 -0.1655  1.5128
15819SOL     OW50088   9.345   3.730   1.262  0.1038 -0.3404  0.5547
15819SOL    HW150089   9.402   3.745   1.187 -1.0369 -1.8524 -0.6937
15819SOL    HW250090   9.405   3.717   1.336  1.2922  0.0404 -0.3091
15820SOL     OW50091   3.714   5.336   8.115 -0.1874 -0.4590 -0.4655
15820SOL    HW150092   3.657   5.377   8.049 -0.1407  1.9198  0.8504
15820SOL    HW250093   3.732   5.406   8.177  1.7427 -1.9746  0.7936
15821SOL     OW50094   3.353   5.965   7.531  0.3438 -1.0723 -0.3688
15821SOL    HW150095   3.299   6.042   7.550  0.8499 -0.5264 -1.0813
15821SOL    HW250096   3.368   5.970   7.436  0.0162 -2.2945 -0.4992
15822SOL     OW50097  10.340   5.557   8.356 -0.1935 -0.3758  0.2508
15822SOL    HW150098  10.290   5.621   8.405  0.0710  2.1300 -2.4524
15822SOL    HW250099  10.411   5.531   8.415  0.5215  2.9433  1.0582
15823SOL     OW50100   4.814   0.388   7.289 -0.1451  0.7654  0.0263
15823SOL    HW150101   4.783   0.453   7.352 -0.9486  0.5835 -0.1708
15823SOL    HW250102   4.738   0.370   7.233  0.4137  0.5602 -0.6874
15824SOL     OW50103   8.435   0.618   8.559 -0.0553 -0.1725  0.1727
15824SOL    HW150104   8.375   0.645   8.629 -0.7315 -0.1896 -0.3883
15824SOL    HW250105   8.516   0.596   8.605  0.3714  2.2288  0.7293
15825SOL     OW50106  10.259  10.197   0.678  0.3608 -0.4809  0.0447
15825SOL    HW150107  10.276  10.249   0.756 -2.8275 -0.8145  1.1400
15825SOL    HW250108  10.223  10.260   0.615 -1.0328 -0.8263  0.4406
15826SOL     OW50109   5.665   6.641   3.494 -0.2309 -0.5174 -0.2555
15826SOL    HW150110   5.708   6.658   3.410 -0.6076 -0.5845 -0.4650
15826SOL    HW250111   5.644   6.548   3.493 -0.8688 -0.3800 -0.3931
15827SOL     OW50112   8.606   8.861   0.003 -0.2044 -0.3430 -0.3447
15827SOL    HW150113   8.603   8.796  -0.067  0.2804 -1.1292  0.3519
15827SOL    HW250114   8.682   8.915  -0.017 -1.4182  0.9650 -1.7208
15828SOL     OW50115   7.745   8.491   9.515 -0.6828 -0.0023  0.1732
15828SOL    HW150116   7.773   8.579   9.492  1.1558 -0.8883 -1.3354
15828SOL    HW250117   7.665   8.503   9.566  0.4120  2.5903  1.4785
15829SOL     OW50118   4.811   9.085   9.025 -0.2958 -0.0077 -0.4734
15829SOL    HW150119   4.718   9.073   9.004 -1.2459  0.2021  2.8898
15829SOL    HW250120   4.831   9.013   9.085  1.2236  0.8946  0.1562
15830SOL     OW50121   5.962   8.755   8.769  0.3614 -0.2268  0.7304
15830SOL    HW150122   6.019   8.822   8.806  2.1651 -1.1317 -0.2776
15830SOL    HW250123   5.892   8.745   8.834  0.6056  1.8421  1.3978
15831SOL     OW50124   7.872   4.593   4.607  0.9837  0.0561 -0.1137
15831SOL    HW150125   7.824   4.669   4.576  1.7797 -0.0532 -1.7162
15831SOL    HW250126   7.824   4.518   4.570  1.2667 -0.1311 -0.1070
15832SOL     OW50127   0.631   1.394   6.928 -0.3072  0.2372 -0.1493
15832SOL    HW150128   0.575   1.448   6.983 -1.8939  2.4250 -3.5913
15832SOL    HW250129   0.575   1.320   6.903  1.2221 -2.1975  2.9276
15833SOL     OW50130   1.020   7.670   6.167 -0.0389 -0.5553  0.0478
15833SOL    HW150131   1.108   7.635   6.183 -0.1393  0.2471  2.7275
15833SOL    HW250132   0.968   7.593   6.140  0.9941 -1.4175  0.4422
15834SOL     OW50133   1.387   4.414   1.830  0.5181  0.2098 -0.0673
15834SOL    HW150134   1.440   4.353   1.779 -0.4689 -0.2056 -0.6049
15834SOL    HW250135   1.383   4.493   1.776 -0.5057 -0.2213 -0.6365
15835SOL     OW50136   7.934   7.293   5.113  0.1635 -0.4908  0.2158
15835SOL    HW150137   7.917   7.204   5.144  0.6979 -0.4707  0.5773
15835SOL    HW250138   7.970   7.338   5.189  2.4730 -0.7256 -0.6776
15836SOL     OW50139   0.398   9.033   8.628 -0.2457 -0.1720  0.5969
15836SOL    HW150140   0.477   9.029   8.574 -0.4669 -1.2979  0.3331
15836SOL    HW250141   0.416   9.104   8.690  0.9599 -0.3863  0.5285
15837SOL     OW50142   0.075   8.022   0.040 -0.4654  0.4909  0.1785
15837SOL    HW150143   0.170   8.028   0.052 -0.3575 -1.2017  0.4008
15837SOL    HW250144   0.038   8.068   0.116  0.1644  0.6334  0.4069
15838SOL     OW50145   7.463   9.325   0.842 -0.3417 -0.0047 -0.2833
15838SOL    HW150146   7.419   9.252   0.798 -0.9632  0.0387  0.2614
15838SOL    HW250147   7.556   9.313   0.821 -0.3743 -1.2385  0.2037
15839SOL     OW50148   0.859   1.463   9.322  0.2499 -0.2241 -0.4643
15839SOL    HW150149   0.797   1.403   9.281 -0.2508  1.2403 -1.9354
15839SOL    HW250150   0.817   1.549   9.317  1.0301  0.3306  1.4176
15840SOL     OW50151   0.368   6.426   4.366 -0.1663 -0.4893  0.1698
15840SOL    HW150152   0.381   6.460   4.278  0.0881  0.9205  0.7314
15840SOL    HW250153   0.430   6.354   4.373 -1.0605 -1.4425 -1.2128
15841SOL     OW50154   7.321   9.377   4.788 -0.3670  0.5124  0.1510
15841SOL    HW150155   7.276   9.298   4.816  0.5657 -0.7044 -1.5908
15841SOL    HW250156   7.254   9.428   4.742 -0.4481 -0.3737 -0.7371
15842SOL     OW50157   6.445   1.838   8.748  0.4721 -0.6114  0.5178
15842SOL    HW150158   6.494   1.841   8.830  0.0325  1.0810  0.7631
15842SOL    HW250159   6.361   1.799   8.771  1.1100 -2.1422  0.3940
15843SOL     OW50160   8.857   7.331   2.844 -0.4778  0.0616  0.3175
15843SOL    HW150161   8.944   7.341   2.805 -0.1722  0.0261  0.9698
15843SOL    HW250162   8.798   7.323   2.770 -0.2068  2.2869 -0.1895
15844SOL     OW50163  10.005   7.501   5.946  0.0682  0.0613  0.1538
15844SOL    HW150164   9.912   7.506   5.923 -0.0722  1.3254  0.9301
15844SOL    HW250165  10.037   7.424   5.899 -0.9242  0.7148 -1.7155
15845SOL     OW50166   8.417   3.923   9.635  0.2065  0.6247 -0.4980
15845SOL    HW150167   8.400   3.898   9.726  0.7357 -2.3556 -1.1049
15845SOL    HW250168   8.510   3.942   9.632  0.9189 -2.3231 -0.8752
15846SOL     OW50169   4.782   7.852   2.459 -0.2447 -0.4443 -0.0677
15846SOL    HW150170   4.764   7.945   2.473 -0.9049 -0.3531 -1.3860
15846SOL    HW250171   4.709   7.807   2.503 -0.1053 -0.3317  0.2816
15847SOL     OW50172   3.921   3.861   8.337 -0.0560 -0.7251  0.4035
15847SOL    HW150173   3.943   3.895   8.250  0.7249  1.3880  1.3500
15847SOL    HW250174   3.828   3.881   8.348 -0.3099 -1.5468 -0.1479
15848SOL     OW50175   5.189   8.900   4.696 -0.1795 -0.6567  0.2623
15848SOL    HW150176   5.284   8.914   4.700 -0.4316  2.2447 -1.4303
15848SOL    HW250177   5.164   8.884   4.787  1.5817  1.6649  1.2550
15849SOL     OW50178   5.327   7.808   8.080  0.0845 -0.0012 -0.5506
15849SOL    HW150179   5.369   7.889   8.052 -0.4526  0.5068  0.0850
15849SOL    HW250180   5.355   7.797   8.171  2.5075 -2.0739 -1.4017
15850SOL     OW50181   0.712   3.436   0.014  0.2494  0.6343 -0.4514
15850SOL    HW150182   0.652   3.446  -0.060  1.6173  2.3511 -1.4210
15850SOL    HW250183   0.697   3.513   0.068  1.3501  0.9628 -0.5772
15851SOL     OW50184   3.763   9.709   9.749 -0.2614 -0.5446 -0.0298
15851SOL    HW150185   3.771   9.615   9.736 -0.4890 -0.6212  0.3586
15851SOL    HW250186   3.848   9.737   9.782 -0.4980 -0.7780  0.7914
15852SOL     OW50187   4.729   4.422   5.423 -0.0376  0.2545  0.0226
15852SOL    HW150188   4.646   4.470   5.422  0.3014  1.0431  2.5173
15852SOL    HW250189   4.721   4.361   5.496  1.2619 -0.2431 -0.2182
15853SOL     OW50190   4.686   0.779   2.608 -0.0918  0.0653 -0.2444
15853SOL    HW150191   4.693   0.800   2.515 -1.2653  1.0169 -0.1538
15853SOL    HW250192   4.687   0.864   2.652  1.7500 -0.4150  0.7500
15854SOL     OW50193   6.944   6.642  10.274  0.0052  0.4912 -0.2896
15854SOL    HW150194   7.016   6.630  10.212  0.8617  0.3508  0.6924
15854SOL    HW250195   6.913   6.731  10.259  1.3754  1.0879  0.2466
15855SOL     OW50196  10.314   5.772   5.201  0.0018 -0.2670  0.0001
15855SOL    HW150197  10.261   5.801   5.127 -0.5769 -1.5848 -0.1478
15855SOL    HW250198  10.399   5.752   5.162 -0.0089 -0.0543 -0.1365
15856SOL     OW50199   6.511   7.663   5.563  0.0560  0.3060 -0.7270
15856SOL    HW150200   6.468   7.748   5.573 -1.0377 -0.3558  0.5426
15856SOL    HW250201   6.467   7.606   5.626  3.9845  0.0014  2.1114
15857SOL     OW50202   2.985   2.848   9.024 -0.2507  0.1615 -0.5059
15857SOL    HW150203   2.998   2.795   9.102  0.8528  0.6679 -0.3250
15857SOL    HW250204   2.920   2.913   9.049 -0.7451 -0.3845 -0.3682
15858SOL     OW50205   8.945   0.586   2.391  0.2608  0.3394 -0.1195
15858SOL    HW150206   8.968   0.544   2.308 -0.7334 -0.0810 -0.1899
15858SOL    HW250207   8.876   0.648   2.368  2.0603  2.4471 -0.1079
15859SOL     OW50208   5.461   5.669   6.353  0.5877 -0.2634  0.0934
15859SOL    HW150209   5.412   5.751   6.345 -0.7524 -1.0183  0.3144
15859SOL    HW250210   5.437   5.618   6.276 -0.3175 -1.3169  1.0351
15860SOL     OW50211   7.124   5.161   2.066  0.5014  0.3056  0.4667
15860SOL    HW150212   7.055   5.144   2.131  2.1273 -0.2436  2.1353
15860SOL    HW250213   7.179   5.082   2.069  0.4923  0.1663 -1.8040
15861SOL     OW50214   5.701  10.187   7.421  1.5779  0.0796  0.0622
15861SOL    HW150215   5.725  10.243   7.347 -0.4504  1.1864  0.1644
15861SOL    HW250216   5.640  10.240   7.473  0.9007 -1.6168  1.0997
15862SOL     OW50217   1.971   5.334   2.741  0.2104 -1.1414 -0.2478
15862SOL    HW150218   1.926   5.356   2.822 -0.0946 -2.1985 -0.1114
15862SOL    HW250219   1.919   5.263   2.703  0.4690 -0.8175 -1.2620
15863SOL     OW50220   1.269   1.604   3.414 -0.1352 -0.3921 -0.0597
15863SOL    HW150221   1.353   1.577   3.450 -0.5963 -0.8987  0.6567
15863SOL    HW250222   1.220   1.635   3.490 -1.3902 -2.1476 -0.1043
15864SOL     OW50223   6.656   4.838   9.595 -0.2698  0.2181  0.3955
15864SOL    HW150224   6.607   4.757   9.610 -1.3882  0.5357 -1.3328
15864SOL    HW250225   6.621   4.900   9.659 -0.3883 -0.2431  0.7869
15865SOL     OW50226   8.681   8.511   0.512 -0.3831 -0.2434 -0.3017
15865SOL    HW150227   8.659   8.575   0.580 -0.3565  0.1531 -0.6662
15865SOL    HW250228   8.637   8.431   0.541  0.4143 -0.3438  0.6836
15866SOL     OW50229   7.687   2.478   9.172  0.3630 -0.1226 -0.3385
15866SOL    HW150230   7.593   2.465   9.182 -0.1165  2.9269  0.2206
15866SOL    HW250231   7.724   2.390   9.171 -2.3309 -1.3823  1.0832
15867SOL     OW50232   9.182   1.463   3.151  0.5383 -0.3665 -0.1119
15867SOL    HW150233   9.207   1.405   3.223 -1.3228 -1.1436 -0.0231
15867SOL    HW250234   9.260   1.514   3.133  0.9923  0.1051  2.7033
15868SOL     OW50235   2.825   2.941   0.630 -0.4623 -0.1807  0.5472
15868SOL    HW150236   2.886   3.004   0.593 -0.3961 -0.7658 -0.3687
15868SOL    HW250237   2.816   2.874   0.563 -1.9196 -0.2370  0.7585
15869SOL     OW50238   9.975   6.977   9.532  0.2417 -0.0301  0.4099
15869SOL    HW150239   9.956   6.960   9.440  1.5533 -0.6718  0.2282
15869SOL    HW250240  10.009   6.894   9.565  2.9933  1.0513  0.5706
15870SOL     OW50241   6.490   3.100   8.904  0.6702  0.1845 -0.0941
15870SOL    HW150242   6.558   3.062   8.849  0.3304 -0.6859  0.0690
15870SOL    HW250243   6.510   3.193   8.907  3.3608 -0.3521  2.0224
15871SOL     OW50244   2.619   8.389   4.622  0.2579 -0.0309 -0.1577
15871SOL    HW150245   2.662   8.336   4.555  0.0979  1.1572 -1.2552
15871SOL    HW250246   2.673   8.378   4.700  0.8341 -0.9248 -0.6612
15872SOL     OW50247   5.054   4.819   1.585  0.1093 -0.0083 -0.0111
15872SOL    HW150248   5.049   4.802   1.679  0.0261 -1.1132 -0.2097
15872SOL    HW250249   4.986   4.764   1.547 -1.6478  2.3312 -0.5048
15873SOL     OW50250   6.935   1.371   7.419  0.8607 -0.0516  0.1859
15873SOL    HW150251   6.906   1.280   7.417  0.3628  0.0674  1.1293
15873SOL    HW250252   6.964   1.389   7.330 -1.7197 -0.2889 -0.7919
15874SOL     OW50253   5.776   2.771   4.821  0.3457  0.1026 -0.4006
15874SOL    HW150254   5.712   2.767   4.892  0.9758  0.8118  0.2231
15874SOL    HW250255   5.725   2.791   4.743 -0.2955 -0.2228 -0.0680
15875SOL     OW50256   5.562   6.100   0.861  0.1104 -0.3147  0.2801
15875SOL    HW150257   5.567   6.016   0.907 -0.7306 -0.6988 -0.3140
15875SOL    HW250258   5.508   6.155   0.917  0.2378 -0.3365  0.4242
15876SOL     OW50259   4.736   4.778   5.537 -0.0466 -0.0385 -0.6010
15876SOL    HW150260   4.793   4.750   5.466  0.3732  0.4391 -0.4592
15876SOL    HW250261   4.761   4.869   5.554 -1.5959  0.5592 -1.2777
15877SOL     OW50262   3.778   7.534   7.193  0.2266 -0.2316 -0.4162
15877SOL    HW150263   3.713   7.597   7.225 -1.1765 -1.2739 -1.0828
15877SOL    HW250264   3.813   7.573   7.113  2.2019  1.4136  1.1580
15878SOL     OW50265   3.228   9.640   9.335  0.6862  0.1779 -0.1599
15878SOL    HW150266   3.278   9.592   9.402  1.3786 -0.0238 -0.8087
15878SOL    HW250267   3.161   9.687   9.385  1.7702  0.7718  0.7973
15879SOL     OW50268   9.012   3.525   6.600 -0.3077 -0.2089  0.1365
15879SOL    HW150269   9.101   3.496   6.621  0.2553  2.4857  2.0094
15879SOL    HW250270   8.957   3.484   6.667  0.4187  2.4159  2.5064
15880SOL     OW50271   8.182   1.258   9.964 -0.4516 -0.6829 -0.5966
15880SOL    HW150272   8.265   1.209   9.973 -0.2312 -0.2024  0.0728
15880SOL    HW250273   8.152   1.237   9.876  0.4854 -0.7113 -0.9268
15881SOL     OW50274   5.172   0.533   1.581 -0.3950 -0.6129 -0.4282
15881SOL    HW150275   5.257   0.491   1.578 -0.4046 -0.6877  0.3182
15881SOL    HW250276   5.149   0.546   1.489  0.7931  0.1688 -0.6430
15882SOL     OW50277   6.284   1.795   9.453  0.6826 -0.0714 -0.4347
15882SOL    HW150278   6.377   1.783   9.430  0.4288 -1.6898 -0.7143
15882SOL    HW250279   6.286   1.833   9.541  1.6119  1.6420 -1.1517
15883SOL     OW50280   3.215   4.638   1.519  0.1004  0.4036  0.2334
15883SOL    HW150281   3.179   4.677   1.439 -0.8576 -1.5212 -0.3369
15883SOL    HW250282   3.142   4.635   1.580  0.3607  0.2279  0.5366
15884SOL     OW50283   5.506   7.902  10.353 -0.1754  0.4282 -0.0314
15884SOL    HW150284   5.554   7.920  10.272  1.4082 -0.7715  0.5997
15884SOL    HW250285   5.418   7.879  10.323 -0.0626  1.5046 -1.3042
15885SOL     OW50286   3.975   1.142   1.565  0.1609 -0.3550 -0.1129
15885SOL    HW150287   4.034   1.092   1.507  2.7330  1.8609  0.3918
15885SOL    HW250288   3.920   1.193   1.506  0.3176 -0.7564 -0.6098
15886SOL     OW50289   5.081   0.927   0.435  0.5052 -0.4953 -0.2448
15886SOL    HW150290   5.147   0.886   0.379  0.8958  1.6620 -1.4634
15886SOL    HW250291   5.000   0.880   0.413  1.0858 -1.2444 -0.8776
15887SOL     OW50292  10.042   2.511   2.504  0.0185  0.1482 -0.4987
15887SOL    HW150293  10.133   2.538   2.510  0.4056 -0.6737 -2.0751
15887SOL    HW250294   9.993   2.593   2.502  0.7497  0.6071 -0.0294
15888SOL     OW50295   3.608   1.000   9.008 -0.2620 -0.0529 -0.1656
15888SOL    HW150296   3.600   0.967   8.918  1.5960  0.7296 -0.6694
15888SOL    HW250297   3.698   1.032   9.014  0.0019 -1.0500  2.3313
15889SOL     OW50298   4.216   6.697   8.885 -0.1317 -0.7158  0.0923
15889SOL    HW150299   4.138   6.684   8.830  0.4958 -0.8524 -0.7795
15889SOL    HW250300   4.283   6.642   8.844  0.6832  0.1150  0.3028
15890SOL     OW50301   9.022   0.728   6.867 -0.4353 -0.2943  0.9374
15890SOL    HW150302   9.007   0.644   6.911 -0.9339 -1.4594 -1.2908
15890SOL    HW250303   9.115   0.729   6.848 -0.1801  0.3079  2.1514
15891SOL     OW50304   8.577   8.448   7.451  0.1496 -0.5663 -0.3755
15891SOL    HW150305   8.521   8.489   7.385  0.7072  1.1555  0.1533
15891SOL    HW250306   8.555   8.356   7.448 -0.1577 -0.4721 -2.6620
15892SOL     OW50307   3.431   4.047   6.956 -0.2393 -0.2623  0.1352
15892SOL    HW150308   3.436   3.964   6.909 -1.2376  0.2378 -0.9113
15892SOL    HW250309   3.515   4.054   7.001  0.0125 -1.6476 -0.0652
15893SOL     OW50310   7.136   9.176   1.387  0.3296 -0.3604 -0.6507
15893SOL    HW150311   7.156   9.220   1.304 -0.3477 -1.8463 -1.6401
15893SOL    HW250312   7.154   9.084   1.370 -3.2298 -1.2330 -0.3321
15894SOL     OW50313   8.597   4.634   2.470  0.0570 -0.5700 -0.0344
15894SOL    HW150314   8.507   4.611   2.495  0.3244  0.1504  1.7504
15894SOL    HW250315   8.587   4.706   2.407 -0.6269 -1.2271 -0.6897
15895SOL     OW50316   7.261   2.645   9.658 -0.1101 -0.2087  0.3538
15895SOL    HW150317   7.355   2.649   9.641 -0.2262  0.2644 -0.2152
15895SOL    HW250318   7.222   2.624   9.574 -0.5762  0.5554  0.3697
15896SOL     OW50319   1.955   1.174   8.752  0.7924 -0.3468  0.4172
15896SOL    HW150320   2.002   1.149   8.672 -0.0919  1.4350 -0.7456
15896SOL    HW250321   1.886   1.233   8.721 -0.3295 -0.5354  2.3965
15897SOL     OW50322   2.555   2.724   2.767  0.5170 -0.4752 -0.0337
15897SOL    HW150323   2.532   2.632   2.781 -1.9545  0.0209 -0.4071
15897SOL    HW250324   2.533   2.741   2.676  0.0552  0.7147  0.2849
15898SOL     OW50325   1.179  10.140   1.320 -0.4028  0.1396 -0.0646
15898SOL    HW150326   1.252  10.169   1.374 -0.1809 -1.0829  0.3422
15898SOL    HW250327   1.201  10.167   1.231  0.3452  0.1476  0.1206
15899SOL     OW50328   1.030   0.828   6.723 -0.1636  0.4047  0.1424
15899SOL    HW150329   1.067   0.871   6.645 -1.1002 -0.7151 -0.9678
15899SOL    HW250330   0.978   0.896   6.766  0.5084  1.0864 -0.0961
15900SOL     OW50331  10.251   3.918   7.293 -1.0018 -0.3932 -0.1541
15900SOL    HW150332  10.250   3.993   7.234 -2.0929 -0.6419 -0.4770
15900SOL    HW250333  10.323   3.863   7.261 -0.3943  0.3569 -0.0994
15901SOL     OW50334   8.055   7.198   4.860 -0.2805  0.0844 -0.3313
15901SOL    HW150335   7.981   7.246   4.898 -0.8770 -1.1638  0.1448
15901SOL    HW250336   8.088   7.144   4.932  0.6587  0.0976 -0.7366
15902SOL     OW50337   5.993   4.375   3.770  0.0765  0.1427  0.3033
15902SOL    HW150338   5.985   4.282   3.751 -2.8523  0.0541  1.3733
15902SOL    HW250339   6.087   4.391   3.776  0.7507 -2.2208 -2.1254
15903SOL     OW50340   5.777   7.751   0.615 -0.5222  0.0245 -0.6707
15903SOL    HW150341   5.730   7.710   0.688 -1.3241  0.6909 -0.7947
15903SOL    HW250342   5.805   7.836   0.650  0.9650 -0.5018 -0.4725
15904SOL     OW50343   7.411   7.419   3.187  0.4878 -0.0447 -0.1118
15904SOL    HW150344   7.360   7.441   3.109 -1.5304 -0.5104  0.9952
15904SOL    HW250345   7.481   7.363   3.154  0.3552  0.6763 -1.7271
15905SOL     OW50346   5.303   9.204   8.314  0.1522 -0.0883  0.1101
15905SOL    HW150347   5.271   9.195   8.405 -0.1869 -2.3260 -0.1737
15905SOL    HW250348   5.398   9.201   8.322  0.1192 -0.6072  0.3791
15906SOL     OW50349   0.836   6.945   4.050  0.1050  0.2490 -0.2404
15906SOL    HW150350   0.886   7.001   3.990  0.2385  0.4982  0.0970
15906SOL    HW250351   0.766   6.908   3.996  0.4842  0.1224 -0.6502
15907SOL     OW50352   1.230   7.193   1.890 -0.0935  0.4218 -0.2401
15907SOL    HW150353   1.297   7.145   1.939  0.1722  1.8171  0.8300
15907SOL    HW250354   1.277   7.268   1.853 -0.2902 -0.5785 -2.7011
15908SOL     OW50355   5.712   3.751   9.060 -0.4945 -0.2593  0.4044
15908SOL    HW150356   5.689   3.773   8.970  0.2035 -2.0984 -0.2771
15908SOL    HW250357   5.718   3.655   9.061 -0.0808 -0.2690  2.3151
15909SOL     OW50358   0.012   2.052   6.639  0.5923  0.2598 -0.3494
15909SOL    HW150359  -0.048   2.122   6.665  0.2196 -0.4327  0.6638
15909SOL    HW250360  -0.036   2.001   6.575  0.0263 -0.3877  0.5780
15910SOL     OW50361   5.134   5.564   1.244  0.5429 -0.4575 -0.1668
15910SOL    HW150362   5.198   5.592   1.309 -0.2003  1.1839 -0.0922
15910SOL    HW250363   5.069   5.514   1.293 -1.2618  2.6726  0.9177
15911SOL     OW50364   0.839  10.181   7.717  0.2992  0.4151  0.4395
15911SOL    HW150365   0.823  10.119   7.646  0.1608 -0.7970  1.5063
15911SOL    HW250366   0.752  10.196   7.755  0.4660  0.5472  0.7680
15912SOL     OW50367   5.896  10.132   7.060 -0.2264 -0.0288 -0.1961
15912SOL    HW150368   5.901  10.067   7.129  0.4420 -0.9644 -1.0879
15912SOL    HW250369   5.987  10.156   7.043 -0.3573 -0.0627 -0.9791
15913SOL     OW50370  10.012   9.744   5.633  0.2604  0.7961  0.4632
15913SOL    HW150371  10.013   9.655   5.668 -0.7324 -0.0776 -1.5831
15913SOL    HW250372   9.944   9.788   5.685 -1.9322 -0.7651 -0.8896
15914SOL     OW50373   2.744   6.632   4.666 -0.0696 -0.5665  0.3424
15914SOL    HW150374   2.828   6.649   4.708 -0.1729 -0.6954  0.6015
15914SOL    HW250375   2.739   6.537   4.658  0.7677 -0.4980 -1.6355
15915SOL     OW50376  10.171   2.066   3.733 -0.2079 -0.3835  0.3025
15915SOL    HW150377  10.113   2.116   3.675 -0.3472 -1.4372 -0.4996
15915SOL    HW250378  10.259   2.090   3.705 -0.2638 -1.7648 -1.1823
15916SOL     OW50379   0.527   3.350   2.780  0.4183  0.5071  0.1429
15916SOL    HW150380   0.536   3.430   2.728 -1.7969  0.5349 -0.3262
15916SOL    HW250381   0.489   3.379   2.863  0.2960  0.0231  0.2599
15917SOL     OW50382   4.851   5.498   8.400  0.0650  0.7273 -0.0278
15917SOL    HW150383   4.832   5.495   8.494  0.1518 -0.2117 -0.0243
15917SOL    HW250384   4.797   5.428   8.363  1.7673 -0.4755 -0.3399
15918SOL     OW50385   5.352   0.942   5.066 -0.2898 -0.3473 -0.2185
15918SOL    HW150386   5.388   0.857   5.042  0.6439  0.1760 -0.7378
15918SOL    HW250387   5.417   1.005   5.035 -0.0302  0.4738  1.8621
15919SOL     OW50388   1.339   2.110   1.248 -0.1867 -0.5011  0.2274
15919SOL    HW150389   1.332   2.065   1.164  1.4724  1.1108 -0.8591
15919SOL    HW250390   1.317   2.044   1.313  1.9232 -2.8162 -1.2554
15920SOL     OW50391   7.409   1.063   1.566 -0.1793 -0.7300  0.3733
15920SOL    HW150392   7.491   1.067   1.615  1.0042 -1.3091 -1.4596
15920SOL    HW250393   7.427   1.110   1.485 -1.3245 -1.7507 -0.5163
15921SOL     OW50394   0.929   8.814   0.677 -0.3588  0.9589 -0.2798
15921SOL    HW150395   0.939   8.722   0.703  1.3593  1.6923  1.9610
15921SOL    HW250396   0.903   8.810   0.585 -0.4157 -1.7636 -0.2268
15922SOL     OW50397   4.347   9.131   3.845  0.2363  0.1292 -0.5426
15922SOL    HW150398   4.416   9.156   3.907  0.1594 -1.1397  0.0858
15922SOL    HW250399   4.348   9.036   3.846 -1.4116  0.0877 -0.6501
15923SOL     OW50400   8.400   2.868   2.729  0.6348  0.0599 -0.2292
15923SOL    HW150401   8.345   2.945   2.743  0.5357 -0.1585  0.6226
15923SOL    HW250402   8.471   2.878   2.793  1.1497 -0.0704 -0.7694
15924SOL     OW50403   8.619   1.565   4.229  0.0385  0.1273 -0.5445
15924SOL    HW150404   8.709   1.593   4.215  0.3095 -0.8376 -0.8324
15924SOL    HW250405   8.579   1.635   4.281  1.3432 -0.0358  0.7457
15925SOL     OW50406   2.668   6.687   6.376  0.2847  0.3996 -0.7774
15925SOL    HW150407   2.583   6.643   6.367 -0.0749  1.1253 -1.0494
15925SOL    HW250408   2.674   6.711   6.468  0.3394  0.0568 -0.6930
15926SOL     OW50409   7.415   7.263   0.636  0.2896  0.7288  0.1516
15926SOL    HW150410   7.327   7.235   0.660  0.3107 -0.4816 -1.0543
15926SOL    HW250411   7.458   7.284   0.719 -0.9596  0.8292  0.7878
15927SOL     OW50412   1.712   1.580   0.008  0.1613 -0.2641 -0.2909
15927SOL    HW150413   1.713   1.671  -0.023  1.4674  0.0752  0.6403
15927SOL    HW250414   1.632   1.543  -0.028 -0.7187  1.4409 -0.1738
15928SOL     OW50415   6.919   9.877   9.887  0.0566 -0.4226  0.7563
15928SOL    HW150416   6.853   9.938   9.919  0.0663 -0.3194  0.5840
15928SOL    HW250417   6.954   9.919   9.808 -0.6722 -1.1315  0.0458
15929SOL     OW50418   8.032   2.674   9.863  0.3702 -0.0362 -0.2047
15929SOL    HW150419   8.020   2.659   9.957 -0.1826 -0.8776 -0.3965
15929SOL    HW250420   8.054   2.767   9.856 -0.5218  0.2602  0.6805
15930SOL     OW50421   5.054   0.231   3.731  0.0598 -0.0125  0.0881
15930SOL    HW150422   5.060   0.244   3.637  0.5680  1.5425  0.3070
15930SOL    HW250423   4.971   0.270   3.757  0.5528  0.8046  0.4645
15931SOL     OW50424   8.496   2.005   8.529 -0.1077 -0.0389 -0.4195
15931SOL    HW150425   8.550   1.934   8.564 -0.7771  0.2558  1.3183
15931SOL    HW250426   8.558   2.069   8.496  0.5194 -1.6373 -2.5993
15932SOL     OW50427   8.168   2.842   2.556  0.0821  0.7384  0.6183
15932SOL    HW150428   8.147   2.926   2.597  0.1331  1.1891 -0.2761
15932SOL    HW250429   8.205   2.790   2.628 -0.7488  1.1656  1.3857
15933SOL     OW50430   8.193   5.399   8.037  0.2631 -0.3164 -0.2322
15933SOL    HW150431   8.174   5.360   8.122  2.1663 -1.3805 -0.2439
15933SOL    HW250432   8.288   5.405   8.034  0.2489 -0.3747 -2.3221
15934SOL     OW50433   7.933   3.522   2.831 -0.4995 -0.8984 -0.1973
15934SOL    HW150434   7.912   3.429   2.822 -0.9309 -0.8573  0.3525
15934SOL    HW250435   7.935   3.537   2.925 -1.4214 -0.1354 -0.2868
15935SOL     OW50436   9.565   0.784   8.531 -0.4755  0.1134  0.0014
15935SOL    HW150437   9.645   0.735   8.513 -0.3170  0.6597 -0.8370
15935SOL    HW250438   9.581   0.828   8.615  1.0549  2.0829 -1.2245
15936SOL     OW50439   1.207   7.382   0.392 -0.1619  0.6044 -0.0198
15936SOL    HW150440   1.301   7.366   0.403 -0.6420 -0.9262  3.0061
15936SOL    HW250441   1.199   7.477   0.386  1.4821  0.9375  1.8601
15937SOL     OW50442   9.686   4.308   0.921 -0.6757 -0.2656  0.5296
15937SOL    HW150443   9.639   4.229   0.897 -0.0184 -0.2895 -0.7873
15937SOL    HW250444   9.636   4.379   0.882 -0.6032 -0.1411  0.6611
15938SOL     OW50445   0.745   0.277   5.499 -0.4588 -0.2632 -0.5090
15938SOL    HW150446   0.657   0.248   5.478 -0.4910 -0.6450  0.1208
15938SOL    HW250447   0.768   0.337   5.429 -0.6486 -1.2896 -1.4720
15939SOL     OW50448   4.323   3.779   5.009 -0.0605 -1.1063 -0.1788
15939SOL    HW150449   4.351   3.710   4.950 -0.1667 -1.7704  0.5350
15939SOL    HW250450   4.397   3.839   5.013 -0.2783 -0.7206 -1.4553
15940SOL     OW50451   5.564   2.906   8.914  0.5982  0.2737  0.3842
15940SOL    HW150452   5.518   2.906   8.830  0.1004 -2.2064  0.5964
15940SOL    HW250453   5.655   2.928   8.891  0.0205  1.9894 -0.4407
15941SOL     OW50454   1.527   3.169   9.029  0.4982  0.3576  0.1524
15941SOL    HW150455   1.455   3.230   9.017 -0.0822 -0.4511 -0.6288
15941SOL    HW250456   1.606   3.223   9.025  0.0080  1.0283 -0.7189
15942SOL     OW50457   5.966   8.402   4.218  0.4697 -0.1732  0.1855
15942SOL    HW150458   6.062   8.394   4.219  0.5833  0.9477  0.5463
15942SOL    HW250459   5.948   8.475   4.277 -0.7343 -1.2813  1.2383
15943SOL     OW50460   8.150   2.779   1.582  0.0714 -0.0298  0.0847
15943SOL    HW150461   8.085   2.829   1.531  0.9703  0.4970 -0.5674
15943SOL    HW250462   8.101   2.703   1.613 -1.3620  1.2624  1.1748
15944SOL     OW50463   1.171   8.543   6.744 -0.4913 -0.2357 -0.5598
15944SOL    HW150464   1.220   8.624   6.738  0.3791 -0.7926 -1.3173
15944SOL    HW250465   1.119   8.551   6.823  1.9426 -0.2296  1.1383
15945SOL     OW50466   9.186   4.759   0.754 -0.0347 -0.4477  0.7887
15945SOL    HW150467   9.104   4.755   0.706  0.0138 -0.1252  0.6822
15945SOL    HW250468   9.186   4.679   0.807  0.7424 -1.7723 -1.0809
15946SOL     OW50469   5.961   9.824   1.602 -0.8436 -0.2220  0.5987
15946SOL    HW150470   5.905   9.883   1.552 -0.3467 -0.2586 -0.0165
15946SOL    HW250471   5.937   9.839   1.693 -1.3877  0.2345  0.3845
15947SOL     OW50472   4.548   7.884   3.377 -0.1881 -0.2176  0.5788
15947SOL    HW150473   4.545   7.980   3.373  0.3639 -0.2065  0.3968
15947SOL    HW250474   4.465   7.860   3.419  0.4151  0.4371  2.2520
15948SOL     OW50475   3.402   2.781   9.492 -0.3215 -0.3577  0.6377
15948SOL    HW150476   3.335   2.809   9.554 -0.1674 -0.4461  0.8456
15948SOL    HW250477   3.362   2.708   9.445  0.0755 -1.2431  1.6345
15949SOL     OW50478   0.084   4.804   0.774  0.1282  0.3519 -0.4127
15949SOL    HW150479   0.047   4.758   0.699  2.1963  1.4752 -2.2273
15949SOL    HW250480   0.007   4.837   0.821 -1.2553 -0.9555 -1.6306
15950SOL     OW50481   6.120   4.374   2.136  0.0194  0.1891  0.6648
15950SOL    HW150482   6.166   4.387   2.053 -0.3619 -0.2490  0.3824
15950SOL    HW250483   6.072   4.456   2.149  0.1408  0.2894  0.4929
15951SOL     OW50484   3.370   1.803   5.102 -0.1952  0.5603  0.2769
15951SOL    HW150485   3.450   1.847   5.131  0.4821 -0.9339  0.7963
15951SOL    HW250486   3.326   1.779   5.183  0.7041 -1.8636  0.1195
15952SOL     OW50487   4.874   7.416   9.757  0.0917  0.4695  0.3290
15952SOL    HW150488   4.871   7.367   9.839  2.1829  2.4705  1.7162
15952SOL    HW250489   4.846   7.504   9.780 -0.2448  0.8436 -1.3512
15953SOL     OW50490   4.189   7.382   2.152  0.0522  0.0827  0.2665
15953SOL    HW150491   4.105   7.376   2.197  0.2200  0.7562  0.6847
15953SOL    HW250492   4.226   7.465   2.181  0.7151 -0.0491 -0.1733
15954SOL     OW50493   5.754   3.914   2.095 -0.1116  0.1248  0.0641
15954SOL    HW150494   5.704   3.908   2.013 -0.7059  0.1479  0.4179
15954SOL    HW250495   5.687   3.911   2.163  0.3987 -0.0961  0.5555
15955SOL     OW50496   1.166   1.088   6.992 -0.5334 -0.5500 -0.1696
15955SOL    HW150497   1.088   1.047   6.956 -1.5562  0.2673  1.0346
15955SOL    HW250498   1.210   1.018   7.040 -2.5664 -0.2502  2.3711
15956SOL     OW50499   2.612   4.110   8.090  0.0968  0.1312  0.1293
15956SOL    HW150500   2.663   4.163   8.029  0.5715 -0.9579 -0.4320
15956SOL    HW250501   2.583   4.173   8.157  0.3924  1.1505 -0.6744
15957SOL     OW50502   9.319   2.201   5.300  0.0120 -0.4348  0.1019
15957SOL    HW150503   9.392   2.165   5.250  0.4532  0.7540 -0.1164
15957SOL    HW250504   9.283   2.125   5.347 -0.6610 -1.6716 -2.2522
15958SOL     OW50505   8.883   7.912   3.699 -0.3533 -0.0690 -0.0382
15958SOL    HW150506   8.874   7.852   3.625 -2.2200  1.0624 -0.8096
15958SOL    HW250507   8.856   7.997   3.664 -1.7321  0.4197  2.0388
15959SOL     OW50508   0.962   8.504   2.251  0.2991  0.4687  0.2815
15959SOL    HW150509   0.929   8.579   2.201  1.8595  0.1799 -1.3047
15959SOL    HW250510   0.938   8.427   2.200  1.1378  0.0955  0.4197
15960SOL     OW50511   7.772   6.046   8.210  0.1057  0.2089 -0.3707
15960SOL    HW150512   7.706   5.985   8.242  1.2436 -0.3180  1.1194
15960SOL    HW250513   7.848   5.991   8.190  0.3360  0.8691 -1.4229
15961SOL     OW50514   0.613   4.670   3.348  0.6453  0.7621  0.3491
15961SOL    HW150515   0.541   4.711   3.300  0.1702 -0.2742  0.1565
15961SOL    HW250516   0.585   4.672   3.439 -0.2328 -0.7782  0.1463
15962SOL     OW50517   2.159   5.467   2.951  0.4439  0.0526  0.3126
15962SOL    HW150518   2.101   5.396   2.976 -0.6364  1.2574  1.3969
15962SOL    HW250519   2.170   5.518   3.031  2.8059  0.0205  0.0758
15963SOL     OW50520   1.110   2.422   0.031  0.2351  0.5090  0.0259
15963SOL    HW150521   1.168   2.385  -0.036 -0.8773 -1.0586 -0.1188
15963SOL    HW250522   1.113   2.360   0.103  2.0097  2.5382  1.8614
15964SOL     OW50523   6.419   7.730   6.441 -0.3866 -0.0459 -0.0411
15964SOL    HW150524   6.442   7.719   6.533  1.5374 -1.8263 -0.6502
15964SOL    HW250525   6.498   7.704   6.393 -1.1579  1.3283 -2.2062
15965SOL     OW50526   0.589   2.723   4.989 -0.7694  0.4248 -0.0556
15965SOL    HW150527   0.603   2.662   4.917 -0.3873  0.6805 -0.2019
15965SOL    HW250528   0.632   2.682   5.065  0.0122  0.7852 -0.2931
15966SOL     OW50529   3.130   8.628   0.674 -0.2199  0.1969  0.1949
15966SOL    HW150530   3.066   8.627   0.746 -1.0589 -1.9484 -0.4881
15966SOL    HW250531   3.133   8.537   0.644  1.4745  0.6938 -1.3079
15967SOL     OW50532   9.635   2.384   5.859 -0.3685  0.2367 -0.0197
15967SOL    HW150533   9.703   2.403   5.794 -1.2037  0.7932 -0.7513
15967SOL    HW250534   9.574   2.327   5.814 -0.4755 -0.1446  0.5908
15968SOL     OW50535   4.242   5.126   4.148  0.0021 -0.1945  0.1538
15968SOL    HW150536   4.180   5.136   4.221 -0.2286 -1.2764  0.1152
15968SOL    HW250537   4.328   5.133   4.190 -0.1283 -0.7394  0.5299
15969SOL     OW50538   4.888   0.318   8.867 -0.5425 -0.6919  0.3555
15969SOL    HW150539   4.895   0.349   8.957 -0.1712 -3.7728  1.5108
15969SOL    HW250540   4.966   0.263   8.855  0.8865  1.6722 -2.8389
15970SOL     OW50541   4.097   4.846   2.952  0.2215 -0.5999 -0.0861
15970SOL    HW150542   4.029   4.888   2.899  0.2200 -1.8676 -1.1630
15970SOL    HW250543   4.114   4.908   3.023 -1.4679  0.1183 -0.2402
15971SOL     OW50544   6.339   2.488   6.754 -0.2210 -0.3811 -0.3925
15971SOL    HW150545   6.393   2.552   6.707  0.4967 -0.7061 -0.0241
15971SOL    HW250546   6.271   2.541   6.796  0.4600  0.1714  0.0418
15972SOL     OW50547   3.377   6.330   7.234  0.4371 -0.8009 -0.4884
15972SOL    HW150548   3.472   6.329   7.219  0.3346 -0.2462 -1.2273
15972SOL    HW250549   3.367   6.369   7.321  0.8457  0.2019 -0.8778
15973SOL     OW50550   2.215   0.439   9.479  0.4115 -0.2873 -0.1903
15973SOL    HW150551   2.244   0.379   9.410 -0.4549 -2.5748  1.3248
15973SOL    HW250552   2.206   0.383   9.556  0.9660  2.1117  1.7042
15974SOL     OW50553   6.555   1.348   8.740 -0.4518 -0.2886  0.8883
15974SOL    HW150554   6.498   1.401   8.684  3.0496  1.7873 -1.1781
15974SOL    HW250555   6.566   1.401   8.819 -0.6167 -0.1928  0.8474
15975SOL     OW50556   7.569   5.371   4.382  0.0428  0.5438 -0.0018
15975SOL    HW150557   7.484   5.351   4.419 -0.0894 -1.8647 -1.4128
15975SOL    HW250558   7.632   5.348   4.451 -0.3709  0.1308  0.2414
15976SOL     OW50559  10.185   2.207   7.618 -0.2893  0.0864 -0.0508
15976SOL    HW150560  10.139   2.201   7.535  1.4788  0.1350 -1.0978
15976SOL    HW250561  10.263   2.259   7.598 -0.7877  1.7772  2.1039
15977SOL     OW50562   2.323   4.010   0.159 -0.2722 -0.4793 -0.2494
15977SOL    HW150563   2.344   3.919   0.181  1.0957 -0.1774 -0.1947
15977SOL    HW250564   2.353   4.060   0.236 -0.3890  0.0815 -0.5654
15978SOL     OW50565   3.013   2.413   0.950 -0.2367 -0.1215  0.6310
15978SOL    HW150566   3.035   2.328   0.988  0.0171  0.0625  0.9021
15978SOL    HW250567   2.919   2.408   0.932 -0.8653  0.5249  3.2487
15979SOL     OW50568   2.742   6.529   5.072 -0.5479  0.2434  0.0901
15979SOL    HW150569   2.685   6.565   5.005 -0.1630 -1.0179 -0.9481
15979SOL    HW250570   2.743   6.435   5.056  0.4646  0.0402  1.1527
15980SOL     OW50571   7.591   7.224   6.239  0.4040 -0.2837 -0.2527
15980SOL    HW150572   7.511   7.237   6.291  1.5168 -1.4756  1.9125
15980SOL    HW250573   7.597   7.129   6.229 -0.0094 -0.0781 -3.0989
15981SOL     OW50574   5.067   6.767   3.925  0.5517  0.1815 -0.8522
15981SOL    HW150575   5.124   6.758   3.848  1.8807 -0.6671  0.1646
15981SOL    HW250576   5.108   6.836   3.976 -0.9210  1.4766 -1.3652
15982SOL     OW50577   5.311   2.978   4.880  0.2974 -0.1805 -0.5978
15982SOL    HW150578   5.342   2.925   4.954  1.5581  1.4135  0.0760
15982SOL    HW250579   5.237   3.027   4.916  1.2075  0.9528 -0.1984
15983SOL     OW50580   3.480   7.277   9.865  0.4554 -0.0902  0.3564
15983SOL    HW150581   3.476   7.273   9.960  0.7398 -0.7973  0.3439
15983SOL    HW250582   3.477   7.185   9.837  0.1337  0.1241 -0.3231
15984SOL     OW50583   9.536   5.410   4.754 -0.0687 -1.1033 -0.1845
15984SOL    HW150584   9.500   5.487   4.798  1.6366 -0.1666 -0.3455
15984SOL    HW250585   9.595   5.371   4.819  3.0397  0.6961 -1.7153
15985SOL     OW50586   4.518   8.702   5.670  0.1044 -0.2243 -0.1664
15985SOL    HW150587   4.508   8.674   5.579  0.0245 -0.2940 -0.1366
15985SOL    HW250588   4.595   8.656   5.702  0.7616  0.6097 -0.5125
15986SOL     OW50589   9.359  10.280   2.843  0.1218 -0.3261  0.1716
15986SOL    HW150590   9.303  10.341   2.794  0.2945 -0.1469  0.1962
15986SOL    HW250591   9.430  10.258   2.781 -0.8560 -1.8576 -0.4765
15987SOL     OW50592   3.554  10.354   2.183 -0.0955 -0.3751 -0.1261
15987SOL    HW150593   3.466  10.343   2.218  0.1705 -0.1568  0.6242
15987SOL    HW250594   3.571  10.448   2.187  0.2426 -0.4350 -0.1065
15988SOL     OW50595  10.175   4.543   6.122  0.4052  0.1443  0.3653
15988SOL    HW150596  10.139   4.463   6.160 -0.1423  0.4310  0.4671
15988SOL    HW250597  10.102   4.605   6.124  0.3531  0.1847 -1.1362
15989SOL     OW50598   9.155   0.068   7.736 -0.1682  0.8578  0.6070
15989SOL    HW150599   9.216   0.007   7.778 -1.7846 -1.9104 -0.8114
15989SOL    HW250600   9.074   0.059   7.787 -1.0325  0.2269 -0.8218
15990SOL     OW50601   9.314   6.986   3.112 -0.1737  0.0119 -0.7173
15990SOL    HW150602   9.277   6.934   3.184  0.7015  1.4930  0.8738
15990SOL    HW250603   9.404   6.955   3.104  0.2637  1.0676  0.0432
15991SOL     OW50604   5.724   8.181   1.087 -0.0002  0.3032  0.2731
15991SOL    HW150605   5.761   8.255   1.038 -0.3378  0.4297  0.2055
15991SOL    HW250606   5.642   8.215   1.122  0.2936  0.2486  1.0310
15992SOL     OW50607   6.880   3.625   8.796  0.2035  0.1061 -0.5098
15992SOL    HW150608   6.891   3.627   8.891  1.6036  1.3274 -0.6560
15992SOL    HW250609   6.908   3.537   8.771 -0.4079 -0.3068  0.2278
15993SOL     OW50610   8.126   3.246   2.969  0.9478 -0.1288  0.4937
15993SOL    HW150611   8.056   3.282   3.022 -0.2912 -0.3535 -0.9362
15993SOL    HW250612   8.192   3.316   2.964  0.7164  0.1796  1.6142
15994SOL     OW50613   9.688   6.686   6.209 -0.0136 -0.4297  0.0390
15994SOL    HW150614   9.683   6.649   6.298 -1.7059 -1.9259 -0.6072
15994SOL    HW250615   9.610   6.652   6.165  0.9755 -0.0392 -2.1552
15995SOL     OW50616   3.897   9.516   0.105  0.6014  0.3045  0.1236
15995SOL    HW150617   3.931   9.450   0.165 -1.2234  0.0685  0.9768
15995SOL    HW250618   3.900   9.475   0.019 -2.2762 -1.7427  0.8552
15996SOL     OW50619   0.331   7.460   5.194 -0.8321  0.2175 -0.3544
15996SOL    HW150620   0.363   7.521   5.128 -1.4634 -1.8900 -2.7245
15996SOL    HW250621   0.401   7.394   5.202  0.1818  1.4655  2.7142
15997SOL     OW50622   8.988   2.442   4.893  0.1511 -0.2471 -0.5468
15997SOL    HW150623   9.032   2.382   4.952 -1.0421 -1.2626 -0.6392
15997SOL    HW250624   8.919   2.389   4.853 -2.0972  1.5989  0.6760
15998SOL     OW50625   4.457   5.570   7.231 -0.9575 -0.3773 -0.0361
15998SOL    HW150626   4.447   5.663   7.212 -1.9204 -0.3878  0.3334
15998SOL    HW250627   4.547   5.549   7.206 -1.5720 -0.0202 -2.9481
15999SOL     OW50628   3.301   6.583   0.433 -0.1378  0.2136 -0.5709
15999SOL    HW150629   3.324   6.647   0.501 -1.8134  0.5102 -0.2365
15999SOL    HW250630   3.315   6.498   0.475 -2.0930  0.3880  0.5587
16000SOL     OW50631   7.151   3.357   2.203 -0.4150  0.6160 -0.5522
16000SOL    HW150632   7.101   3.312   2.135  0.6360  1.3995 -1.9078
16000SOL    HW250633   7.178   3.288   2.263 -2.6539  0.1068 -0.0415
16001SOL     OW50634   5.302   0.293   2.579  0.2858  0.0258 -0.2483
16001SOL    HW150635   5.388   0.263   2.550 -0.4217 -0.2596 -2.1658
16001SOL    HW250636   5.274   0.226   2.643  1.7339  0.4943  0.9343
16002SOL     OW50637   7.300   0.441   8.286 -0.2924  0.1890 -0.3919
16002SOL    HW150638   7.325   0.522   8.242 -1.6336 -0.0134 -1.6204
16002SOL    HW250639   7.217   0.461   8.329 -0.5933 -0.5037 -0.6335
16003SOL     OW50640   0.288   0.746  10.358  0.1316 -0.0125  0.5733
16003SOL    HW150641   0.298   0.694  10.438 -0.7694  1.0481  1.4139
16003SOL    HW250642   0.196   0.737  10.335  0.4022 -0.3570 -0.3953
16004SOL     OW50643   7.958   1.885   9.637  0.1758 -0.3742  0.4223
16004SOL    HW150644   7.870   1.847   9.636  0.1884 -0.4024 -0.5133
16004SOL    HW250645   7.997   1.853   9.718 -0.1886 -1.5332  0.1645
16005SOL     OW50646   0.723   9.841   1.936  0.4668  0.2579 -0.0206
16005SOL    HW150647   0.677   9.760   1.916  2.0923 -0.9342  0.8571
16005SOL    HW250648   0.815   9.823   1.915  1.3810  0.7605  3.0013
16006SOL     OW50649   3.622   5.823   7.360  0.2046  0.0967 -0.8935
16006SOL    HW150650   3.590   5.901   7.314 -0.3626  0.9507  0.8632
16006SOL    HW250651   3.716   5.822   7.344  0.2398  1.2331 -0.8173
16007SOL     OW50652   7.421   5.423   6.117  0.3132  0.0408  0.0786
16007SOL    HW150653   7.516   5.430   6.102  0.0911  0.5382 -1.2937
16007SOL    HW250654   7.406   5.476   6.196  1.2687 -0.6999  0.7894
16008SOL     OW50655   8.678   8.741   6.063  0.2630 -0.2046 -0.4975
16008SOL    HW150656   8.615   8.674   6.037  1.0097 -0.7565 -0.9216
16008SOL    HW250657   8.762   8.709   6.030  0.7473  0.5818 -0.0537
16009SOL     OW50658   0.027   4.462   4.537 -0.0418 -0.6083 -0.0029
16009SOL    HW150659   0.028   4.489   4.445 -1.1092  0.8904  0.3878
16009SOL    HW250660   0.118   4.471   4.566  0.1651 -0.3814 -0.7126
16010SOL     OW50661   0.248   8.896  10.347 -0.0251  0.1552  0.7465
16010SOL    HW150662   0.266   8.952  10.272 -1.9710 -1.1580 -0.7893
16010SOL    HW250663   0.153   8.880  10.344  0.0573 -1.0887  2.6559
16011SOL     OW50664   1.771   0.969   4.908 -0.0446 -0.0361  0.3523
16011SOL    HW150665   1.830   1.036   4.942 -0.9126  1.4891 -0.9603
16011SOL    HW250666   1.713   1.017   4.849 -2.9690 -1.3387  1.9608
16012SOL     OW50667   6.852   2.542   5.061 -0.0385  0.8768  0.0183
16012SOL    HW150668   6.816   2.619   5.106  1.6817  1.1486  1.0560
16012SOL    HW250669   6.836   2.469   5.121  0.5728  0.8968  0.2140
16013SOL     OW50670   5.390   6.137   6.762  0.1611 -0.2247 -0.3401
16013SOL    HW150671   5.396   6.086   6.681  0.0454  2.3258 -2.1081
16013SOL    HW250672   5.300   6.169   6.764  0.2724  0.0444  0.5750
16014SOL     OW50673   0.594   4.101   4.380  0.4109  0.5412 -0.0397
16014SOL    HW150674   0.592   4.194   4.360 -0.7708  0.7866  1.0484
16014SOL    HW250675   0.685   4.074   4.363  1.1414  2.2077  0.9717
16015SOL     OW50676   8.282   3.527   4.885  0.1247 -0.5606 -0.1954
16015SOL    HW150677   8.230   3.456   4.923 -0.2554  0.0048  0.3545
16015SOL    HW250678   8.243   3.541   4.799 -1.3686  0.5914  0.6301
16016SOL     OW50679   8.308   9.761   1.756 -0.0928  0.2991 -0.7632
16016SOL    HW150680   8.385   9.763   1.700 -0.8177 -1.4928 -1.9044
16016SOL    HW250681   8.336   9.717   1.836  0.3072  0.5773 -0.7509
16017SOL     OW50682   4.018   5.729   2.501  0.4272 -0.2066 -0.0550
16017SOL    HW150683   4.109   5.757   2.488  0.3446  0.2047  0.2328
16017SOL    HW250684   3.969   5.810   2.513  0.5765 -0.4891  3.3838
16018SOL     OW50685   3.053  10.080   2.467  0.1169  0.2780  0.0849
16018SOL    HW150686   2.976  10.076   2.410 -0.2111 -1.7022  0.5822
16018SOL    HW250687   3.019  10.108   2.552 -0.2182 -1.2242  0.4783
16019SOL     OW50688   4.504   7.990   3.045 -0.2072 -0.2142  0.3819
16019SOL    HW150689   4.450   8.009   2.968  1.3372  1.0889 -0.4374
16019SOL    HW250690   4.527   7.898   3.036  0.7910  0.1491 -1.3272
16020SOL     OW50691   3.162   1.062   5.769 -0.1848  0.1480  0.2041
16020SOL    HW150692   3.116   0.987   5.808  1.1017 -1.4993 -1.2573
16020SOL    HW250693   3.100   1.098   5.706 -1.5013  1.5337  2.1946
16021SOL     OW50694  10.125   1.830   6.647  0.6142 -0.5459 -0.0387
16021SOL    HW150695  10.041   1.785   6.640 -0.1999  0.6293  1.3730
16021SOL    HW250696  10.158   1.833   6.558 -1.1319 -0.5276 -0.7380
16022SOL     OW50697   9.259   9.091   9.712  0.0390  0.0373  0.3640
16022SOL    HW150698   9.279   9.083   9.805 -0.2092  0.2859  0.4394
16022SOL    HW250699   9.181   9.146   9.708  1.1251  1.6294 -0.0790
16023SOL     OW50700   1.040   5.417   4.306  0.1652  0.4760  0.7386
16023SOL    HW150701   1.120   5.461   4.335  3.0330 -2.2307 -2.1751
16023SOL    HW250702   1.022   5.454   4.220  0.6418 -1.4939 -0.2724
16024SOL     OW50703   5.600   9.754   4.965 -0.5215 -0.2172  0.2206
16024SOL    HW150704   5.521   9.704   4.982  0.0471 -0.6356  1.8242
16024SOL    HW250705   5.589   9.835   5.015 -0.8222  0.6732 -1.2261
16025SOL     OW50706   7.420   1.609   8.514 -0.3434 -0.3023  0.0530
16025SOL    HW150707   7.465   1.668   8.574  0.5538 -0.6272 -0.2829
16025SOL    HW250708   7.443   1.521   8.545  0.5837 -0.4757 -1.0733
16026SOL     OW50709   4.206  10.320   2.759 -0.2033  0.0704 -0.1693
16026SOL    HW150710   4.234  10.401   2.802  0.0737  0.0321 -0.2777
16026SOL    HW250711   4.214  10.339   2.666 -1.2380  0.3097 -0.2279
16027SOL     OW50712   8.759   2.279   7.577  0.5464  0.7869 -0.2550
16027SOL    HW150713   8.695   2.284   7.648  2.9254  0.6905  2.0499
16027SOL    HW250714   8.792   2.189   7.581 -0.1621  0.3638 -2.4152
16028SOL     OW50715   0.220   3.193   5.002  0.0316 -0.1675 -0.2364
16028SOL    HW150716   0.144   3.251   4.997 -0.4952 -0.9448 -3.2140
16028SOL    HW250717   0.276   3.220   4.929  0.9767 -1.7723 -0.1605
16029SOL     OW50718   4.871   8.910   9.220  0.0276  0.0185  0.3321
16029SOL    HW150719   4.866   8.874   9.309 -1.7132  0.1435  0.3144
16029SOL    HW250720   4.913   8.840   9.169 -0.3660 -0.6826  0.9459
16030SOL     OW50721   0.827   7.040   7.780 -0.0851 -0.4983 -0.4112
16030SOL    HW150722   0.899   7.095   7.749 -0.7614  0.3228 -0.5531
16030SOL    HW250723   0.757   7.054   7.717 -1.2302  0.6177  1.0417
16031SOL     OW50724   3.200   2.209   2.627  0.2955  0.0528  0.0109
16031SOL    HW150725   3.271   2.272   2.613  2.1172 -1.5474  1.5670
16031SOL    HW250726   3.140   2.254   2.688 -0.5125  1.6949 -1.8766
16032SOL     OW50727   2.678   2.738   5.329 -0.3622  0.0301 -0.0021
16032SOL    HW150728   2.677   2.795   5.406 -1.2527  0.3059 -0.2095
16032SOL    HW250729   2.657   2.796   5.256  1.2614 -0.0683 -0.5868
16033SOL     OW50730   3.868   6.487   4.700 -0.0516  0.1408 -0.0415
16033SOL    HW150731   3.886   6.410   4.646 -1.0461 -0.2329  0.1483
16033SOL    HW250732   3.845   6.556   4.638 -1.6564 -0.4120 -0.1086
16034SOL     OW50733   2.755   4.852   8.616 -0.1153  0.5623 -0.0326
16034SOL    HW150734   2.817   4.782   8.595  0.4270  1.0273 -0.0189
16034SOL    HW250735   2.687   4.845   8.549  1.2158  1.5665 -1.5706
16035SOL     OW50736   6.161   8.500   5.873 -0.2303  0.1793 -0.6692
16035SOL    HW150737   6.167   8.530   5.963  1.0090 -1.3853 -0.1845
16035SOL    HW250738   6.083   8.544   5.838 -0.2622  1.4394  0.8927
16036SOL     OW50739   0.452   5.884   5.088 -0.1481  0.4453 -0.2408
16036SOL    HW150740   0.517   5.851   5.151 -2.5773 -0.5738  1.8872
16036SOL    HW250741   0.369   5.878   5.134 -1.7643  2.0795 -2.7204
16037SOL     OW50742   0.267   1.059   7.660 -0.3128  0.1512  0.1643
16037SOL    HW150743   0.272   1.149   7.692 -0.4370 -0.7431  2.9841
16037SOL    HW250744   0.348   1.018   7.692  0.0499 -0.6207 -1.6218
16038SOL     OW50745   3.093   7.305   6.459  0.0619  0.5030 -0.2387
16038SOL    HW150746   3.110   7.213   6.475  0.4140  1.0395  2.9990
16038SOL    HW250747   3.002   7.307   6.430 -0.2835 -0.7985  0.6512
16039SOL     OW50748   7.201   2.580   5.741 -0.6072 -0.0267 -0.1331
16039SOL    HW150749   7.212   2.655   5.682 -3.5930  0.0772 -0.7110
16039SOL    HW250750   7.159   2.513   5.688 -0.9134 -0.9362  1.2019
16040SOL     OW50751   0.928   7.235   6.820 -0.0319 -0.0699 -0.2345
16040SOL    HW150752   0.952   7.311   6.873  1.7867 -1.2537  0.7614
16040SOL    HW250753   0.866   7.269   6.756  1.2293  2.4173 -0.2819
16041SOL     OW50754   7.618   2.558   5.275  0.3491 -0.3101  0.0187
16041SOL    HW150755   7.594   2.472   5.311 -0.7934  0.7523  1.9385
16041SOL    HW250756   7.705   2.544   5.238  1.7075 -1.5998  3.2829
16042SOL     OW50757   0.918   2.699   1.520  0.5020 -0.2332 -0.2118
16042SOL    HW150758   0.990   2.762   1.516 -0.4368  0.9301  0.6338
16042SOL    HW250759   0.927   2.659   1.607 -0.1182  0.2294  0.0684
16043SOL     OW50760   7.850   4.123   2.079 -0.3058  0.1302  0.5531
16043SOL    HW150761   7.763   4.162   2.087 -0.5959 -0.6328  1.3138
16043SOL    HW250762   7.911   4.195   2.092 -0.7417  1.2623 -2.7060
16044SOL     OW50763   6.916   8.542   7.316 -0.0993  0.5755  0.0613
16044SOL    HW150764   6.972   8.514   7.388  0.3933  1.5451  0.0630
16044SOL    HW250765   6.975   8.590   7.257 -0.6109  0.2852 -0.7065
16045SOL     OW50766   4.957   7.444   1.180  0.0148  0.0542  0.6588
16045SOL    HW150767   5.026   7.496   1.221 -0.2751  1.0777 -0.1091
16045SOL    HW250768   4.897   7.509   1.142 -1.0328 -0.8212  0.7600
16046SOL     OW50769   9.484   3.733   4.250 -0.0494 -0.0007  0.1195
16046SOL    HW150770   9.396   3.706   4.225  0.8701  0.1447 -3.8675
16046SOL    HW250771   9.539   3.657   4.232  0.8344  0.2901  1.4482
16047SOL     OW50772   2.550   9.023   7.858 -0.6289  0.0814  0.0469
16047SOL    HW150773   2.473   9.080   7.856  0.0339  1.1994  2.2843
16047SOL    HW250774   2.575   9.022   7.950  2.1099 -0.1427 -0.6336
16048SOL     OW50775   1.831   4.686  10.180  0.3856 -0.0103  0.1096
16048SOL    HW150776   1.865   4.625  10.247  0.6082  0.3535  0.3301
16048SOL    HW250777   1.763   4.735  10.226  2.1198  1.8991  0.8028
16049SOL     OW50778   5.104   6.859  10.259 -0.0622 -0.4586 -0.5316
16049SOL    HW150779   5.103   6.856  10.355 -0.1811  0.3572 -0.5013
16049SOL    HW250780   5.165   6.930  10.238  0.0382 -0.6955 -1.0694
16050SOL     OW50781   3.026   6.433   0.159 -0.2457 -0.4352 -0.0672
16050SOL    HW150782   3.056   6.362   0.103  0.0926  0.3129 -0.8609
16050SOL    HW250783   2.945   6.401   0.198 -0.1674 -1.1953 -0.5148
16051SOL     OW50784   6.367   1.711   4.147 -0.3432 -1.1791 -0.1600
16051SOL    HW150785   6.441   1.771   4.137  0.6154 -2.3974 -0.6864
16051SOL    HW250786   6.352   1.709   4.242  0.3131 -0.9221 -0.0394
16052SOL     OW50787   7.908   7.292   4.289 -0.2365 -0.2937 -0.2521
16052SOL    HW150788   7.901   7.253   4.202 -0.3584 -1.1359  0.1290
16052SOL    HW250789   7.857   7.234   4.346 -0.6087  0.5440  0.2900
16053SOL     OW50790   7.234   5.852   5.144  0.1406 -0.7077 -0.0684
16053SOL    HW150791   7.233   5.841   5.239 -0.0672  0.3791  0.0709
16053SOL    HW250792   7.162   5.913   5.126  0.2729 -0.7807 -0.9061
16054SOL     OW50793   5.344   3.282   1.173  0.6219 -0.3540 -0.0466
16054SOL    HW150794   5.295   3.288   1.091  1.3462 -0.4180 -0.4985
16054SOL    HW250795   5.299   3.214   1.224 -1.2140  1.2603  0.5929
16055SOL     OW50796   7.529   3.587   5.057 -0.2919 -0.4742 -0.2820
16055SOL    HW150797   7.468   3.589   5.131  0.3658 -1.7458  0.3099
16055SOL    HW250798   7.611   3.621   5.093 -0.6232  1.3467 -1.1075
16056SOL     OW50799   4.596   0.540   6.932 -0.0933 -0.4318  0.3606
16056SOL    HW150800   4.540   0.514   6.859 -0.8927 -0.4175  0.9438
16056SOL    HW250801   4.643   0.617   6.900 -1.1496  0.1611  0.1672
16057SOL     OW50802   0.981   3.739   8.836  0.2773  0.7288  0.1254
16057SOL    HW150803   0.960   3.754   8.928  1.6120 -0.9767  0.7544
16057SOL    HW250804   1.075   3.756   8.830  0.2066  0.7897 -0.9217
16058SOL     OW50805   6.781   6.173   7.202 -0.6112  0.1737 -0.1591
16058SOL    HW150806   6.767   6.267   7.192  1.0427  0.2337 -2.7447
16058SOL    HW250807   6.699   6.133   7.175 -0.5509  0.8558 -1.4253
16059SOL     OW50808   4.513   4.082   1.890  0.2361  0.1143  0.0166
16059SOL    HW150809   4.599   4.041   1.899  0.1994 -0.2396 -1.0530
16059SOL    HW250810   4.529   4.159   1.836 -0.1937 -0.2495 -0.6434
16060SOL     OW50811   9.796   2.753   4.359  0.3452  0.2216 -0.4104
16060SOL    HW150812   9.822   2.682   4.417  0.0208 -0.3279 -0.9315
16060SOL    HW250813   9.707   2.776   4.386  0.3525  0.2549 -0.4138
16061SOL     OW50814   4.860   9.398   1.762  0.1425 -0.5454  0.0759
16061SOL    HW150815   4.933   9.431   1.709 -0.9682  1.4861 -0.2929
16061SOL    HW250816   4.835   9.472   1.817 -1.1403 -1.4530  0.7537
16062SOL     OW50817   3.426   2.953   7.961 -0.4338 -0.5934 -0.1606
16062SOL    HW150818   3.429   3.048   7.970 -0.6587 -0.6445  0.4650
16062SOL    HW250819   3.438   2.938   7.867  0.3003  0.0183 -0.1761
16063SOL     OW50820   9.354   4.131   9.353 -0.1127  0.4663  0.5176
16063SOL    HW150821   9.261   4.129   9.374 -0.6402  0.1489 -1.5968
16063SOL    HW250822   9.366   4.059   9.291  0.3578  3.4230 -3.2553
16064SOL     OW50823   4.513   7.432   1.030 -0.6048  0.3060 -0.1361
16064SOL    HW150824   4.586   7.456   1.087  0.1294  1.4443 -1.4816
16064SOL    HW250825   4.438   7.425   1.089  0.0145  1.9233  0.9215
16065SOL     OW50826   3.232   7.256   1.522  0.2222  0.0800 -0.1718
16065SOL    HW150827   3.217   7.193   1.451 -1.0886  1.4152 -1.1454
16065SOL    HW250828   3.224   7.204   1.602 -0.0862 -1.1308 -0.9593
16066SOL     OW50829   9.299   5.080   4.260 -0.0404  0.5108  0.4204
16066SOL    HW150830   9.250   5.128   4.194  1.4722 -2.3379 -3.0877
16066SOL    HW250831   9.289   4.988   4.236  2.5519 -0.5433  2.7809
16067SOL     OW50832   1.120  10.118   7.891  0.2187 -0.0559 -0.1689
16067SOL    HW150833   1.099  10.139   7.800 -0.1157  1.2241  0.1851
16067SOL    HW250834   1.134  10.203   7.933 -0.0364 -0.6066  1.0728
16068SOL     OW50835   3.476   3.184   0.850 -0.1868 -0.1687  0.0631
16068SOL    HW150836   3.473   3.091   0.873  0.0612  0.1928  1.7081
16068SOL    HW250837   3.545   3.220   0.906  0.8548  0.7208 -1.7355
16069SOL     OW50838   6.285   7.544   7.375 -0.0343 -0.6209  0.4520
16069SOL    HW150839   6.361   7.584   7.417 -0.9003  0.5686  0.9280
16069SOL    HW250840   6.222   7.615   7.366 -1.2018 -1.6402  0.2929
16070SOL     OW50841   1.918   9.032   6.355 -0.0804  0.0483  0.0558
16070SOL    HW150842   1.913   8.944   6.392  1.1122  0.2803  0.8111
16070SOL    HW250843   2.010   9.055   6.362 -0.0895  0.7225 -1.6529
16071SOL     OW50844   6.027   2.110   7.806  0.5663  0.6073 -0.2574
16071SOL    HW150845   5.993   2.116   7.896 -1.5538  1.4988 -1.0508
16071SOL    HW250846   5.970   2.046   7.763  1.4806  0.2788 -1.0129
16072SOL     OW50847   3.125   6.241   4.181  0.1543  0.5864  0.1395
16072SOL    HW150848   3.086   6.183   4.116 -0.5280  0.5317  0.5831
16072SOL    HW250849   3.215   6.211   4.190 -0.4029 -0.9189  0.9336
16073SOL     OW50850   3.091   2.682   1.356  0.0741  0.1830 -0.3322
16073SOL    HW150851   3.002   2.716   1.356  0.1307  0.5053 -2.7666
16073SOL    HW250852   3.082   2.592   1.323  0.5250 -0.2571  0.7018
16074SOL     OW50853   8.125   4.233   6.808  0.0679  0.2133 -0.0596
16074SOL    HW150854   8.084   4.261   6.726 -0.0520  0.1138 -0.0336
16074SOL    HW250855   8.213   4.207   6.783  0.3954  1.2210  0.0119
16075SOL     OW50856   7.570  10.316   3.987  0.1539 -0.0816 -0.1166
16075SOL    HW150857   7.606  10.368   4.059  1.0118  0.5241 -0.9541
16075SOL    HW250858   7.497  10.268   4.026  0.5898  0.2424  1.1442
16076SOL     OW50859   2.587   6.376   9.823  0.3398 -0.5012 -0.1490
16076SOL    HW150860   2.523   6.403   9.758  0.2486  0.2383  0.2340
16076SOL    HW250861   2.566   6.429   9.901 -0.6215 -2.5335  1.0589
16077SOL     OW50862   2.696   3.862   8.505 -0.2912  0.0509 -0.1615
16077SOL    HW150863   2.780   3.888   8.543  0.2798 -0.8296 -0.7854
16077SOL    HW250864   2.633   3.925   8.541  0.9362  2.0221 -1.2583
16078SOL     OW50865   6.236  10.250   0.127  0.4351 -0.7366  0.1638
16078SOL    HW150866   6.308  10.311   0.143  0.9580 -1.5432  1.0148
16078SOL    HW250867   6.175  10.298   0.072  1.7533 -0.1221 -0.8001
16079SOL     OW50868  10.152   8.945   5.793 -0.3581  0.4186  0.1141
16079SOL    HW150869  10.238   8.916   5.761  0.4172  0.7949  1.6992
16079SOL    HW250870  10.093   8.931   5.720  1.0785  0.2389 -1.0683
16080SOL     OW50871   1.257   0.363   1.266 -0.4431 -0.2257  1.0027
16080SOL    HW150872   1.338   0.314   1.285  0.3568  0.4574 -0.4654
16080SOL    HW250873   1.210   0.308   1.203 -0.6389 -0.1419  1.0748
16081SOL     OW50874   0.365  10.185   8.902 -0.1622 -0.0475 -0.0045
16081SOL    HW150875   0.397  10.172   8.992  1.3862  2.6459 -0.0782
16081SOL    HW250876   0.415  10.123   8.850  0.5936 -0.0312  0.6895
16082SOL     OW50877   8.957   1.798   1.081 -0.1340  0.1655 -0.3382
16082SOL    HW150878   8.947   1.704   1.071 -1.2547  0.0734  1.1586
16082SOL    HW250879   8.897   1.821   1.152  1.3216  1.7535  0.4682
16083SOL     OW50880   2.010   6.056   3.552  0.0695  0.5482 -0.1607
16083SOL    HW150881   1.965   6.064   3.468 -0.7823  0.5422  0.2799
16083SOL    HW250882   1.965   5.984   3.597  0.1648  0.8909  0.5009
16084SOL     OW50883   1.836   9.120   7.452 -0.1510 -0.0900 -0.3412
16084SOL    HW150884   1.902   9.174   7.496 -0.1981 -1.2234  1.1666
16084SOL    HW250885   1.768   9.183   7.426  1.7525  1.2272 -2.5829
16085SOL     OW50886   4.883   4.405   9.024 -0.1606  0.0137 -0.1327
16085SOL    HW150887   4.821   4.417   9.097 -1.5022  1.7116 -1.4741
16085SOL    HW250888   4.963   4.447   9.054 -1.2667  2.3706 -0.2611
16086SOL     OW50889   6.509   9.802   9.243 -0.0272 -0.2233 -0.5595
16086SOL    HW150890   6.506   9.843   9.330 -0.0830  0.6058 -0.9502
16086SOL    HW250891   6.534   9.711   9.261  0.6071  0.1049  0.2768
16087SOL     OW50892   3.120   0.256   5.201 -1.0493 -0.4620  0.1500
16087SOL    HW150893   3.096   0.248   5.108 -1.2782 -1.1766  0.2652
16087SOL    HW250894   3.049   0.306   5.241  0.1032  1.7949 -0.4703
16088SOL     OW50895   7.027   9.228   7.496 -1.0049  0.4031 -0.0250
16088SOL    HW150896   7.039   9.231   7.591 -0.5012 -0.6977 -0.0448
16088SOL    HW250897   6.935   9.252   7.483 -1.9516 -2.2696  0.9762
16089SOL     OW50898   2.915   5.545   7.406  0.2149 -0.1132 -0.0987
16089SOL    HW150899   2.961   5.597   7.471  0.0099 -1.0035  0.7738
16089SOL    HW250900   2.970   5.468   7.393  0.5628  0.3330 -1.4432
16090SOL     OW50901   4.913   4.962   9.954 -0.1568 -0.2150 -0.1689
16090SOL    HW150902   5.001   4.929   9.938  0.0563  0.3839 -0.2286
16090SOL    HW250903   4.897   4.943  10.046  0.5659  0.8924  0.2080
16091SOL     OW50904   9.733   0.204   3.533 -0.2576 -0.4418 -0.1999
16091SOL    HW150905   9.744   0.144   3.459  0.5704  0.9234 -1.2225
16091SOL    HW250906   9.821   0.215   3.569 -0.1825  1.0751 -0.7863
16092SOL     OW50907   7.498   4.205   9.401  0.1313 -0.4070  0.0735
16092SOL    HW150908   7.436   4.178   9.334  2.2588 -0.1594 -2.1813
16092SOL    HW250909   7.527   4.124   9.441  1.6525 -1.0350 -2.0945
16093SOL     OW50910   3.428   2.003   2.045  0.2900 -0.0141  0.5678
16093SOL    HW150911   3.374   1.960   2.111  0.6249  0.0131  0.8573
16093SOL    HW250912   3.512   2.017   2.087  0.5550 -0.1292  0.0893
16094SOL     OW50913   4.758   3.356   4.436 -0.3279 -0.2135 -0.3200
16094SOL    HW150914   4.811   3.434   4.455 -0.1404 -0.4268  0.0609
16094SOL    HW250915   4.669   3.383   4.457 -0.2930 -0.0351 -0.3937
16095SOL     OW50916   9.072   7.157   1.371  0.5873 -0.1732 -0.0141
16095SOL    HW150917   9.141   7.209   1.330  0.9758 -0.4495  0.2819
16095SOL    HW250918   9.035   7.215   1.438  0.7111 -0.1142  0.0045
16096SOL     OW50919   4.274   5.523   5.654 -0.0093  0.4078  0.2218
16096SOL    HW150920   4.334   5.581   5.607  0.2420  0.4905  0.6410
16096SOL    HW250921   4.290   5.436   5.616 -0.2154  0.5682 -0.2390
16097SOL     OW50922   4.607   9.700   0.954 -0.1599 -0.2494  0.3533
16097SOL    HW150923   4.569   9.742   0.877 -0.3777  1.7736  1.5047
16097SOL    HW250924   4.534   9.655   0.996 -0.1241 -0.9922 -0.3435
16098SOL     OW50925   6.404   4.091   8.972  0.6908  0.2350 -0.1382
16098SOL    HW150926   6.356   4.018   8.932  0.3561  1.2341 -1.6474
16098SOL    HW250927   6.357   4.108   9.054  0.4437 -0.8689 -0.0309
16099SOL     OW50928   2.250   1.046   4.280  0.0632 -0.1560 -0.1353
16099SOL    HW150929   2.343   1.068   4.286 -0.0236  1.3153 -2.8398
16099SOL    HW250930   2.204   1.126   4.307 -0.4616 -0.9377  1.3858
16100SOL     OW50931   1.644   7.170   1.134 -0.4182 -0.4203  0.1944
16100SOL    HW150932   1.565   7.165   1.187 -0.6537 -1.4013 -0.2406
16100SOL    HW250933   1.615   7.209   1.052 -0.3281 -0.2373  0.2477
16101SOL     OW50934   3.703   8.118   3.152 -0.6747  0.5102  0.1484
16101SOL    HW150935   3.628   8.059   3.139 -1.4537  1.7151 -1.3026
16101SOL    HW250936   3.751   8.114   3.069  0.9880 -0.3371  1.1077
16102SOL     OW50937   3.211   3.064   4.080  0.2430 -0.5264  0.1827
16102SOL    HW150938   3.241   2.973   4.084 -0.7836 -0.8635  0.6667
16102SOL    HW250939   3.213   3.095   4.170  0.9083  0.0465 -0.0238
16103SOL     OW50940   4.679   6.214   0.928 -0.0521  0.0731  0.2184
16103SOL    HW150941   4.726   6.286   0.969  0.4920 -1.6267  2.8579
16103SOL    HW250942   4.626   6.177   0.998 -1.1377 -1.4460 -1.3140
16104SOL     OW50943   3.996   5.296   9.201 -0.1036 -0.1251  0.8753
16104SOL    HW150944   4.047   5.329   9.275  0.4016  0.0952  0.4307
16104SOL    HW250945   4.032   5.209   9.184  1.3880  0.7277 -0.5973
16105SOL     OW50946   1.852   9.427   6.384  0.2096  0.1173  0.2509
16105SOL    HW150947   1.782   9.471   6.432  0.2620  0.3657  0.1001
16105SOL    HW250948   1.845   9.460   6.295 -1.5810 -2.3005 -0.5916
16106SOL     OW50949   0.072   3.475   3.767  0.1791  0.1086 -0.0304
16106SOL    HW150950   0.073   3.463   3.862 -0.7547 -0.2464 -0.0477
16106SOL    HW250951   0.070   3.385   3.732  1.7524  0.2035 -0.4339
16107SOL     OW50952   9.058   0.924   9.654 -0.2398  0.2372  0.0835
16107SOL    HW150953   9.136   0.965   9.617 -0.8020 -0.0454 -1.4784
16107SOL    HW250954   9.089   0.884   9.735  1.3407 -0.2223 -0.6992
16108SOL     OW50955   6.629   1.029   9.755 -0.4550 -0.6940 -0.2887
16108SOL    HW150956   6.702   1.075   9.797  1.0869 -0.9329 -2.5523
16108SOL    HW250957   6.572   1.099   9.722 -0.3824 -0.4923  0.0054
16109SOL     OW50958   5.513   8.151   9.418 -0.3115  0.6231  0.0251
16109SOL    HW150959   5.504   8.239   9.454  2.0383  1.6757 -1.6834
16109SOL    HW250960   5.601   8.149   9.381 -0.9290 -1.8655 -1.5720
16110SOL     OW50961   7.582   2.472   8.746 -0.1334  0.2364 -0.5348
16110SOL    HW150962   7.489   2.451   8.744 -0.0622 -0.0702 -0.6917
16110SOL    HW250963   7.585   2.568   8.744 -0.5145  0.4105  2.7268
16111SOL     OW50964   0.271   5.922   3.860 -0.0452  0.1333 -0.3028
16111SOL    HW150965   0.353   5.892   3.898  0.1188  0.5042 -0.3543
16111SOL    HW250966   0.227   5.968   3.931 -0.6850 -0.9448  0.0195
16112SOL     OW50967   2.500   9.227   1.111 -0.0089  0.0535  0.5666
16112SOL    HW150968   2.547   9.166   1.055 -0.5035 -0.3326  0.5630
16112SOL    HW250969   2.474   9.175   1.187  0.7545  0.6004  1.2177
16113SOL     OW50970   0.445   6.827   2.146 -0.4178  0.0141  0.3881
16113SOL    HW150971   0.426   6.734   2.156 -1.9728  0.3715  0.9735
16113SOL    HW250972   0.539   6.834   2.165 -0.5774 -1.2269  1.8193
16114SOL     OW50973   2.012   6.223   0.869  0.1426 -0.4542  0.4345
16114SOL    HW150974   2.034   6.222   0.962  0.3987  1.6137  0.4603
16114SOL    HW250975   2.069   6.158   0.829 -0.5764 -1.9935  1.8154
16115SOL     OW50976   1.580   2.362   1.700 -0.0506  0.3933 -0.2719
16115SOL    HW150977   1.627   2.299   1.755 -1.3347 -0.3229  0.0340
16115SOL    HW250978   1.584   2.325   1.612 -1.2903 -0.4510 -0.0025
16116SOL     OW50979   5.358   3.357   5.546 -0.7496  0.1380 -0.1297
16116SOL    HW150980   5.297   3.351   5.473 -0.3137 -0.1810 -0.4719
16116SOL    HW250981   5.382   3.449   5.551 -0.4982  0.0979 -0.6182
16117SOL     OW50982   5.630   3.508  10.065  0.0569 -0.4845 -0.2025
16117SOL    HW150983   5.719   3.528  10.094  0.3808 -3.1345  0.8507
16117SOL    HW250984   5.595   3.449  10.132 -2.6304  0.6845 -0.4412
16118SOL     OW50985   3.082   2.793   2.622  0.5440 -0.0574  0.8239
16118SOL    HW150986   3.065   2.883   2.594  1.1101 -0.2618 -0.2216
16118SOL    HW250987   2.999   2.763   2.659  0.4009  0.9515  1.3641
16119SOL     OW50988   9.479   6.849   0.823  0.1163 -0.2965 -0.5657
16119SOL    HW150989   9.384   6.841   0.825  0.1160 -0.6370 -1.5345
16119SOL    HW250990   9.509   6.796   0.897 -0.4685  0.5693  0.3360
16120SOL     OW50991   5.941   3.196   7.383 -0.4965 -0.6245  0.4151
16120SOL    HW150992   5.963   3.177   7.292 -0.6572 -1.5319  0.5535
16120SOL    HW250993   5.894   3.118   7.413  0.1164 -0.6013  1.4704
16121SOL     OW50994   6.399   6.742   4.129 -0.0993 -0.0512 -0.1080
16121SOL    HW150995   6.343   6.803   4.081 -1.6250 -0.6508  0.8477
16121SOL    HW250996   6.407   6.666   4.070 -0.4486 -0.0388 -0.1723
16122SOL     OW50997   2.165   4.176   8.773  0.0819 -0.5030 -0.8179
16122SOL    HW150998   2.209   4.176   8.859 -1.2237 -1.3881 -0.1209
16122SOL    HW250999   2.114   4.256   8.772  0.5701 -0.1861 -1.0424
16123SOL     OW51000   9.371   2.698   2.440 -0.8987 -0.4678 -0.0652
16123SOL    HW151001   9.438   2.630   2.434 -0.4648  0.0085 -0.8227
16123SOL    HW251002   9.345   2.698   2.532 -0.5354 -1.3026  0.0476
16124SOL     OW51003   5.017   2.858   1.806  0.2589 -0.2946 -0.2648
16124SOL    HW151004   4.971   2.915   1.745 -0.6930 -0.3569  0.3672
16124SOL    HW251005   5.051   2.787   1.752  0.0656  0.0370 -0.8284
16125SOL     OW51006   5.002   2.602   8.533 -0.4611 -1.0852 -0.3277
16125SOL    HW151007   5.079   2.591   8.477  0.1733 -0.5445  0.4179
16125SOL    HW251008   4.952   2.521   8.522  0.4021 -1.5975 -0.5434
16126SOL     OW51009   3.564   6.794   0.354  0.4029 -0.2189 -0.8323
16126SOL    HW151010   3.603   6.795   0.442  0.1911  0.2545 -0.7373
16126SOL    HW251011   3.567   6.703   0.327  1.1421 -0.2622 -0.6287
16127SOL     OW51012   6.457   7.972   5.211 -0.1898 -0.1219 -0.2448
16127SOL    HW151013   6.467   8.045   5.273 -0.0464  0.1222 -0.5574
16127SOL    HW251014   6.546   7.945   5.191 -0.2393 -1.3633  1.0091
16128SOL     OW51015   3.392   8.754   3.167 -0.1662 -0.6178 -0.1016
16128SOL    HW151016   3.424   8.675   3.212  1.9369  0.2505  0.0367
16128SOL    HW251017   3.469   8.811   3.161 -0.7116 -0.0368 -3.4244
16129SOL     OW51018   1.660   9.610   0.891 -0.7154 -0.2691 -0.1763
16129SOL    HW151019   1.747   9.606   0.930 -1.2676  0.8264  1.2817
16129SOL    HW251020   1.659   9.539   0.827  1.6625  0.4374 -1.1328
16130SOL     OW51021   2.666   5.390   7.379  0.6779 -0.1497  0.3459
16130SOL    HW151022   2.709   5.311   7.347  0.2140  0.2014 -1.2488
16130SOL    HW251023   2.737   5.448   7.404  1.0659 -0.5482  0.1789
16131SOL     OW51024  10.211   7.041   0.231 -0.0460 -0.2019 -0.3262
16131SOL    HW151025  10.224   7.120   0.285 -1.1892  0.6622 -1.2687
16131SOL    HW251026  10.143   6.992   0.276 -0.0619 -0.1345 -0.2756
16132SOL     OW51027   2.885   6.592   3.583 -0.2594  0.2376  0.6092
16132SOL    HW151028   2.806   6.554   3.545  0.8472 -1.2792 -0.2982
16132SOL    HW251029   2.943   6.609   3.509  1.8105 -2.4581  1.4072
16133SOL     OW51030   7.725   2.614   9.403 -0.1059 -0.0222  0.5551
16133SOL    HW151031   7.749   2.536   9.453 -0.8789 -0.7029 -0.1170
16133SOL    HW251032   7.713   2.582   9.313  1.6107  1.2244 -0.1826
16134SOL     OW51033   9.846   3.083   4.096 -0.7351  0.3986  0.5452
16134SOL    HW151034   9.925   3.084   4.150  0.2971  1.0204 -0.9159
16134SOL    HW251035   9.795   3.008   4.129  1.2142 -1.0406  0.4537
16135SOL     OW51036   7.974   5.681   0.090 -0.1167 -0.2392 -0.2147
16135SOL    HW151037   8.019   5.597   0.082  1.1031  0.4060 -0.2792
16135SOL    HW251038   8.025   5.741   0.037  0.9179  1.2930  2.3405
16136SOL     OW51039   5.665   7.729   8.151 -0.5179  0.8660  0.2250
16136SOL    HW151040   5.627   7.641   8.146  1.3584 -0.0544  1.0061
16136SOL    HW251041   5.735   7.721   8.216 -0.5168  3.0425  0.5709
16137SOL     OW51042   7.051   1.832   0.277 -0.1026 -0.2521  0.1425
16137SOL    HW151043   7.072   1.839   0.184  1.1776 -0.1306  0.4277
16137SOL    HW251044   7.035   1.738   0.292 -1.7711 -0.1068 -0.4700
16138SOL     OW51045   4.899   3.626   4.764  0.3605  0.3025 -0.2137
16138SOL    HW151046   4.829   3.639   4.828 -0.6365  2.9518 -1.6720
16138SOL    HW251047   4.945   3.710   4.761  0.6423  0.1299 -2.5850
16139SOL     OW51048   0.316   9.441   4.370 -0.2312  0.6502  0.2760
16139SOL    HW151049   0.232   9.408   4.402  0.6290 -0.2443  1.7512
16139SOL    HW251050   0.378   9.420   4.440  1.4847  0.0921 -1.3348
16140SOL     OW51051   2.747   0.608   5.349  0.1782  0.0623 -0.0301
16140SOL    HW151052   2.660   0.596   5.387 -0.2222 -0.6405 -1.1238
16140SOL    HW251053   2.732   0.612   5.255  1.2736  0.5527 -0.1984
16141SOL     OW51054   4.377   5.746   2.639 -0.2911 -0.3694 -0.2027
16141SOL    HW151055   4.415   5.775   2.722 -0.7510 -0.7987  0.1623
16141SOL    HW251056   4.371   5.651   2.648 -0.7676 -0.3738 -0.5475
16142SOL     OW51057   3.701   7.907  10.111  0.2345 -0.0394 -0.3759
16142SOL    HW151058   3.662   7.822  10.091 -0.6260  0.0414  0.8608
16142SOL    HW251059   3.794   7.897  10.088 -0.2977 -0.4807 -2.6493
16143SOL     OW51060  10.274   4.488  10.179 -0.7754 -0.6200  0.0001
16143SOL    HW151061  10.344   4.524  10.234  0.6508 -0.8412 -1.5963
16143SOL    HW251062  10.213   4.560  10.168 -1.2048 -0.6102  1.9629
16144SOL     OW51063   9.776   3.100   2.189 -0.2995  0.2657 -0.5008
16144SOL    HW151064   9.740   3.153   2.260 -0.9501  0.6668 -1.1234
16144SOL    HW251065   9.809   3.164   2.126 -1.5942 -0.0512 -1.5167
16145SOL     OW51066   1.995   7.833   9.570 -0.4433  0.1518  0.1299
16145SOL    HW151067   2.083   7.820   9.534 -1.0690 -1.0575 -1.0809
16145SOL    HW251068   2.006   7.899   9.637  1.4023  0.0015  0.0325
16146SOL     OW51069   5.634   1.947   3.601 -0.0617 -1.0926 -0.6898
16146SOL    HW151070   5.582   1.968   3.678 -1.1677 -0.7444 -1.5045
16146SOL    HW251071   5.580   1.885   3.552 -0.4193  0.4521 -2.3163
16147SOL     OW51072   0.740   1.844   2.601  0.0855  0.4526  0.1180
16147SOL    HW151073   0.761   1.805   2.516 -1.0695 -0.9751  0.4429
16147SOL    HW251074   0.659   1.893   2.585 -0.5137 -0.3770  0.5112
16148SOL     OW51075   4.532   9.487   5.997  0.5657 -0.0427 -0.4742
16148SOL    HW151076   4.439   9.468   6.013  0.6131 -0.3565 -0.5622
16148SOL    HW251077   4.579   9.415   6.039  0.6893 -1.0747 -2.2494
16149SOL     OW51078   7.979  10.121   8.827 -0.0562  0.2092 -0.1126
16149SOL    HW151079   7.906  10.080   8.875 -0.3844  1.1453  0.2135
16149SOL    HW251080   7.947  10.129   8.737  0.4460 -1.2715 -0.4604
16150SOL     OW51081   7.406   4.535   1.380 -0.2407 -0.3966  0.1266
16150SOL    HW151082   7.477   4.589   1.345 -1.3016  1.5205  0.7881
16150SOL    HW251083   7.433   4.445   1.361  1.1134  0.3722 -1.9651
16151SOL     OW51084  10.159   8.770   1.766  0.9122 -0.3731 -0.2142
16151SOL    HW151085  10.225   8.701   1.764  1.7904  0.4671 -1.1294
16151SOL    HW251086  10.209   8.851   1.766 -0.0792  0.2994  1.5246
16152SOL     OW51087   9.553   6.661   7.510 -0.3618  0.7906  0.0424
16152SOL    HW151088   9.569   6.735   7.453  0.1004  1.5778  1.1702
16152SOL    HW251089   9.559   6.696   7.599  0.0457 -0.6197  0.6091
16153SOL     OW51090   5.976   0.561   4.008  0.1661  0.9171 -0.1192
16153SOL    HW151091   5.969   0.579   4.101  0.1174 -0.5933  0.1910
16153SOL    HW251092   6.030   0.483   4.002 -0.5340  0.4859 -1.2959
16154SOL     OW51093   8.344   2.058   6.642  0.6496 -0.0352  0.3447
16154SOL    HW151094   8.363   2.079   6.733  1.2662 -0.3467  0.2910
16154SOL    HW251095   8.253   2.085   6.629 -0.0020 -1.5143  1.5324
16155SOL     OW51096   6.807   2.826   3.570 -0.4327 -0.4015  0.1160
16155SOL    HW151097   6.842   2.836   3.659  1.0194 -1.0160 -0.3612
16155SOL    HW251098   6.714   2.844   3.580 -0.8890 -3.1068  2.3357
16156SOL     OW51099   2.395   7.179   5.728  0.5162 -0.7524  0.1634
16156SOL    HW151100   2.395   7.223   5.812  1.1309 -0.2463 -0.0933
16156SOL    HW251101   2.487   7.165   5.707  0.3633 -1.2273 -0.2479
16157SOL     OW51102   2.760  10.283   4.770 -0.4934  0.1769  1.2045
16157SOL    HW151103   2.754  10.344   4.843 -0.7812  2.2707 -0.4776
16157SOL    HW251104   2.714  10.204   4.801 -0.3119  0.8456  3.3496
16158SOL     OW51105   3.855   7.140   8.782  0.0595  0.3209  0.1221
16158SOL    HW151106   3.856   7.045   8.778 -1.6953  0.2035  1.6281
16158SOL    HW251107   3.819   7.161   8.868  0.5585  2.3524 -0.1113
16159SOL     OW51108   7.321   4.366   9.629 -0.2990  0.0178  0.5547
16159SOL    HW151109   7.254   4.314   9.585 -2.0118  0.7644  2.1274
16159SOL    HW251110   7.387   4.303   9.657 -0.8571 -0.8821 -0.1157
16160SOL     OW51111   4.714   2.786   8.402 -0.2630  0.3361  0.2486
16160SOL    HW151112   4.703   2.704   8.450 -1.7295 -0.5956 -1.5332
16160SOL    HW251113   4.777   2.764   8.333  0.3668  1.1137  0.5648
16161SOL     OW51114   7.097   2.078   5.807  0.2912  0.0686  0.0020
16161SOL    HW151115   7.163   2.110   5.868 -1.6636  2.8528  0.8480
16161SOL    HW251116   7.145   2.019   5.749  2.5476 -1.6200  3.2683
16162SOL     OW51117   0.815   3.967   0.687  0.1805 -0.5962 -0.8743
16162SOL    HW151118   0.751   3.973   0.758 -0.4964  1.4802 -1.5904
16162SOL    HW251119   0.897   3.998   0.725 -0.0614  0.0117 -0.8355
16163SOL     OW51120   4.475   8.282   3.612 -0.6641 -0.2953 -0.0572
16163SOL    HW151121   4.542   8.339   3.649  0.5504  0.7177 -3.4459
16163SOL    HW251122   4.407   8.342   3.581 -1.2742 -1.0000 -0.1124
16164SOL     OW51123   9.505   5.506   6.718  0.1586  0.7140 -0.0085
16164SOL    HW151124   9.580   5.487   6.774  1.2530  2.6458 -0.7082
16164SOL    HW251125   9.528   5.468   6.634 -0.0861  0.4819  0.0295
16165SOL     OW51126   7.525   3.504   5.612  0.4477 -0.1295 -0.5219
16165SOL    HW151127   7.556   3.595   5.620  0.9968 -0.4059  0.8509
16165SOL    HW251128   7.514   3.475   5.703 -0.8703 -1.0634 -0.9510
16166SOL     OW51129   7.251   3.043   3.452  0.0190  0.2170 -0.3218
16166SOL    HW151130   7.302   3.051   3.371  0.9357  0.9762  0.3154
16166SOL    HW251131   7.206   2.959   3.443  0.8496 -0.1624 -1.2017
16167SOL     OW51132   7.148   6.115   4.637 -0.3798  0.0145 -0.2116
16167SOL    HW151133   7.240   6.138   4.649 -0.8134  2.7048 -1.1386
16167SOL    HW251134   7.138   6.104   4.542 -0.8118 -1.3679 -0.0241
16168SOL     OW51135   2.218   4.752   3.532  0.3904  0.7769 -0.2196
16168SOL    HW151136   2.150   4.812   3.500 -1.8855 -0.9416  1.0455
16168SOL    HW251137   2.250   4.793   3.612 -1.5597  0.1800  0.9539
16169SOL     OW51138   5.818   4.879   0.328 -0.0870 -0.5684 -0.1602
16169SOL    HW151139   5.740   4.831   0.356  0.4353 -0.3586  1.8064
16169SOL    HW251140   5.785   4.964   0.298 -0.7393 -1.0677 -0.8993
16170SOL     OW51141   5.988   3.450   7.835  0.4494  0.4899 -0.1594
16170SOL    HW151142   5.911   3.495   7.870  0.8179  1.0763 -0.0897
16170SOL    HW251143   6.034   3.517   7.784  1.9727  0.7435  1.4330
16171SOL     OW51144   7.163   6.374   8.672  0.0492  0.0237 -0.2257
16171SOL    HW151145   7.257   6.359   8.685  0.0635  0.5579  0.3744
16171SOL    HW251146   7.149   6.360   8.579  0.4517 -1.4840 -0.0885
16172SOL     OW51147   4.117   4.384   5.677  0.3986 -0.2520  0.1720
16172SOL    HW151148   4.106   4.474   5.709  3.3040  0.7331 -1.2095
16172SOL    HW251149   4.202   4.385   5.633 -0.4172 -3.1924 -1.7355
16173SOL     OW51150   0.951   2.439   9.957 -0.1853 -0.5978 -0.1998
16173SOL    HW151151   0.995   2.454  10.040 -0.4269  0.6555 -0.2862
16173SOL    HW251152   0.862   2.471   9.970 -0.2069 -0.3204 -0.9502
16174SOL     OW51153   3.230   6.197   4.733  0.1800  0.1830 -0.5801
16174SOL    HW151154   3.221   6.123   4.673 -0.0104 -0.7610  0.5850
16174SOL    HW251155   3.225   6.158   4.820  0.3295  1.5441  0.0572
16175SOL     OW51156   3.974   2.131   8.920 -0.1020  0.1520 -0.3545
16175SOL    HW151157   3.912   2.081   8.973 -0.6587  1.2709  0.0948
16175SOL    HW251158   4.007   2.198   8.980 -1.0469  1.7041 -1.4863
16176SOL     OW51159   3.371  10.191   3.053 -0.5068 -0.0779 -0.1616
16176SOL    HW151160   3.313  10.182   3.129  0.3965 -0.8009  0.4674
16176SOL    HW251161   3.400  10.282   3.054  0.5203 -0.3886  1.1542
16177SOL     OW51162   3.613   0.244   5.301  0.5792  0.2550  0.7126
16177SOL    HW151163   3.626   0.242   5.396  1.6950 -3.0041  0.6391
16177SOL    HW251164   3.533   0.194   5.287 -0.4170  1.9740 -0.0619
16178SOL     OW51165   4.718   4.676  10.057  0.1637 -0.3278 -0.3481
16178SOL    HW151166   4.794   4.725  10.089  0.5057  0.3963 -2.1356
16178SOL    HW251167   4.703   4.710   9.969 -0.6693 -2.2425 -1.0067
16179SOL     OW51168   0.199   1.700   6.600 -0.2135  0.6583 -0.3594
16179SOL    HW151169   0.291   1.719   6.616  0.2036 -2.1055  1.1124
16179SOL    HW251170   0.156   1.717   6.684 -0.1267 -2.4545  0.4528
16180SOL     OW51171   3.094   0.230   6.948 -0.2129  0.0686  0.1410
16180SOL    HW151172   3.074   0.318   6.980  1.2033  0.2934  0.4750
16180SOL    HW251173   3.186   0.235   6.922  0.0471 -1.4629  0.7005
16181SOL     OW51174   7.964   0.049   2.965  0.1164 -0.2008  0.2499
16181SOL    HW151175   7.956   0.136   3.003 -2.6087  0.3470 -1.2994
16181SOL    HW251176   8.008   0.063   2.881  1.3049 -0.6134  0.7888
16182SOL     OW51177   9.010   3.948   0.988 -0.0164 -0.6464 -1.0237
16182SOL    HW151178   9.058   3.995   0.920 -0.8345 -0.7010 -1.6526
16182SOL    HW251179   8.964   4.017   1.037  0.2099 -0.6456 -0.8093
16183SOL     OW51180   8.519   5.481   0.005  0.4690  0.0112  0.1417
16183SOL    HW151181   8.532   5.473   0.099  1.0982  0.2162  0.0798
16183SOL    HW251182   8.595   5.438  -0.034 -0.6660 -1.6632 -0.3118
16184SOL     OW51183   4.011   8.748   9.583  0.4625 -0.4232 -0.2304
16184SOL    HW151184   4.010   8.841   9.605 -1.2157  0.6779 -4.0615
16184SOL    HW251185   3.918   8.723   9.579  0.8818 -2.2820  0.7196
16185SOL     OW51186   6.214   0.538   8.317 -0.4934 -0.0574 -0.0613
16185SOL    HW151187   6.178   0.560   8.231  1.6330 -0.3409 -1.0920
16185SOL    HW251188   6.153   0.578   8.380 -2.3123 -0.1568 -1.6540
16186SOL     OW51189   3.102   2.212   0.390  0.0493  0.2363 -0.0887
16186SOL    HW151190   3.162   2.280   0.420 -0.1849  0.6129 -0.4525
16186SOL    HW251191   3.070   2.171   0.470  0.7294  0.0813  0.1101
16187SOL     OW51192   8.929   9.948   9.173  0.4417  0.1015  0.5010
16187SOL    HW151193   8.835   9.945   9.194  0.0803 -2.2699 -1.0859
16187SOL    HW251194   8.960   9.859   9.190  1.7037  0.0271 -1.7496
16188SOL     OW51195   9.001   6.926   4.625 -0.4936  0.0551 -0.2718
16188SOL    HW151196   9.024   7.014   4.595 -1.6749  0.4936  0.0328
16188SOL    HW251197   9.062   6.908   4.696 -0.3648  0.7134 -0.2080
16189SOL     OW51198   7.368   2.826   7.063 -0.3818  0.0900  0.0883
16189SOL    HW151199   7.391   2.747   7.013  0.6123 -0.6855  1.7149
16189SOL    HW251200   7.273   2.825   7.067 -0.3817 -0.9660 -0.0085
16190SOL     OW51201   5.558   8.546   9.020 -0.0309  0.2000 -0.5061
16190SOL    HW151202   5.507   8.466   9.008 -1.0415  0.8895 -0.8666
16190SOL    HW251203   5.601   8.533   9.105 -1.7179  0.0823  0.3762
16191SOL     OW51204   7.265   2.227   4.382 -0.1031 -0.2086 -0.0141
16191SOL    HW151205   7.261   2.234   4.477  0.0944 -0.3514  0.0065
16191SOL    HW251206   7.265   2.133   4.364 -1.9411 -0.1949 -0.2494
16192SOL     OW51207   2.439   5.751   8.946 -0.2011 -0.6409 -0.8313
16192SOL    HW151208   2.451   5.665   8.906  0.4438 -0.3244 -1.3457
16192SOL    HW251209   2.345   5.766   8.943 -0.3483 -1.4282 -0.5191
16193SOL     OW51210   2.269   6.743   2.554 -0.6902 -0.2188 -0.2594
16193SOL    HW151211   2.290   6.652   2.576  1.9104  0.5132  0.6768
16193SOL    HW251212   2.326   6.795   2.611  0.2334  1.9317 -2.9171
16194SOL     OW51213   4.566   7.641   6.086  0.1562 -0.1270 -0.1772
16194SOL    HW151214   4.643   7.623   6.139  0.3489  2.9277  0.7852
16194SOL    HW251215   4.492   7.627   6.145  0.0093 -1.7397 -0.7023
16195SOL     OW51216   1.116   6.625   3.157 -0.2267  0.3139  0.2614
16195SOL    HW151217   1.067   6.646   3.077 -0.2064  0.1658  0.2110
16195SOL    HW251218   1.056   6.570   3.208 -0.4146  0.7754  0.5511
16196SOL     OW51219   9.979   5.317   9.564 -0.3189 -0.1387 -0.2477
16196SOL    HW151220   9.903   5.372   9.580  0.8744  1.6127 -0.3276
16196SOL    HW251221   9.949   5.254   9.498 -1.0223  2.1839 -2.3143
16197SOL     OW51222   4.708   7.242   2.610 -0.1783 -0.6760  0.6582
16197SOL    HW151223   4.796   7.224   2.642 -0.2709 -0.2260  1.1871
16197SOL    HW251224   4.721   7.273   2.521  0.2440 -0.1951  0.8762
16198SOL     OW51225   8.653   3.846   7.851  0.5437  0.0119 -0.1200
16198SOL    HW151226   8.740   3.886   7.852  0.6140 -0.1242 -0.5661
16198SOL    HW251227   8.649   3.799   7.768  1.0056 -2.0906  0.9897
16199SOL     OW51228   6.345   5.983   0.946  0.3610  0.1729 -0.0319
16199SOL    HW151229   6.414   5.960   0.884  0.1380  1.1423 -0.6702
16199SOL    HW251230   6.315   5.900   0.981  1.5320 -0.2935 -0.0913
16200SOL     OW51231   1.440   3.470   3.511  0.6848 -0.7242  0.1888
16200SOL    HW151232   1.478   3.447   3.426 -0.2598 -1.2482 -0.1078
16200SOL    HW251233   1.393   3.552   3.495  0.8314 -0.6222  0.2918
16201SOL     OW51234   5.216   2.846   8.582 -0.0609 -0.6213 -0.2795
16201SOL    HW151235   5.230   2.770   8.637  0.1274  0.8056  1.7396
16201SOL    HW251236   5.121   2.857   8.579 -0.0679  1.0416  2.4394
16202SOL     OW51237   1.712   6.720   2.628 -0.3402 -0.1277 -0.7116
16202SOL    HW151238   1.655   6.644   2.615 -0.9467 -0.1337  1.5922
16202SOL    HW251239   1.800   6.683   2.636 -0.6803 -0.6636  0.7831
16203SOL     OW51240   9.058   5.043   5.876 -0.2185  0.1462 -0.6667
16203SOL    HW151241   9.001   5.074   5.805 -2.3109 -3.0757 -0.6247
16203SOL    HW251242   9.139   5.017   5.832 -1.0665 -0.7639 -1.7829
16204SOL     OW51243   6.863   1.370   5.225 -0.1847  0.1286 -0.0959
16204SOL    HW151244   6.904   1.449   5.259 -0.9381  0.7109 -0.5195
16204SOL    HW251245   6.924   1.338   5.157 -0.4748  1.0540 -0.8110
16205SOL     OW51246  10.184   3.688   2.726 -0.1097 -0.4125 -0.2618
16205SOL    HW151247  10.240   3.613   2.748 -0.7853 -0.7352  0.4101
16205SOL    HW251248  10.236   3.764   2.749  0.3871 -0.6853 -0.4655
16206SOL     OW51249   2.347   1.175   6.973 -0.0230 -0.4633 -0.0589
16206SOL    HW151250   2.436   1.188   6.939  0.3876  0.6436  1.3564
16206SOL    HW251251   2.295   1.241   6.928  0.5631  1.1474  1.4667
16207SOL     OW51252   7.174   5.538   4.527 -0.2208  0.2353 -0.7502
16207SOL    HW151253   7.117   5.604   4.487 -0.1168  0.6249 -0.2594
16207SOL    HW251254   7.237   5.589   4.578 -3.5858 -0.2217  4.5933
16208SOL     OW51255   2.855   2.093   1.123 -0.4812 -0.2079 -0.1764
16208SOL    HW151256   2.841   2.014   1.071  0.1554 -0.5035  0.0882
16208SOL    HW251257   2.791   2.086   1.194 -0.4919 -0.4431 -0.2083
16209SOL     OW51258   6.868   9.882   3.405 -0.1900  0.5823 -0.0210
16209SOL    HW151259   6.791   9.886   3.461 -0.3121  1.5515 -0.2408
16209SOL    HW251260   6.911   9.967   3.418  2.3338 -0.8686  2.1678
16210SOL     OW51261   9.820   7.179   4.867  0.4482 -0.3595 -0.3344
16210SOL    HW151262   9.804   7.088   4.890 -0.9328 -0.0778 -0.0844
16210SOL    HW251263   9.764   7.229   4.926  2.2831  0.7538  0.5590
16211SOL     OW51264   6.517   0.532   0.131  0.5308  0.4105  0.5188
16211SOL    HW151265   6.583   0.545   0.199  0.8040  0.4491  0.2481
16211SOL    HW251266   6.565   0.539   0.049  0.4586 -0.9179  0.3321
16212SOL     OW51267   9.010   6.188   2.511 -0.3152  0.0760  0.2936
16212SOL    HW151268   9.047   6.162   2.596  1.3225 -0.3157 -0.5103
16212SOL    HW251269   9.080   6.173   2.448 -0.8497  2.1589 -0.8907
16213SOL     OW51270   8.597   6.770   4.925 -0.4784  0.1432  0.4377
16213SOL    HW151271   8.533   6.733   4.865  0.5990 -0.9141 -0.0958
16213SOL    HW251272   8.677   6.720   4.910  0.9278  2.3287  0.0756
16214SOL     OW51273   4.278   8.272   2.723 -0.2830 -0.2874  0.7532
16214SOL    HW151274   4.360   8.308   2.755 -0.6948  2.3347 -0.8336
16214SOL    HW251275   4.211   8.336   2.748 -1.4092 -0.9388 -0.3980
16215SOL     OW51276   4.652   1.139   8.099 -0.2311  0.1536  0.4198
16215SOL    HW151277   4.620   1.161   8.186  1.1130 -1.3436  1.3711
16215SOL    HW251278   4.724   1.077   8.116 -0.4248 -0.7488 -1.7825
16216SOL     OW51279   6.117   6.743   1.063  0.3444  0.3732 -0.4287
16216SOL    HW151280   6.025   6.767   1.056  1.1164  3.2243 -2.2156
16216SOL    HW251281   6.149   6.792   1.140  0.4430 -0.4648  0.0795
16217SOL     OW51282   8.404   9.693   3.850 -0.2848 -0.2354 -0.1862
16217SOL    HW151283   8.369   9.666   3.765 -2.6933 -0.0362  0.6595
16217SOL    HW251284   8.338   9.752   3.886 -0.1453 -1.5442  2.5067
16218SOL     OW51285   7.797   6.328   9.143 -0.4487  0.1620  0.5094
16218SOL    HW151286   7.860   6.347   9.073 -0.9936  0.4391  0.0890
16218SOL    HW251287   7.838   6.257   9.193  2.0323  2.7897  2.5723
16219SOL     OW51288   5.360   0.694   3.197 -0.2602 -0.1833 -0.1707
16219SOL    HW151289   5.333   0.631   3.264 -0.6504  0.6575  0.4813
16219SOL    HW251290   5.286   0.698   3.137  0.1257 -1.0053 -0.7152
16220SOL     OW51291   7.228   1.329   5.402  0.2692 -0.6268  0.0621
16220SOL    HW151292   7.144   1.353   5.443 -0.3610 -1.0148 -0.9646
16220SOL    HW251293   7.293   1.383   5.447 -0.4554 -0.7159  1.2534
16221SOL     OW51294   6.526   0.741   4.699  0.4736  0.1700 -0.2424
16221SOL    HW151295   6.535   0.825   4.744  0.7895 -0.3998  0.7976
16221SOL    HW251296   6.555   0.758   4.610  1.7498  0.8846  0.2763
16222SOL     OW51297   8.591   7.923   2.973 -0.1460 -0.2424 -0.2309
16222SOL    HW151298   8.598   7.953   2.883 -4.0168  0.7546 -0.3914
16222SOL    HW251299   8.507   7.877   2.976 -0.1716 -0.1851  2.8597
16223SOL     OW51300   1.357   0.719   6.355  0.0443 -0.3897  0.1727
16223SOL    HW151301   1.305   0.656   6.404  1.2604 -1.1543  0.5262
16223SOL    HW251302   1.308   0.801   6.361 -2.3315 -1.5538 -1.5234
16224SOL     OW51303   3.031   8.698   7.491 -0.2924  0.1507 -0.4874
16224SOL    HW151304   3.080   8.704   7.409  0.0467  0.8010 -0.2454
16224SOL    HW251305   3.020   8.604   7.506  1.7107 -0.0671 -0.0651
16225SOL     OW51306   6.030   8.127   5.554 -0.3865 -0.1221 -0.5893
16225SOL    HW151307   5.947   8.095   5.590 -1.4480  1.1289 -1.7638
16225SOL    HW251308   6.097   8.070   5.591 -1.7916 -1.2706  0.2774
16226SOL     OW51309   6.650   4.094   0.912 -0.1034 -0.3012 -0.3032
16226SOL    HW151310   6.678   4.160   0.848 -1.2339  0.9118  0.4021
16226SOL    HW251311   6.652   4.140   0.996 -1.6921 -0.8827  0.0990
16227SOL     OW51312   1.239   3.068   0.484  0.5593 -0.5647 -0.0213
16227SOL    HW151313   1.207   3.108   0.403  1.1529 -1.0458 -0.5025
16227SOL    HW251314   1.189   2.987   0.493  0.6250 -0.6032 -0.0021
16228SOL     OW51315   8.584   3.665   2.288  0.7000 -0.2929  0.3330
16228SOL    HW151316   8.670   3.699   2.311  1.2357 -0.6733 -1.0123
16228SOL    HW251317   8.601   3.584   2.240 -0.2760  0.5478 -1.5784
16229SOL     OW51318   7.592   5.889   2.734 -0.3828 -0.1926 -0.7553
16229SOL    HW151319   7.552   5.969   2.768 -2.4462 -1.7680  0.8091
16229SOL    HW251320   7.517   5.837   2.702  0.8296 -1.7193 -1.2472
16230SOL     OW51321   1.385   6.675   1.306  0.4412  0.2407  0.7219
16230SOL    HW151322   1.341   6.615   1.246  2.1192 -0.0352 -0.3225
16230SOL    HW251323   1.388   6.628   1.389 -0.0199 -0.2934  0.4416
16231SOL     OW51324   1.488   4.519   7.681 -0.1542 -0.8046  0.6142
16231SOL    HW151325   1.534   4.597   7.713 -0.1337 -0.3663 -0.4460
16231SOL    HW251326   1.429   4.552   7.614  0.6895 -1.8238 -0.6864
16232SOL     OW51327   3.338   9.708   7.869  0.0280  0.2132  0.3152
16232SOL    HW151328   3.312   9.656   7.945  0.1859 -1.4467 -0.7283
16232SOL    HW251329   3.261   9.709   7.813  0.7841 -1.0638 -0.8092
16233SOL     OW51330   5.894   0.007   9.698 -0.4726  0.1982  0.5092
16233SOL    HW151331   5.966  -0.050   9.727 -0.5072 -0.0036  0.2010
16233SOL    HW251332   5.857  -0.038   9.622  0.3946  1.3246 -0.6157
16234SOL     OW51333   6.642   7.623   6.315  0.0676 -0.3245  0.2825
16234SOL    HW151334   6.607   7.534   6.327  1.1969 -0.7049  0.8942
16234SOL    HW251335   6.734   7.615   6.338  0.3809  0.8307 -0.5195
16235SOL     OW51336   5.199  10.241   1.457 -0.1160  0.0691 -0.7860
16235SOL    HW151337   5.201  10.202   1.545  0.0050 -1.2933 -1.3604
16235SOL    HW251338   5.112  10.220   1.424 -0.2641  0.8362 -0.8898
16236SOL     OW51339   4.130   1.843   5.845  0.6019  0.3518 -0.3961
16236SOL    HW151340   4.054   1.901   5.841  0.5829  0.3988  0.4320
16236SOL    HW251341   4.154   1.841   5.938  1.1311 -0.2814 -0.5363
16237SOL     OW51342   3.883   4.960   8.678  0.3162  0.0298  0.0455
16237SOL    HW151343   3.871   4.987   8.586 -0.4617  1.2563  0.4810
16237SOL    HW251344   3.814   5.007   8.725 -0.8102 -2.3956  0.9570
16238SOL     OW51345   3.380   5.537   5.990 -0.3001 -0.1849  0.0153
16238SOL    HW151346   3.436   5.505   5.920  0.0290 -1.3207  0.7723
16238SOL    HW251347   3.320   5.465   6.008 -1.1477  0.5313  0.1076
16239SOL     OW51348   7.361   1.202   9.882 -0.0794  0.4729  0.2471
16239SOL    HW151349   7.366   1.282   9.935  0.9700  1.2632 -0.9725
16239SOL    HW251350   7.299   1.224   9.812  1.0693  0.6413 -0.7396
16240SOL     OW51351   6.733   5.316   3.216 -0.1284 -0.3214 -0.6163
16240SOL    HW151352   6.681   5.289   3.292 -0.4965 -1.4279 -1.2349
16240SOL    HW251353   6.695   5.400   3.190  0.5971  0.5364  0.9516
16241SOL     OW51354   5.680   0.965   6.951  0.6371 -0.2473 -0.3323
16241SOL    HW151355   5.722   1.051   6.953 -1.0762  0.6215 -0.0288
16241SOL    HW251356   5.648   0.951   7.040 -0.8931 -0.2400 -0.8520
16242SOL     OW51357   0.836   9.415   7.215 -0.1520 -0.1523  0.2850
16242SOL    HW151358   0.765   9.429   7.278 -1.0633 -0.7570 -0.5739
16242SOL    HW251359   0.810   9.336   7.167  0.2909  0.5523 -1.1509
16243SOL     OW51360   6.076   6.407   1.659 -0.2120 -0.2865  0.5983
16243SOL    HW151361   6.131   6.475   1.699 -0.3969  0.0074  0.3616
16243SOL    HW251362   6.027   6.370   1.733 -2.1151  1.6860  0.4630
16244SOL     OW51363   0.180   0.124   6.524 -0.1329  0.1946  0.0743
16244SOL    HW151364   0.148   0.203   6.567  0.4892  0.7719 -0.4955
16244SOL    HW251365   0.269   0.147   6.495  0.4105 -1.0168  0.7070
16245SOL     OW51366   2.648   9.359   5.035  0.2573 -0.2944  0.1053
16245SOL    HW151367   2.665   9.453   5.023 -0.2429 -0.1710  0.3527
16245SOL    HW251368   2.599   9.353   5.117  0.7441 -0.8266  0.3685
16246SOL     OW51369   4.145   8.195   4.520  0.1755  0.1810  0.3085
16246SOL    HW151370   4.110   8.117   4.563 -1.6032  1.3169  1.0886
16246SOL    HW251371   4.239   8.180   4.514 -0.2981 -2.7247 -1.1456
16247SOL     OW51372   6.593   1.570   0.519 -0.4106 -0.2361 -0.1194
16247SOL    HW151373   6.631   1.634   0.579  1.6126  0.1859 -1.7554
16247SOL    HW251374   6.520   1.617   0.478 -0.0906  0.4144  0.0330
16248SOL     OW51375   6.246   0.835   0.693  0.0415  0.0085 -0.6965
16248SOL    HW151376   6.271   0.927   0.686 -2.9248  0.9555 -0.3144
16248SOL    HW251377   6.294   0.804   0.770 -0.8585  2.0345  0.7941
16249SOL     OW51378   5.367   4.226   4.945  0.0507 -0.3686  0.1746
16249SOL    HW151379   5.291   4.177   4.915  0.0355 -0.9007  1.0532
16249SOL    HW251380   5.336   4.317   4.951 -0.8679 -0.7547  1.6448
16250SOL     OW51381   5.681   7.350   2.250  0.0467 -0.0747 -1.2088
16250SOL    HW151382   5.597   7.394   2.245 -1.1199 -2.0700 -0.1977
16250SOL    HW251383   5.697   7.340   2.344  0.7415 -0.9427 -1.4138
16251SOL     OW51384   6.579   8.010   2.658  0.0598  0.6844 -0.3199
16251SOL    HW151385   6.490   7.987   2.630 -0.3863  0.3114  1.2829
16251SOL    HW251386   6.569   8.095   2.700  0.5916  0.9669 -0.7714
16252SOL     OW51387   4.667   1.884   4.738 -0.2561  0.4152  0.2121
16252SOL    HW151388   4.745   1.923   4.699 -0.2128  0.3395  0.2222
16252SOL    HW251389   4.650   1.937   4.816 -1.0286  1.2952 -0.5371
16253SOL     OW51390   5.903   0.045   3.968 -0.2346  0.4422  0.1748
16253SOL    HW151391   5.864   0.132   3.961  0.0935  0.6000  0.2959
16253SOL    HW251392   5.843  -0.012   3.920 -0.1265  0.8363 -0.4311
16254SOL     OW51393   7.873   2.575   8.120  0.3570 -0.2386 -0.2458
16254SOL    HW151394   7.886   2.484   8.146 -0.8381  0.0868  1.7054
16254SOL    HW251395   7.829   2.615   8.195 -0.9806  1.4503 -1.8512
16255SOL     OW51396   4.228   0.709   0.243 -0.6883 -0.7302  0.1812
16255SOL    HW151397   4.301   0.763   0.212 -0.0995 -1.3227  0.5068
16255SOL    HW251398   4.241   0.625   0.199 -1.5601 -0.6377 -0.2685
16256SOL     OW51399   3.907   4.590   5.617  0.9188  0.2353 -0.0133
16256SOL    HW151400   3.854   4.665   5.590  0.6007 -0.1715 -0.5454
16256SOL    HW251401   3.915   4.537   5.537  0.2908 -0.8002  0.5787
16257SOL     OW51402   6.978   0.559   8.114 -0.9736 -0.0589  0.0653
16257SOL    HW151403   6.943   0.499   8.179  2.6742 -3.2240 -0.5566
16257SOL    HW251404   7.033   0.619   8.164 -1.3219  0.0919  0.2700
16258SOL     OW51405   4.381   2.408   9.809  0.6388 -0.0016  0.4808
16258SOL    HW151406   4.441   2.358   9.865  0.0349  0.1639  1.3013
16258SOL    HW251407   4.310   2.434   9.868  0.3345  0.7828 -0.2161
16259SOL     OW51408   6.071   1.436   0.250  0.3329  0.0928  0.0624
16259SOL    HW151409   5.983   1.433   0.288 -0.6558  0.3500 -2.0695
16259SOL    HW251410   6.126   1.471   0.320 -1.6393  1.9006  0.8271
16260SOL     OW51411   6.431   6.692   9.410  1.0855 -0.2408  0.3054
16260SOL    HW151412   6.357   6.692   9.349  1.7734 -0.3916 -0.5525
16260SOL    HW251413   6.392   6.711   9.495 -0.0017 -0.7452 -0.0577
16261SOL     OW51414   3.813  10.235   8.970  0.4242  0.0204 -0.4650
16261SOL    HW151415   3.787  10.298   8.903  0.4413  1.7434  1.0667
16261SOL    HW251416   3.909  10.236   8.967  0.4217 -0.1974 -0.6610
16262SOL     OW51417   1.195   9.633  10.268 -0.2935 -0.2008 -0.7021
16262SOL    HW151418   1.278   9.680  10.256 -0.4078 -0.0981 -1.1231
16262SOL    HW251419   1.220   9.541  10.276 -0.1950 -0.2747 -1.7327
16263SOL     OW51420   1.884   3.237   6.900 -0.3825 -0.3270 -0.2340
16263SOL    HW151421   1.954   3.210   6.841 -1.4266 -2.0399 -0.7570
16263SOL    HW251422   1.848   3.155   6.934 -1.6982  0.5335  0.5335
16264SOL     OW51423   7.502   6.199   5.691 -0.0988  1.0035 -0.1814
16264SOL    HW151424   7.547   6.218   5.609 -2.9038  1.2163 -1.8157
16264SOL    HW251425   7.547   6.122   5.726  1.1615  0.8882 -1.9349
16265SOL     OW51426   7.629   0.959   3.395  0.1289 -0.2800  0.4458
16265SOL    HW151427   7.551   1.008   3.421  0.9360  1.1880  0.2184
16265SOL    HW251428   7.598   0.896   3.331 -0.6726  1.2724 -0.7720
16266SOL     OW51429   4.808   6.387   8.563  0.2579  0.3053  0.3122
16266SOL    HW151430   4.837   6.304   8.525 -0.1266  0.7464 -0.9997
16266SOL    HW251431   4.767   6.362   8.646  0.9807 -0.7088  0.3806
16267SOL     OW51432   5.592   7.856   6.633 -0.0580 -0.1517  0.6694
16267SOL    HW151433   5.571   7.763   6.634  0.4798 -0.2789  1.8405
16267SOL    HW251434   5.648   7.867   6.556  0.2162 -0.8739  0.7629
16268SOL     OW51435   4.626   6.007   7.746 -0.4327  0.0486  0.1304
16268SOL    HW151436   4.568   5.967   7.811 -0.0923  1.5426  1.3922
16268SOL    HW251437   4.586   5.983   7.662 -2.3550  0.2483  0.9310
16269SOL     OW51438   1.895   0.856   0.312 -0.1285 -0.5863 -0.1924
16269SOL    HW151439   1.812   0.810   0.325 -0.1028 -0.8356 -0.8663
16269SOL    HW251440   1.890   0.890   0.222  0.3194 -0.2322 -0.0902
16270SOL     OW51441   7.324   4.087   9.933  0.3924  0.4519  0.2026
16270SOL    HW151442   7.310   3.993   9.931  2.7048  0.0569 -0.8666
16270SOL    HW251443   7.357   4.105  10.020 -0.0754  0.3009  0.4154
16271SOL     OW51444   3.064   6.734   7.774  0.3443  0.3733 -0.1833
16271SOL    HW151445   3.151   6.734   7.732  0.2348  1.5439 -0.4349
16271SOL    HW251446   3.016   6.664   7.729  0.3726  1.3176 -1.7449
16272SOL     OW51447   8.255   2.838   7.628 -0.4369  0.1868 -0.4859
16272SOL    HW151448   8.251   2.748   7.660  1.9503  0.3033  0.3655
16272SOL    HW251449   8.172   2.878   7.656 -0.5086 -1.0942  1.2937
16273SOL     OW51450   1.925   8.354   7.521  0.3213  0.1660  0.3751
16273SOL    HW151451   2.006   8.397   7.493  0.4267  0.8054  1.6065
16273SOL    HW251452   1.920   8.370   7.615 -1.3384  0.3017  0.2937
16274SOL     OW51453   9.369   1.827   3.369  0.2089  0.1503 -0.2537
16274SOL    HW151454   9.408   1.809   3.455  1.3019 -0.8443 -0.9233
16274SOL    HW251455   9.443   1.832   3.309 -0.6306 -1.2303 -1.4899
16275SOL     OW51456   6.719  10.264   6.961 -0.5745 -0.2165  0.3012
16275SOL    HW151457   6.806  10.288   6.994  0.5703 -0.2278 -2.3720
16275SOL    HW251458   6.660  10.329   6.999  0.9492  1.0442  0.6178
16276SOL     OW51459   0.737  10.045   2.222  0.1955 -0.4272 -0.2646
16276SOL    HW151460   0.800  10.082   2.160  1.3056 -1.4438  0.2208
16276SOL    HW251461   0.655  10.040   2.173 -0.2075  3.0495 -0.2542
16277SOL     OW51462   6.002  10.165   7.403 -1.1551 -0.7048  0.1693
16277SOL    HW151463   5.935  10.122   7.350  1.7677 -2.2137 -2.6668
16277SOL    HW251464   6.007  10.254   7.367 -0.3944 -1.1750 -0.9213
16278SOL     OW51465   4.219   3.005   6.117  0.3585  0.1227 -0.2968
16278SOL    HW151466   4.228   2.931   6.058  0.4788  0.9724 -1.3669
16278SOL    HW251467   4.169   2.970   6.192  0.3053 -0.9891 -0.8338
16279SOL     OW51468   5.976   4.113   9.582  0.4076 -0.2247 -0.5358
16279SOL    HW151469   6.020   4.158   9.654  0.6383 -0.2840 -0.6377
16279SOL    HW251470   5.905   4.065   9.623  0.0369  0.3851 -0.4495
16280SOL     OW51471   8.043   4.391   2.387  0.4592 -0.3198 -0.0587
16280SOL    HW151472   8.034   4.296   2.393  1.5780 -0.6260 -2.3523
16280SOL    HW251473   8.137   4.407   2.386  0.3297  0.5747 -2.0870
16281SOL     OW51474   9.901   5.455   6.600 -0.3991  0.1369 -0.5780
16281SOL    HW151475   9.992   5.483   6.610  0.3572 -1.7170 -1.8379
16281SOL    HW251476   9.850   5.536   6.610  1.2790  1.0728  1.0541
16282SOL     OW51477   8.814   0.117   1.480  0.2098  0.4002 -0.1516
16282SOL    HW151478   8.845   0.201   1.445 -1.7593  1.9191  1.5113
16282SOL    HW251479   8.725   0.136   1.512  0.6262 -1.6624  2.5653
16283SOL     OW51480   0.500   6.003   1.285  0.0009 -0.1412  1.0727
16283SOL    HW151481   0.531   6.010   1.195  1.1333  0.2317  1.4618
16283SOL    HW251482   0.542   6.077   1.330 -0.2114 -0.5566  1.9828
16284SOL     OW51483   6.736   0.653   9.181  0.1516  0.0537  0.4300
16284SOL    HW151484   6.665   0.617   9.234 -0.0550  1.4086  1.1161
16284SOL    HW251485   6.727   0.748   9.190  1.0454  0.2841 -0.8190
16285SOL     OW51486   8.568   5.794   4.651 -0.0585 -0.3838 -0.5149
16285SOL    HW151487   8.506   5.724   4.630 -1.3552  1.1379 -2.0093
16285SOL    HW251488   8.519   5.875   4.639  1.9637  0.8738 -0.8571
16286SOL     OW51489   2.225   7.557   0.317 -0.0349 -0.5044 -0.3994
16286SOL    HW151490   2.200   7.587   0.405 -0.8234  1.3935 -1.2165
16286SOL    HW251491   2.147   7.512   0.284 -0.0285 -0.4883 -0.4363
16287SOL     OW51492   0.706   5.260   1.059 -0.1171 -0.4699 -0.4772
16287SOL    HW151493   0.656   5.245   1.139 -1.5651  0.6048 -1.1362
16287SOL    HW251494   0.647   5.234   0.988  1.4501 -2.2471 -1.2243
16288SOL     OW51495   6.563   2.971   2.341  0.4051  0.5587  0.6818
16288SOL    HW151496   6.587   3.029   2.268 -0.5119  0.4628  0.2816
16288SOL    HW251497   6.549   2.886   2.300  0.5952  0.3321  1.0869
16289SOL     OW51498   4.611   1.157   7.465 -1.2215 -0.2569 -0.3192
16289SOL    HW151499   4.648   1.078   7.426  0.2235 -0.3232  1.0603
16289SOL    HW251500   4.675   1.183   7.531 -1.5512  2.1657 -0.8266
16290SOL     OW51501   7.423   4.119   0.221 -0.0833  0.0436  0.1545
16290SOL    HW151502   7.367   4.195   0.207  1.0289  1.2336  1.8096
16290SOL    HW251503   7.372   4.060   0.277 -0.1551  0.5524  0.6278
16291SOL     OW51504   6.257   3.775   3.571 -0.2308 -0.1683 -0.1996
16291SOL    HW151505   6.258   3.682   3.547 -0.9766  0.2034 -1.8317
16291SOL    HW251506   6.348   3.803   3.565 -0.3297 -0.1466 -2.6438
16292SOL     OW51507   6.315  10.311   4.635 -0.2862  0.6351  0.5242
16292SOL    HW151508   6.241  10.366   4.663  0.0852  1.0890  0.6209
16292SOL    HW251509   6.322  10.244   4.703 -1.8459 -0.6007 -0.4625
16293SOL     OW51510   1.830   9.877   1.211  0.3098 -0.2119 -0.0367
16293SOL    HW151511   1.750   9.834   1.241 -0.1961  0.3336 -0.5623
16293SOL    HW251512   1.850   9.941   1.279  0.3829 -0.4519  0.1682
16294SOL     OW51513   3.174   5.048   9.016  0.4217  0.0000 -0.1622
16294SOL    HW151514   3.210   5.107   8.950  1.2420 -2.2022 -1.7989
16294SOL    HW251515   3.209   5.080   9.099  3.2457  0.1432 -1.2907
16295SOL     OW51516   6.061   1.162   9.063 -0.4032  0.4494  0.0016
16295SOL    HW151517   6.037   1.191   8.975 -1.5064 -0.4222  0.0056
16295SOL    HW251518   6.148   1.199   9.077 -1.1094  2.4251 -0.5928
16296SOL     OW51519   8.413   1.761   8.958 -0.1164  0.1160 -0.2608
16296SOL    HW151520   8.343   1.713   9.002 -1.0912  0.3342 -1.5018
16296SOL    HW251521   8.412   1.727   8.868  0.5608  0.9885 -0.6092
16297SOL     OW51522   4.908   1.996   9.935 -0.0420 -0.0525  0.5002
16297SOL    HW151523   4.894   1.976   9.842 -1.3378  3.0941 -0.1042
16297SOL    HW251524   4.822   1.984   9.975 -0.0644  0.9802  0.7719
16298SOL     OW51525  10.024   0.477   1.532  0.4034  0.3745 -0.0378
16298SOL    HW151526   9.967   0.424   1.587  1.3035  3.3900  4.3220
16298SOL    HW251527  10.112   0.462   1.568  0.9658  2.8569 -0.2212
16299SOL     OW51528  10.259   0.996   4.368 -0.1682 -0.4110  0.2326
16299SOL    HW151529  10.281   1.089   4.375  1.3347 -0.7984  0.9535
16299SOL    HW251530  10.164   0.994   4.379 -0.2489  1.0465  0.0618
16300SOL     OW51531   8.739   4.083   2.042 -0.1646 -0.5412 -0.4753
16300SOL    HW151532   8.680   4.089   2.117 -0.4606  0.7478 -0.7830
16300SOL    HW251533   8.758   4.174   2.019 -0.7264 -0.8706 -2.4709
16301SOL     OW51534   5.891   6.350   2.619 -0.1434 -0.1666 -0.2850
16301SOL    HW151535   5.824   6.373   2.684 -0.7259 -0.2340 -0.8552
16301SOL    HW251536   5.971   6.337   2.671 -0.5591 -0.0522  0.3973
16302SOL     OW51537   4.718   3.334   5.269 -0.2818  0.4656  0.1370
16302SOL    HW151538   4.706   3.267   5.336 -0.2160  2.7066  2.5549
16302SOL    HW251539   4.632   3.345   5.230  0.0807 -2.2540 -1.6855
16303SOL     OW51540   7.027   5.486   5.067  0.1556  0.1531  0.0998
16303SOL    HW151541   7.106   5.533   5.042  0.3686  0.5672  1.4835
16303SOL    HW251542   6.965   5.554   5.091  0.2478 -0.2193  1.4890
16304SOL     OW51543   4.853   9.900   6.619 -0.0679  0.1331  0.2204
16304SOL    HW151544   4.855   9.946   6.534  2.5344  0.9145  0.6222
16304SOL    HW251545   4.761   9.875   6.630 -1.0904  2.7415 -1.3834
16305SOL     OW51546   3.359   8.939   6.475  0.0127 -0.1032  0.8880
16305SOL    HW151547   3.423   9.009   6.466  0.5729 -0.6376  0.5835
16305SOL    HW251548   3.412   8.859   6.479 -0.6440 -0.5848  0.2867
16306SOL     OW51549   5.377   0.795   3.507 -0.1037 -0.6399  0.2869
16306SOL    HW151550   5.457   0.756   3.542  0.9277  0.1023 -1.1462
16306SOL    HW251551   5.327   0.721   3.472  1.4181 -0.8664 -1.5983
16307SOL     OW51552   2.035   5.432   9.398  0.8341  0.1344 -0.4217
16307SOL    HW151553   1.958   5.485   9.380  1.3366  1.9882  2.2779
16307SOL    HW251554   2.001   5.343   9.407 -0.6736  0.6033 -1.1754
16308SOL     OW51555   7.204   6.710   8.907  0.0605 -0.2176  0.2895
16308SOL    HW151556   7.178   6.802   8.915  0.8400  0.0988 -0.6526
16308SOL    HW251557   7.159   6.679   8.828 -0.6206 -0.8102  0.8922
16309SOL     OW51558   7.276   1.021   8.853  0.0267  0.1919  0.3064
16309SOL    HW151559   7.201   1.079   8.865  0.5868  0.6554  1.8034
16309SOL    HW251560   7.270   0.959   8.927  1.2393  0.3969  0.5901
16310SOL     OW51561  10.307   4.004   9.076  0.5868 -0.6247  0.2936
16310SOL    HW151562  10.213   3.987   9.075  0.0191  1.9466 -0.8928
16310SOL    HW251563  10.322   4.057   8.997  2.3955  1.7449  2.0730
16311SOL     OW51564  10.255   5.473   6.408 -0.0858  0.2361 -0.0307
16311SOL    HW151565  10.237   5.541   6.472 -0.4726  0.1530 -0.0453
16311SOL    HW251566  10.342   5.441   6.429 -1.4435 -2.1446  2.6212
16312SOL     OW51567   8.000   0.466   7.966  0.1189  0.4184 -0.3646
16312SOL    HW151568   8.094   0.487   7.968  0.5153 -1.2212 -0.2273
16312SOL    HW251569   7.970   0.485   8.055  0.2575  1.1640 -0.4689
16313SOL     OW51570   7.783  10.335   6.562 -0.5365  0.2415  0.4992
16313SOL    HW151571   7.803  10.412   6.615  0.4770  0.3810 -0.0709
16313SOL    HW251572   7.842  10.267   6.594 -1.0545 -0.1521  0.6377
16314SOL     OW51573   2.485   6.885   6.067 -0.1585  0.3421  0.8589
16314SOL    HW151574   2.526   6.839   6.140  1.3452 -1.8678 -1.2345
16314SOL    HW251575   2.558   6.927   6.021 -0.8642  0.4090 -0.2332
16315SOL     OW51576   4.227   0.044   8.060  0.6125 -0.1992  0.1914
16315SOL    HW151577   4.204   0.120   8.113 -0.1149  0.0531 -0.4704
16315SOL    HW251578   4.166   0.046   7.986  0.8626 -1.1807 -0.0655
16316SOL     OW51579   2.197   3.370   0.092 -0.0850 -0.2905 -0.3461
16316SOL    HW151580   2.293   3.374   0.091 -0.1274  1.4278 -0.4379
16316SOL    HW251581   2.174   3.385   0.184 -0.2699 -1.6677 -0.1415
16317SOL     OW51582   6.687   9.475   3.766 -0.6991 -0.4604 -0.0700
16317SOL    HW151583   6.727   9.387   3.766  0.2284 -0.0511  0.0543
16317SOL    HW251584   6.594   9.458   3.754 -0.6996 -1.5494  1.1192
16318SOL     OW51585   8.350   1.821   7.494 -0.8874  0.5304 -0.2236
16318SOL    HW151586   8.361   1.734   7.530 -0.3347 -0.1033 -1.8327
16318SOL    HW251587   8.409   1.877   7.546 -0.1491 -0.3326 -0.1114
16319SOL     OW51588   2.307   8.004   4.420  0.7333 -0.5280 -0.5312
16319SOL    HW151589   2.262   8.031   4.340 -0.7430  1.1782  0.7965
16319SOL    HW251590   2.254   7.932   4.454  0.5552 -0.3047 -0.3413
16320SOL     OW51591   2.156  10.014   8.065 -0.3895  0.5632  0.0032
16320SOL    HW151592   2.184   9.990   7.977 -1.4269  1.8484 -0.7011
16320SOL    HW251593   2.076   9.964   8.080  0.3451 -0.4731  0.6739
16321SOL     OW51594   5.631   5.699   3.236 -0.4779 -0.0061 -0.0604
16321SOL    HW151595   5.600   5.756   3.167  0.8943  0.7675 -0.0693
16321SOL    HW251596   5.552   5.674   3.285 -1.1462  1.5265 -0.3282
16322SOL     OW51597   1.785  10.218   3.757 -0.0456 -0.1027  0.4679
16322SOL    HW151598   1.796  10.124   3.767  1.9048 -0.1021 -1.0222
16322SOL    HW251599   1.867  10.256   3.789 -0.2150  0.9459 -0.2709
16323SOL     OW51600   2.491   3.370   4.213 -0.0107  0.1914  0.0354
16323SOL    HW151601   2.504   3.276   4.209 -0.7821 -0.0278  2.0596
16323SOL    HW251602   2.560   3.406   4.156 -0.2374 -1.5902 -1.4363
16324SOL     OW51603   7.919   0.543   3.542 -0.0061  0.3275  0.2784
16324SOL    HW151604   7.882   0.626   3.572 -0.6376  0.2574 -0.2787
16324SOL    HW251605   7.968   0.565   3.463 -0.9167  0.0518 -0.3858
16325SOL     OW51606   7.838   8.039   1.970 -0.6166 -0.1042  0.1072
16325SOL    HW151607   7.878   8.013   2.053 -0.1278 -0.0473 -0.1116
16325SOL    HW251608   7.748   8.006   1.976  0.1065 -2.3845 -0.3759
16326SOL     OW51609   3.774   9.265   2.027 -0.3486 -0.3461  0.2353
16326SOL    HW151610   3.781   9.251   1.932  0.4922  1.7506 -0.0552
16326SOL    HW251611   3.849   9.217   2.063 -0.0096 -0.2052 -0.2690
16327SOL     OW51612   0.311   8.573   9.541 -0.1265 -0.0950  0.5081
16327SOL    HW151613   0.284   8.656   9.580 -2.2025  0.5135 -1.9756
16327SOL    HW251614   0.229   8.529   9.518  0.9578 -1.8606 -0.1879
16328SOL     OW51615   1.196   5.525   2.268  0.2971 -0.2684 -0.0117
16328SOL    HW151616   1.283   5.515   2.306 -0.2749 -0.2051  1.3650
16328SOL    HW251617   1.180   5.619   2.267 -0.2438 -0.3349  0.9349
16329SOL     OW51618   4.844   8.041   8.891  0.2125  0.4928 -0.2598
16329SOL    HW151619   4.771   8.045   8.830  1.5443  2.5014 -1.8446
16329SOL    HW251620   4.813   8.089   8.968 -0.4584  0.5694 -0.5717
16330SOL     OW51621   1.686   9.475   3.380  0.0806 -0.0754 -0.4441
16330SOL    HW151622   1.601   9.515   3.360  0.4049  0.4568 -0.7826
16330SOL    HW251623   1.705   9.421   3.304 -1.3284 -2.6083  0.8653
16331SOL     OW51624   1.399   4.490   3.242  0.8019 -0.5853  0.1064
16331SOL    HW151625   1.456   4.432   3.291 -0.6066 -1.8846  0.2952
16331SOL    HW251626   1.447   4.572   3.235  2.3775 -1.4178  0.8163
16332SOL     OW51627   1.939   1.067   9.197 -0.4691 -0.1993  0.3431
16332SOL    HW151628   1.925   1.030   9.109  1.2464 -0.8900  0.3351
16332SOL    HW251629   1.952   1.160   9.182  0.3068 -0.3901 -0.2006
16333SOL     OW51630   5.910   7.542   7.113 -0.5386 -0.6728  0.4696
16333SOL    HW151631   5.891   7.517   7.204  0.8695  0.5122  1.1219
16333SOL    HW251632   5.860   7.622   7.099  0.1290 -0.2293  0.5861
16334SOL     OW51633   4.117   9.108   9.860 -0.2925 -0.3173  0.3187
16334SOL    HW151634   4.060   9.073   9.791  0.2374 -0.1589 -0.2103
16334SOL    HW251635   4.193   9.050   9.860 -1.0029 -1.3022  1.9015
16335SOL     OW51636   0.605   2.994   6.775  0.6679  0.0239  0.6609
16335SOL    HW151637   0.617   3.055   6.848 -0.6127  0.2572  0.7006
16335SOL    HW251638   0.682   3.006   6.720 -0.1536  2.6591 -0.0233
16336SOL     OW51639   9.926   3.242   0.384  0.1843 -0.2106  0.4017
16336SOL    HW151640   9.979   3.232   0.305  2.2022  0.2326  1.6146
16336SOL    HW251641   9.959   3.174   0.443 -0.5166  0.1714  1.2608
16337SOL     OW51642   7.995   7.173   2.878 -0.2062 -0.4518  0.5595
16337SOL    HW151643   8.003   7.114   2.804  1.9893 -0.4137  0.6894
16337SOL    HW251644   8.057   7.244   2.859  1.3625 -1.0657  2.9527
16338SOL     OW51645   3.932   9.319   2.499  0.5821 -0.0123  0.2989
16338SOL    HW151646   3.861   9.255   2.499 -1.0115  1.6202  1.4533
16338SOL    HW251647   3.917   9.372   2.420  1.9424 -1.0577 -0.7001
16339SOL     OW51648   8.478   9.859   4.595 -0.0868 -0.5029 -0.6333
16339SOL    HW151649   8.495   9.953   4.608  0.5395 -0.6290 -0.4886
16339SOL    HW251650   8.500   9.820   4.680 -0.9934 -0.7019 -0.4811
16340SOL     OW51651   7.721   5.154   6.822 -0.2302 -0.2184  0.5725
16340SOL    HW151652   7.745   5.082   6.762  0.0992 -0.9190  1.5269
16340SOL    HW251653   7.720   5.231   6.766 -0.7158 -0.9763 -0.5136
16341SOL     OW51654   9.271   9.728   4.335  0.2804 -0.0004  0.0197
16341SOL    HW151655   9.304   9.815   4.313  1.7174 -0.6994 -0.7086
16341SOL    HW251656   9.272   9.727   4.431 -0.7075  1.1137  0.0680
16342SOL     OW51657  10.038   4.359   9.092 -0.2342  0.4255  0.3356
16342SOL    HW151658  10.124   4.357   9.134 -0.0060 -0.2256 -0.1460
16342SOL    HW251659  10.028   4.272   9.053  0.7723  1.7507 -3.3555
16343SOL     OW51660   3.291   3.720   5.643  0.0100 -0.2203  0.0403
16343SOL    HW151661   3.355   3.791   5.647  3.2511 -2.9494  3.6331
16343SOL    HW251662   3.240   3.729   5.724  0.4424 -1.8844  0.5292
16344SOL     OW51663   6.305   2.907   4.659  0.0107  0.1710 -0.1514
16344SOL    HW151664   6.357   2.902   4.579 -0.1881  1.2136 -0.3619
16344SOL    HW251665   6.265   2.994   4.656 -0.7585 -0.1428  0.6133
16345SOL     OW51666   9.809   6.452   5.402  0.2307  0.1006 -0.2235
16345SOL    HW151667   9.870   6.512   5.445  1.9912 -1.8182  0.0889
16345SOL    HW251668   9.813   6.372   5.455  0.5048 -1.4540 -2.4561
16346SOL     OW51669   7.204   6.799   4.052 -0.1802 -0.4290 -0.2293
16346SOL    HW151670   7.133   6.744   4.083  1.2147 -1.3769  1.5165
16346SOL    HW251671   7.199   6.795   3.957 -2.0669 -0.9250 -0.1401
16347SOL     OW51672   8.880   1.117   3.421 -0.3463  0.4048 -0.3314
16347SOL    HW151673   8.865   1.196   3.472  1.2038 -0.6679  1.9744
16347SOL    HW251674   8.963   1.082   3.454 -0.6669 -1.8759 -1.6830
16348SOL     OW51675   2.314   9.235   7.798  0.7237  0.4330  0.3383
16348SOL    HW151676   2.246   9.232   7.730  1.3637 -2.4844 -0.3303
16348SOL    HW251677   2.396   9.244   7.750  1.1117 -0.6685  0.7570
16349SOL     OW51678   3.740   4.272   6.628 -0.1038 -0.0698 -0.2076
16349SOL    HW151679   3.772   4.239   6.544 -1.4543 -1.9930 -0.0257
16349SOL    HW251680   3.660   4.320   6.606  0.8980  1.6347 -0.2651
16350SOL     OW51681   8.297   9.078   2.398 -0.4936  0.3453 -0.1168
16350SOL    HW151682   8.278   9.140   2.467  2.9752  1.1433  0.2844
16350SOL    HW251683   8.292   8.992   2.440  0.0144  0.7167  0.7070
16351SOL     OW51684   1.181   1.942  10.050  0.4026  0.3403  0.0220
16351SOL    HW151685   1.106   1.905  10.096  0.9763  1.4473  1.9797
16351SOL    HW251686   1.146   1.970   9.966 -0.6487 -1.9709 -0.4005
16352SOL     OW51687   8.979   6.160   1.253  0.6339 -0.2083 -0.2212
16352SOL    HW151688   9.041   6.096   1.287  1.2393  0.4319 -0.0906
16352SOL    HW251689   8.987   6.235   1.313  0.4068  0.2350 -0.7379
16353SOL     OW51690   0.122   3.956   7.048  0.1760 -0.0616  0.4801
16353SOL    HW151691   0.213   3.927   7.050 -0.3470 -1.8090  2.5272
16353SOL    HW251692   0.072   3.876   7.036 -1.1728  0.5387  1.8240
16354SOL     OW51693   1.088   3.458   8.114 -0.3531  0.3009 -0.2711
16354SOL    HW151694   1.086   3.369   8.149 -2.1238  0.1326 -0.7169
16354SOL    HW251695   1.134   3.451   8.031 -0.9050 -0.2899 -0.5294
16355SOL     OW51696   9.872   9.457   6.113 -0.7977 -0.0662  0.8273
16355SOL    HW151697   9.842   9.369   6.092 -0.5412  0.1079 -0.3295
16355SOL    HW251698   9.911   9.490   6.032 -3.2970  2.1293  0.3682
16356SOL     OW51699   0.236   6.004   9.541  0.2720 -0.2513 -0.2335
16356SOL    HW151700   0.266   6.017   9.451  0.4527  0.2589 -0.1035
16356SOL    HW251701   0.142   5.985   9.532  0.1237  0.5785 -0.4748
16357SOL     OW51702   3.646   3.539   5.287  0.0379 -0.2492  0.1648
16357SOL    HW151703   3.556   3.557   5.313 -0.1556 -1.8465  0.6866
16357SOL    HW251704   3.651   3.571   5.196 -0.9925  0.0086  0.1820
16358SOL     OW51705   6.287   4.873   7.642  0.3456 -0.1990 -0.0210
16358SOL    HW151706   6.227   4.822   7.588 -0.5538 -0.0920  0.8547
16358SOL    HW251707   6.286   4.961   7.604  1.0679 -0.5542 -0.8787
16359SOL     OW51708   8.452   8.139   3.083  0.3275  0.7682  0.2779
16359SOL    HW151709   8.494   8.058   3.055 -0.8718  0.0094  0.5879
16359SOL    HW251710   8.492   8.159   3.168 -0.2109 -0.1776  0.7689
16360SOL     OW51711   6.999   1.180   9.002 -0.1304 -0.1570  0.3856
16360SOL    HW151712   6.956   1.097   9.020  0.2404 -0.0412  1.8770
16360SOL    HW251713   7.062   1.191   9.073 -0.3796  1.5392  0.3844
16361SOL     OW51714   7.650   5.664   2.906 -0.4951 -0.1655 -0.2856
16361SOL    HW151715   7.615   5.733   2.850  0.9224 -0.1998 -1.3007
16361SOL    HW251716   7.618   5.684   2.993  0.4282  2.2026 -0.4236
16362SOL     OW51717   1.544   9.867   0.487  0.7711 -0.3295  0.2363
16362SOL    HW151718   1.460   9.833   0.518  0.4122 -0.0893 -0.4311
16362SOL    HW251719   1.608   9.835   0.549  0.5651 -2.8943 -0.7545
16363SOL     OW51720   5.270   3.302   1.808 -0.1790 -0.2644  0.3050
16363SOL    HW151721   5.204   3.332   1.870 -0.3428  0.0150 -0.0022
16363SOL    HW251722   5.226   3.301   1.723  0.5650  1.2522 -0.1376
16364SOL     OW51723   8.353   8.073   5.457 -0.0889  0.6188  0.4960
16364SOL    HW151724   8.373   8.015   5.384  0.5765  0.2761  0.9486
16364SOL    HW251725   8.417   8.143   5.451  0.8622 -0.1202  1.5370
16365SOL     OW51726   4.043   7.020   9.180 -0.1364 -0.0909  0.0736
16365SOL    HW151727   4.055   6.926   9.172  1.5437  0.1920 -1.0900
16365SOL    HW251728   4.105   7.058   9.118 -0.2229  1.8131  1.0902
16366SOL     OW51729   2.849   6.583   6.771 -0.0884  0.4007 -0.0103
16366SOL    HW151730   2.907   6.594   6.847  1.0853  0.1361 -0.8324
16366SOL    HW251731   2.820   6.671   6.750  1.2507  0.7551 -0.4948
16367SOL     OW51732   0.007   7.984   2.334 -0.5266 -0.3441 -0.3842
16367SOL    HW151733  -0.005   7.938   2.417  0.5973  0.3757  0.2062
16367SOL    HW251734   0.101   7.981   2.318 -0.3828  1.7482 -0.2783
16368SOL     OW51735   2.974   4.628   7.774  0.5280 -0.6710 -0.1862
16368SOL    HW151736   2.947   4.655   7.862 -0.8188 -0.7086 -0.5707
16368SOL    HW251737   3.043   4.563   7.789  1.3504  0.3881  0.8050
16369SOL     OW51738   7.168   1.626   9.170  0.0179 -0.4076  0.6258
16369SOL    HW151739   7.097   1.689   9.181  0.6036  0.3417  0.2312
16369SOL    HW251740   7.218   1.659   9.096  0.1414 -1.5378  0.1937
16370SOL     OW51741   8.996   3.376   0.126  0.0723 -0.3532 -0.2451
16370SOL    HW151742   9.021   3.375   0.218 -0.3988 -2.0911 -0.0882
16370SOL    HW251743   8.910   3.419   0.125  0.4798  0.4837 -0.0108
16371SOL     OW51744   5.613   1.809   1.411  0.2132  0.5506 -0.0758
16371SOL    HW151745   5.561   1.882   1.376 -1.6432  0.5352  2.3750
16371SOL    HW251746   5.594   1.736   1.352 -0.0498  1.3710 -1.0256
16372SOL     OW51747   8.909   5.733  10.044 -0.9241  0.3888 -0.2935
16372SOL    HW151748   8.971   5.804  10.026 -2.9983  1.9968 -1.5481
16372SOL    HW251749   8.925   5.711  10.135  0.1382  2.1441  0.0067
16373SOL     OW51750   9.683   7.532   9.373 -0.1865  0.3768 -0.4560
16373SOL    HW151751   9.621   7.474   9.418 -0.6337  1.0024 -0.2427
16373SOL    HW251752   9.629   7.580   9.310 -0.2045  1.8724  0.6267
16374SOL     OW51753   4.614   9.201   0.856  0.2788 -0.1977 -0.1131
16374SOL    HW151754   4.569   9.264   0.912  1.5512  1.3906 -0.7843
16374SOL    HW251755   4.601   9.234   0.768 -0.2504 -1.7231 -0.6346
16375SOL     OW51756   0.915   0.957   6.946 -0.5350  0.0043 -0.1144
16375SOL    HW151757   0.830   0.913   6.936 -0.8636  0.3238  1.0812
16375SOL    HW251758   0.903   1.015   7.022  1.0908 -0.8152  0.8305
16376SOL     OW51759   9.299   3.718   2.847 -0.0858 -1.0192  0.5408
16376SOL    HW151760   9.306   3.777   2.923  1.4776  0.2839 -0.5435
16376SOL    HW251761   9.319   3.631   2.882 -0.9020 -0.7041  1.8840
16377SOL     OW51762   6.077   5.039   9.651 -0.1088  0.5241  0.3318
16377SOL    HW151763   6.107   5.125   9.619 -0.6737  0.2369 -1.0295
16377SOL    HW251764   5.995   5.059   9.697 -0.6035  0.6450 -0.5789
16378SOL     OW51765   9.138   9.490   5.340  0.2998 -0.2865  0.0957
16378SOL    HW151766   9.068   9.425   5.336 -0.6034  0.7135 -0.6210
16378SOL    HW251767   9.097   9.567   5.379  1.2953 -0.0303  0.6825
16379SOL     OW51768   6.672   3.748   3.020  0.5724  0.1485  0.0371
16379SOL    HW151769   6.699   3.789   2.938  1.1179 -1.8961 -0.8562
16379SOL    HW251770   6.581   3.777   3.032 -0.5996 -1.7818 -2.9209
16380SOL     OW51771   7.296   1.317   7.389 -0.0617  0.0434  0.1225
16380SOL    HW151772   7.212   1.337   7.429  0.9630 -1.1787  3.2080
16380SOL    HW251773   7.317   1.229   7.420  2.4149  0.3753 -0.4074
16381SOL     OW51774   1.087   4.954   6.015  0.4835  0.5571  0.6934
16381SOL    HW151775   1.026   5.025   5.993 -1.5742 -1.4570 -0.5411
16381SOL    HW251776   1.138   4.942   5.935 -0.0842 -0.1829  0.4315
16382SOL     OW51777   0.427   3.570   9.547  0.0088 -0.1789  0.0925
16382SOL    HW151778   0.409   3.646   9.603 -0.0424 -0.7364  0.8476
16382SOL    HW251779   0.474   3.509   9.604  2.4010  0.3141 -1.1786
16383SOL     OW51780   8.469   6.684   8.945 -0.0618 -0.1712 -0.0646
16383SOL    HW151781   8.417   6.610   8.913 -1.3994  0.9698 -0.6594
16383SOL    HW251782   8.550   6.645   8.978  1.0648 -1.5700 -4.0047
16384SOL     OW51783   1.436   4.668   1.124 -0.3372  0.0301 -0.4952
16384SOL    HW151784   1.349   4.705   1.139 -0.0393 -0.0363  1.7420
16384SOL    HW251785   1.428   4.576   1.151  0.5737  0.2069  0.4633
16385SOL     OW51786   5.728   9.252   1.780  0.0072  0.6918 -0.6493
16385SOL    HW151787   5.687   9.279   1.698  1.3023 -0.6594 -1.7830
16385SOL    HW251788   5.719   9.328   1.837 -0.8523  1.6926 -2.0658
16386SOL     OW51789   1.607  10.180   0.562  0.0436  0.3752 -0.0237
16386SOL    HW151790   1.632  10.101   0.515 -0.1474  1.4651 -2.0798
16386SOL    HW251791   1.634  10.164   0.653  0.3914 -1.8410 -0.4607
16387SOL     OW51792   0.654   7.495   3.690 -0.0929  0.3061  0.4692
16387SOL    HW151793   0.596   7.450   3.628 -1.6563  1.5588  0.9671
16387SOL    HW251794   0.720   7.430   3.712 -1.8473 -1.5206  0.6045
16388SOL     OW51795   3.456   5.345   1.621 -0.0981 -0.3254 -0.3772
16388SOL    HW151796   3.423   5.433   1.600 -0.6215 -0.7802 -1.4919
16388SOL    HW251797   3.536   5.336   1.569 -0.0529 -0.5172 -0.2742
16389SOL     OW51798   8.360   0.973   1.855 -0.3069 -0.0082 -0.2607
16389SOL    HW151799   8.290   1.018   1.807 -1.6306 -2.0174 -0.3407
16389SOL    HW251800   8.325   0.963   1.943  0.0536 -0.6529 -0.1870
16390SOL     OW51801   0.283   2.875   7.186 -0.1126 -0.5022 -0.1159
16390SOL    HW151802   0.268   2.815   7.260 -0.2572  0.3335  0.5495
16390SOL    HW251803   0.259   2.824   7.109 -0.6274 -1.1700  0.4695
16391SOL     OW51804   0.299   8.247   1.503  0.1026  0.1216  0.0127
16391SOL    HW151805   0.249   8.304   1.445 -0.7574  0.3828  0.9682
16391SOL    HW251806   0.236   8.179   1.529  0.2671  0.3845  1.1408
16392SOL     OW51807   8.268   6.370  10.226 -0.3340 -0.8843  0.3685
16392SOL    HW151808   8.275   6.319  10.146  1.9700 -0.9441  0.5447
16392SOL    HW251809   8.253   6.305  10.295  1.0220 -1.2172  0.3836
16393SOL     OW51810   0.574   5.241   4.303 -0.0169 -0.0363  0.1938
16393SOL    HW151811   0.614   5.278   4.225 -0.1280  1.3673  0.7738
16393SOL    HW251812   0.586   5.147   4.294  0.9454  0.1783 -0.9755
16394SOL     OW51813   3.735   7.401   2.882  0.4502  0.2418 -0.6216
16394SOL    HW151814   3.749   7.451   2.962 -0.0128 -0.1226 -0.3066
16394SOL    HW251815   3.701   7.465   2.819 -0.3372  0.2911 -0.1588
16395SOL     OW51816   9.683   8.261   0.821 -0.8535  0.5328  0.0384
16395SOL    HW151817   9.615   8.215   0.871 -1.1517  1.9170  0.9662
16395SOL    HW251818   9.661   8.353   0.831  1.5948  1.0807  1.0398
16396SOL     OW51819   1.981   9.502   4.171 -0.2752 -0.6583 -0.7266
16396SOL    HW151820   2.046   9.453   4.121  1.3265 -0.3077  0.9132
16396SOL    HW251821   2.029   9.539   4.245 -2.0751  0.7461 -0.1588
16397SOL     OW51822   0.813   6.084   2.570  0.3195  0.0880 -0.7675
16397SOL    HW151823   0.723   6.080   2.603  0.4463  4.0581  0.6115
16397SOL    HW251824   0.806   6.130   2.486  1.0400  1.5907 -0.0662
16398SOL     OW51825   9.647   2.997   7.026  0.2806  0.7477  0.1021
16398SOL    HW151826   9.694   2.967   6.948  0.9790  2.0025  0.0118
16398SOL    HW251827   9.564   3.032   6.992  0.0276  0.1397  0.0747
16399SOL     OW51828   3.777   3.438   0.061  0.2232 -0.1048  0.0880
16399SOL    HW151829   3.746   3.399   0.142 -2.2318  1.1275 -0.1663
16399SOL    HW251830   3.824   3.517   0.090  0.0873 -0.1132  0.3348
16400SOL     OW51831   8.969   8.113   9.607 -0.1373 -0.5095 -0.1455
16400SOL    HW151832   8.987   8.198   9.567  0.3838 -0.1752  0.7654
16400SOL    HW251833   9.037   8.056   9.572  0.4979 -0.1464  0.4764
16401SOL     OW51834   4.610   5.096   2.708  0.3619  0.5037  0.2165
16401SOL    HW151835   4.613   5.101   2.613  0.8359  2.4444  0.2842
16401SOL    HW251836   4.664   5.020   2.730 -0.8870 -0.8299 -1.0705
16402SOL     OW51837   5.081   1.971   5.321 -0.4548  0.3058 -0.4382
16402SOL    HW151838   4.989   1.997   5.325 -0.6188  0.4802 -3.1303
16402SOL    HW251839   5.126   2.049   5.287  0.3724 -0.3348 -0.8422
16403SOL     OW51840   0.308   4.960   4.157 -0.3161  1.2710  0.2796
16403SOL    HW151841   0.386   4.951   4.212  0.3815  2.5473 -0.4565
16403SOL    HW251842   0.340   4.948   4.068 -1.1828  0.6578  0.0347
16404SOL     OW51843   1.030   2.068   4.374 -0.7110  0.5372 -0.1655
16404SOL    HW151844   1.016   2.162   4.366 -2.2677  0.2389 -1.5958
16404SOL    HW251845   0.995   2.046   4.460  1.3686  1.4905  0.9863
16405SOL     OW51846   7.796   6.686   1.496  0.5530 -0.3104  0.5097
16405SOL    HW151847   7.713   6.637   1.497  1.2747 -1.5809  0.5235
16405SOL    HW251848   7.792   6.742   1.574 -1.2868  1.4362 -0.7290
16406SOL     OW51849   7.705   8.373   4.668  0.1004 -0.1557  0.1719
16406SOL    HW151850   7.784   8.321   4.681  0.0856 -0.2302 -0.0258
16406SOL    HW251851   7.681   8.403   4.755 -1.0709 -2.1987  0.6105
16407SOL     OW51852   6.819   7.788   0.450 -0.4016  0.6714 -0.0033
16407SOL    HW151853   6.736   7.783   0.499 -0.8112  0.1267 -0.7277
16407SOL    HW251854   6.887   7.787   0.517 -1.0047  2.1013  0.6509
16408SOL     OW51855   4.903  10.292   5.048 -0.0916  0.0689 -0.3881
16408SOL    HW151856   4.907  10.212   5.101  0.0390  1.0145  1.0986
16408SOL    HW251857   4.979  10.286   4.990  0.2748 -0.5808  0.1436
16409SOL     OW51858   3.302   0.212   1.544  0.0691 -0.5162 -0.2911
16409SOL    HW151859   3.306   0.182   1.635 -1.4933 -0.4116 -0.1527
16409SOL    HW251860   3.247   0.290   1.546  1.0861  0.2646 -1.1680
16410SOL     OW51861   6.141   6.557   3.371  0.2781  0.3156  0.0030
16410SOL    HW151862   6.091   6.595   3.299  1.9346  0.7008 -0.9971
16410SOL    HW251863   6.081   6.495   3.412 -0.9413  0.6114 -1.2474
16411SOL     OW51864   4.673   6.425   9.657 -0.0260  0.2680 -0.5848
16411SOL    HW151865   4.594   6.399   9.609 -0.9386 -1.0840  1.5141
16411SOL    HW251866   4.678   6.520   9.644 -2.3340  0.4889 -0.3861
16412SOL     OW51867   1.782   4.320  10.334  0.0184 -0.5307  0.4239
16412SOL    HW151868   1.814   4.284  10.251 -1.4175 -1.4473  0.2331
16412SOL    HW251869   1.722   4.389  10.308 -0.6147 -0.9777  0.6855
16413SOL     OW51870   5.425   4.932   6.882 -0.3561  0.1741  0.1180
16413SOL    HW151871   5.514   4.953   6.913 -0.3322  0.5586 -0.2026
16413SOL    HW251872   5.377   5.013   6.892 -0.3669  0.2905 -0.7832
16414SOL     OW51873   9.655   5.274   4.522  0.2738 -0.6153  0.6195
16414SOL    HW151874   9.607   5.311   4.596  0.8171 -0.0590  0.7035
16414SOL    HW251875   9.718   5.214   4.563  2.7910  2.0463  0.9434
16415SOL     OW51876   1.979   3.023   9.214 -0.2858  0.0127  0.4078
16415SOL    HW151877   1.950   3.015   9.124 -0.2049  0.2999  0.3536
16415SOL    HW251878   1.899   3.041   9.264 -0.1696  1.2311  0.2014
16416SOL     OW51879   7.060   5.857   6.419  0.4972 -0.0490  0.1564
16416SOL    HW151880   7.155   5.850   6.411  0.2367 -2.6188 -1.8465
16416SOL    HW251881   7.028   5.769   6.401 -2.2371  0.4026  2.1953
16417SOL     OW51882   2.577   9.093   7.192  0.0832 -0.2686 -0.4280
16417SOL    HW151883   2.549   9.090   7.101 -1.1808  0.4685 -0.0901
16417SOL    HW251884   2.509   9.144   7.237  1.1664  0.1904  0.7545
16418SOL     OW51885   9.395   5.018   4.725 -0.2729  0.1506  0.3973
16418SOL    HW151886   9.399   5.047   4.816  2.0884 -1.3170  0.8667
16418SOL    HW251887   9.460   5.072   4.680 -1.1122  0.5644 -0.3309
16419SOL     OW51888   5.043   0.637   9.578 -0.3296  0.3137  0.2993
16419SOL    HW151889   5.062   0.549   9.546  1.0094  0.8718 -0.5337
16419SOL    HW251890   5.028   0.626   9.672 -2.9719 -1.1701 -0.1956
16420SOL     OW51891   3.646   4.246   3.447  0.1881 -0.1308  0.5338
16420SOL    HW151892   3.666   4.339   3.461  0.0521  0.2385 -1.4726
16420SOL    HW251893   3.731   4.206   3.432  0.0228  0.3379 -1.9993
16421SOL     OW51894   5.115   4.609   7.022  0.2184  0.3060  0.0724
16421SOL    HW151895   5.110   4.702   7.043  0.5681  0.0777  1.2514
16421SOL    HW251896   5.208   4.592   7.010 -0.0084  0.5986 -2.6516
16422SOL     OW51897   3.725   1.439   6.384 -0.0592 -0.4077 -0.0542
16422SOL    HW151898   3.753   1.384   6.457 -2.1005 -1.0413  0.3307
16422SOL    HW251899   3.644   1.480   6.415  0.5576  1.5818 -0.9377
16423SOL     OW51900   3.703   9.603   5.853 -0.3609 -0.0199 -0.3736
16423SOL    HW151901   3.737   9.549   5.925  1.1602  1.9979  0.5134
16423SOL    HW251902   3.611   9.616   5.874 -1.2638 -3.4606 -1.4532
16424SOL     OW51903   8.083   7.740   0.836  0.6266 -0.2314  0.4353
16424SOL    HW151904   8.117   7.708   0.753  0.5249 -0.7748  0.6034
16424SOL    HW251905   8.057   7.662   0.884 -0.9353  0.1632  0.2898
16425SOL     OW51906   3.399   3.307   9.621 -0.1837 -0.6014 -0.3140
16425SOL    HW151907   3.405   3.229   9.566 -1.9723 -1.1128  0.1729
16425SOL    HW251908   3.412   3.275   9.710  1.1433  0.0003 -0.2556
16426SOL     OW51909   8.094   3.479   8.756  0.0493  0.1614 -0.0611
16426SOL    HW151910   8.189   3.492   8.760  0.1152 -0.0960 -0.6551
16426SOL    HW251911   8.058   3.567   8.769  0.3998  0.3986 -0.6230
16427SOL     OW51912   2.693   3.336   0.590 -0.0507  0.0375  0.3720
16427SOL    HW151913   2.655   3.378   0.667 -0.3663  0.0766  0.1944
16427SOL    HW251914   2.764   3.395   0.564  0.0023  0.0680  0.5813
16428SOL     OW51915   6.947   8.543   0.363  0.3396 -0.5135  0.0471
16428SOL    HW151916   6.946   8.557   0.458 -0.8909  1.8574 -0.2398
16428SOL    HW251917   6.922   8.452   0.352 -0.3733 -0.6006  1.9924
16429SOL     OW51918   9.817   0.284   7.380  0.4911  0.1123  0.3275
16429SOL    HW151919   9.757   0.234   7.434  0.2699  0.0929  0.0648
16429SOL    HW251920   9.904   0.262   7.414  0.4280 -0.7897 -0.0574
16430SOL     OW51921   2.407   7.277   5.117 -0.2224 -0.5479  0.1036
16430SOL    HW151922   2.419   7.361   5.161  0.0904  0.3357 -1.6018
16430SOL    HW251923   2.398   7.214   5.188  0.4927  0.7868  1.4257
16431SOL     OW51924   2.201   4.858   9.022 -0.2210 -0.3278  0.2704
16431SOL    HW151925   2.178   4.841   9.113 -0.7891 -3.0547 -0.2978
16431SOL    HW251926   2.268   4.926   9.026  1.3129 -1.8416  2.8787
16432SOL     OW51927   5.363   2.757   0.339 -0.3303  0.3160 -0.0184
16432SOL    HW151928   5.402   2.761   0.252  2.4673 -0.6356  1.0738
16432SOL    HW251929   5.438   2.749   0.399 -2.1961 -1.3242  2.3178
16433SOL     OW51930   3.283   8.378   6.068 -0.3193 -0.5823  0.0812
16433SOL    HW151931   3.307   8.286   6.080  2.3685 -0.1709 -1.3248
16433SOL    HW251932   3.274   8.412   6.157 -0.4026 -1.9945  0.6303
16434SOL     OW51933   4.553   8.103   3.821 -0.3362  0.4884  0.7171
16434SOL    HW151934   4.536   8.158   3.744 -0.9763  0.7380  1.0353
16434SOL    HW251935   4.621   8.042   3.792 -1.6324 -0.4111 -0.5084
16435SOL     OW51936   7.471   9.297   2.518  0.0937 -0.1353  0.5734
16435SOL    HW151937   7.426   9.223   2.476  0.0360  0.0283  0.3420
16435SOL    HW251938   7.508   9.346   2.444  0.3141 -0.0506  0.7392
16436SOL     OW51939   4.184   0.904   7.957  0.1373 -0.0321  0.1054
16436SOL    HW151940   4.208   0.819   7.922  0.9901 -0.3059  1.3014
16436SOL    HW251941   4.143   0.950   7.883 -0.4336 -1.4982 -0.5318
16437SOL     OW51942  10.307   5.997   4.474  0.4634 -0.3201 -0.2989
16437SOL    HW151943  10.389   6.047   4.468  0.3111 -0.0173  0.1367
16437SOL    HW251944  10.277   6.011   4.563  1.0777 -2.2146  0.2581
16438SOL     OW51945   3.706   2.430   5.870  0.3152  0.3044 -0.1123
16438SOL    HW151946   3.695   2.525   5.869 -0.0614  0.3205  1.6381
16438SOL    HW251947   3.674   2.403   5.956  2.7793 -1.0889  0.4867
16439SOL     OW51948   4.018   1.192   8.432 -0.0687  0.2558  0.1086
16439SOL    HW151949   4.071   1.145   8.496 -0.1667 -2.1777 -1.4961
16439SOL    HW251950   4.081   1.224   8.368 -0.0641  1.9805  0.9035
16440SOL     OW51951   6.884   3.897   8.849 -0.2547  0.3106  0.0487
16440SOL    HW151952   6.926   3.834   8.789  0.3921 -0.3488  1.1477
16440SOL    HW251953   6.791   3.892   8.828 -0.0089  0.3144 -1.0920
16441SOL     OW51954   1.517   7.830   0.632  0.5847  0.0124  0.2839
16441SOL    HW151955   1.546   7.784   0.553 -1.0723  0.9167 -0.9341
16441SOL    HW251956   1.429   7.796   0.648  1.0062 -0.3609  1.9337
16442SOL     OW51957   4.154   5.834   8.664  0.0831 -0.5121  0.2427
16442SOL    HW151958   4.170   5.799   8.751 -0.5825 -0.3185  0.4526
16442SOL    HW251959   4.238   5.825   8.618 -0.0857 -2.4956  0.2315
16443SOL     OW51960   5.188   9.114   9.051  0.2723  0.2816  0.2392
16443SOL    HW151961   5.179   9.069   9.135 -2.0084 -1.3186 -0.7569
16443SOL    HW251962   5.258   9.066   9.006 -0.7167 -1.0096  0.0111
16444SOL     OW51963   2.740   2.795   5.759 -0.3114 -0.1790  0.2578
16444SOL    HW151964   2.788   2.826   5.682  1.5472 -0.0585  1.4035
16444SOL    HW251965   2.729   2.701   5.744  0.1138 -0.1734 -0.1165
16445SOL     OW51966   6.901   9.341   1.887  0.2928  0.3258 -0.5196
16445SOL    HW151967   6.920   9.296   1.969 -1.3537  0.4417 -0.0412
16445SOL    HW251968   6.934   9.430   1.900  1.9332 -0.2111 -0.8018
16446SOL     OW51969   4.231   7.487   7.567  0.3801 -0.0333 -0.1889
16446SOL    HW151970   4.177   7.409   7.581 -4.5275  2.8829 -0.5377
16446SOL    HW251971   4.236   7.528   7.654  1.0533  0.3460 -0.3990
16447SOL     OW51972   8.555   7.372   0.695  0.5373  0.2265  0.3252
16447SOL    HW151973   8.486   7.409   0.640  0.3980 -0.9035 -0.3067
16447SOL    HW251974   8.533   7.398   0.784  0.4909  1.6734 -0.0916
16448SOL     OW51975   7.048   7.742   2.323  0.2343 -0.0584 -0.0349
16448SOL    HW151976   7.072   7.834   2.320 -0.0638  0.0111 -0.3164
16448SOL    HW251977   7.010   7.730   2.411  2.7429 -0.5440  1.0626
16449SOL     OW51978   1.425   8.061   9.206 -0.2098  0.1852 -0.2712
16449SOL    HW151979   1.350   8.021   9.162 -0.2252 -0.9563  0.7323
16449SOL    HW251980   1.402   8.059   9.299  0.0298  2.0913 -0.1392
16450SOL     OW51981   3.893   4.739   0.322 -0.3250  0.2386  0.3654
16450SOL    HW151982   3.916   4.808   0.260 -1.2184  0.9218  0.7754
16450SOL    HW251983   3.869   4.664   0.267  0.8473  0.1761 -0.0785
16451SOL     OW51984   8.351   3.849   9.877  0.0487  0.4089 -0.0125
16451SOL    HW151985   8.257   3.831   9.873  0.5551 -2.5854 -1.7440
16451SOL    HW251986   8.373   3.842   9.969 -1.5391  2.3018  0.5815
16452SOL     OW51987   3.751   4.975   0.519 -0.1209 -0.3970  0.0153
16452SOL    HW151988   3.800   5.048   0.556  0.0122 -0.6482  0.3285
16452SOL    HW251989   3.817   4.911   0.493 -0.3044 -1.0229  1.0432
16453SOL     OW51990   6.171   5.100   6.560  0.2430  0.3186  0.0612
16453SOL    HW151991   6.220   5.030   6.602 -1.9485 -0.4177  1.6224
16453SOL    HW251992   6.145   5.065   6.475 -0.3001 -0.5601  0.5725
16454SOL     OW51993   0.675   5.866   2.736  0.8538  0.5771  0.3961
16454SOL    HW151994   0.675   5.786   2.788 -0.7658  0.0841 -0.2755
16454SOL    HW251995   0.664   5.836   2.646 -0.5338  1.5316  0.2052
16455SOL     OW51996   4.040   2.346   0.528 -0.3764 -0.0943 -0.1515
16455SOL    HW151997   4.059   2.294   0.606 -0.9294 -0.2572 -0.1200
16455SOL    HW251998   3.952   2.319   0.502 -0.3629  0.2654 -0.5862
16456SOL     OW51999   8.773   3.217   1.219  0.1036 -0.4316  0.1258
16456SOL    HW152000   8.814   3.190   1.301 -1.5636 -0.4855  0.9790
16456SOL    HW252001   8.840   3.269   1.175  0.9656 -0.2187  1.6075
16457SOL     OW52002   6.142   1.927   8.234  0.7455  0.4223  0.2185
16457SOL    HW152003   6.224   1.883   8.209  1.6954  3.0920 -1.8048
16457SOL    HW252004   6.075   1.882   8.184  1.5544  0.6529 -1.1252
16458SOL     OW52005   8.428   8.461   2.242  0.8931 -0.0698 -0.4643
16458SOL    HW152006   8.394   8.467   2.331 -2.3641  1.5062 -1.6440
16458SOL    HW252007   8.498   8.527   2.239  0.2467  0.7032  0.6271
16459SOL     OW52008   2.299   8.407   6.219 -0.0969  0.0131  0.3284
16459SOL    HW152009   2.355   8.446   6.285  0.1026  0.5257 -0.1367
16459SOL    HW252010   2.340   8.430   6.135  0.3947 -1.7313  0.0408
16460SOL     OW52011   8.721   5.368   3.378  0.5224 -0.5475  0.3407
16460SOL    HW152012   8.647   5.390   3.434  0.0608 -1.3618  0.0707
16460SOL    HW252013   8.724   5.272   3.378  1.3714 -0.5346  0.0796
16461SOL     OW52014   1.227   7.319   5.112 -0.0341  0.4523  0.3557
16461SOL    HW152015   1.241   7.302   5.019  1.4275  1.0585  0.4227
16461SOL    HW252016   1.243   7.414   5.121  0.7377  0.2510  1.3391
16462SOL     OW52017   7.688   4.415   6.521 -0.1915  0.6105 -0.2373
16462SOL    HW152018   7.710   4.477   6.452  1.0686 -0.7485 -1.1396
16462SOL    HW252019   7.685   4.330   6.477  2.4991 -0.6086  1.5958
16463SOL     OW52020   6.440   5.356   2.765  0.3657  0.0313  0.0821
16463SOL    HW152021   6.385   5.404   2.827  1.0465  1.2439 -0.2163
16463SOL    HW252022   6.436   5.408   2.685 -1.2260 -1.9762 -1.2419
16464SOL     OW52023   8.214   7.348  10.156 -0.1546  0.2302  0.7892
16464SOL    HW152024   8.227   7.442  10.172 -0.5564  0.3327  0.5341
16464SOL    HW252025   8.245   7.334  10.066 -0.8947  0.2945  0.5151
16465SOL     OW52026   1.339   4.893   0.463 -0.5676 -0.0150 -0.0394
16465SOL    HW152027   1.428   4.857   0.460 -0.0069  1.1214  1.6922
16465SOL    HW252028   1.338   4.960   0.395 -0.5962 -1.0061 -1.0536
16466SOL     OW52029   7.169   7.402   8.470  0.1024 -0.3930  0.2910
16466SOL    HW152030   7.130   7.371   8.552  0.1617 -0.7845  0.1745
16466SOL    HW252031   7.217   7.481   8.494 -1.1354  0.3557  0.3580
16467SOL     OW52032   6.138   8.454   2.392 -0.7302 -0.4946 -0.4216
16467SOL    HW152033   6.062   8.509   2.373 -1.2920 -1.1489 -0.1269
16467SOL    HW252034   6.122   8.373   2.344 -1.0066 -1.2481  0.8743
16468SOL     OW52035   0.476   6.109   9.697 -0.8789 -0.2523  0.2742
16468SOL    HW152036   0.490   6.017   9.718 -3.1147 -0.9165 -0.7804
16468SOL    HW252037   0.539   6.128   9.627 -0.1921 -0.8901  0.7132
16469SOL     OW52038   6.515   4.875   1.687 -0.2186  0.2225  0.0724
16469SOL    HW152039   6.602   4.882   1.727 -1.0643  1.1534  1.8546
16469SOL    HW252040   6.465   4.946   1.726 -2.0734 -0.8695 -0.2013
16470SOL     OW52041   9.081   2.729   2.757  0.3279 -0.4958 -0.0652
16470SOL    HW152042   9.056   2.809   2.710  2.1275 -1.3795 -2.8140
16470SOL    HW252043   9.176   2.736   2.766  0.4074 -1.9669  0.3994
16471SOL     OW52044   6.017   4.077   5.411 -0.1513  0.3291  0.5894
16471SOL    HW152045   6.022   3.981   5.409 -0.9397  0.2777 -1.5456
16471SOL    HW252046   5.991   4.097   5.501 -1.0658 -1.5371  0.8071
16472SOL     OW52047   6.498   1.820   2.434 -0.3448  0.2330 -0.1986
16472SOL    HW152048   6.492   1.853   2.345  0.3636 -1.3091 -0.8507
16472SOL    HW252049   6.587   1.788   2.442  0.0386  1.5510  1.5356
16473SOL     OW52050   6.523   3.175   8.190  0.7216  0.0913  0.1474
16473SOL    HW152051   6.443   3.129   8.164 -0.5836  2.0299  0.5995
16473SOL    HW252052   6.555   3.214   8.108  1.7326 -1.3409 -0.1997
16474SOL     OW52053   7.837   9.840   1.808  0.2409  0.8339 -0.3277
16474SOL    HW152054   7.895   9.913   1.831  0.0603  1.0166 -0.4519
16474SOL    HW252055   7.895   9.775   1.768  0.2132  1.4190 -1.3425
16475SOL     OW52056   2.060  10.269   8.517 -0.3296 -0.4471  0.2348
16475SOL    HW152057   2.156  10.277   8.523 -0.3594 -0.3765  0.6108
16475SOL    HW252058   2.027  10.349   8.558 -0.5601 -0.7284  0.5978
16476SOL     OW52059   2.026   9.280   2.363  0.4744 -0.4632  0.0988
16476SOL    HW152060   2.098   9.343   2.354  1.2830 -1.2644  0.7866
16476SOL    HW252061   1.947   9.331   2.347  1.1333  0.6752  0.3884
16477SOL     OW52062   0.952   7.963   9.834 -0.5503  0.5833 -0.2167
16477SOL    HW152063   0.883   7.918   9.883 -0.7451  0.6212 -0.4546
16477SOL    HW252064   1.031   7.951   9.887 -0.6118  0.0014 -0.2551
16478SOL     OW52065   9.903   8.793   8.723 -0.7207 -0.2418  0.3821
16478SOL    HW152066   9.865   8.881   8.733 -0.0586 -0.0824  1.6487
16478SOL    HW252067   9.955   8.780   8.802  4.0206  0.5682 -2.2719
16479SOL     OW52068   0.666   5.390   1.655 -0.0874 -0.1834 -0.1010
16479SOL    HW152069   0.618   5.315   1.690 -1.9254  0.5868 -0.8100
16479SOL    HW252070   0.687   5.366   1.565 -1.0097  0.2684 -0.4483
16480SOL     OW52071   5.837   3.620   6.393  0.2011 -0.0056  0.3193
16480SOL    HW152072   5.768   3.586   6.336 -0.1903 -0.2490  0.9254
16480SOL    HW252073   5.794   3.630   6.478  0.2971  1.9824  0.1878
16481SOL     OW52074   6.581   4.082   0.300  0.7001 -0.2315  0.2232
16481SOL    HW152075   6.498   4.128   0.308  0.1584 -1.1094 -0.2319
16481SOL    HW252076   6.622   4.119   0.222 -0.0113 -0.9374 -0.4979
16482SOL     OW52077   8.651   7.636   4.194  0.2397 -0.0631  0.4001
16482SOL    HW152078   8.570   7.616   4.242  0.4907  0.3431  1.0108
16482SOL    HW252079   8.708   7.561   4.210 -0.4882 -0.9883 -1.1499
16483SOL     OW52080   7.306   6.641   8.476  0.0074  0.4469 -0.5893
16483SOL    HW152081   7.278   6.606   8.391  1.2680 -1.5954 -0.2352
16483SOL    HW252082   7.345   6.726   8.456  1.7503 -0.6836 -2.3433
16484SOL     OW52083   6.740   7.636   2.920  0.2272  0.1328 -0.2674
16484SOL    HW152084   6.649   7.609   2.933  0.1352 -0.2307 -1.5291
16484SOL    HW252085   6.735   7.730   2.903  0.2006  0.3118  0.6945
16485SOL     OW52086   1.181   3.642   7.861 -0.2524  0.0976  0.0348
16485SOL    HW152087   1.118   3.712   7.844 -0.4431 -0.3569 -1.2341
16485SOL    HW252088   1.257   3.687   7.897 -1.2939  0.6504  1.6623
16486SOL     OW52089   8.114  10.163   5.219 -0.0728  0.2105 -0.0574
16486SOL    HW152090   8.123  10.139   5.311 -1.0755  0.6319  0.1632
16486SOL    HW252091   8.054  10.238   5.219  0.0678  0.3409 -1.0359
16487SOL     OW52092   5.355   6.748   7.502  0.5446  0.1867 -0.1965
16487SOL    HW152093   5.409   6.692   7.557  0.4779 -0.2563 -0.5749
16487SOL    HW252094   5.363   6.835   7.541  1.3016  0.0706 -0.0833
16488SOL     OW52095   4.676   7.466   3.229  0.2624  0.2535 -0.3892
16488SOL    HW152096   4.643   7.392   3.280 -2.3494  0.8435 -1.0694
16488SOL    HW252097   4.681   7.538   3.292 -2.3278  0.8101 -0.7108
16489SOL     OW52098   1.010   9.790   0.741  0.7768  0.6281  0.2881
16489SOL    HW152099   1.048   9.739   0.671 -1.7924 -2.5972  1.0022
16489SOL    HW252100   0.939   9.840   0.699  0.5913  0.3365  0.2556
16490SOL     OW52101   9.042   9.555   8.060  0.4243  0.1072 -0.2399
16490SOL    HW152102   9.092   9.593   7.988 -1.0703  0.8297 -0.9460
16490SOL    HW252103   8.993   9.629   8.097  2.0534  0.0275  2.3668
16491SOL     OW52104   0.132   6.312   0.864  0.2145 -0.0665  0.2788
16491SOL    HW152105   0.063   6.377   0.878  0.1630 -0.1883  0.6071
16491SOL    HW252106   0.202   6.339   0.924  1.0685  0.9148 -1.1022
16492SOL     OW52107   9.113   8.496   7.303 -0.0971  0.5608  0.3360
16492SOL    HW152108   9.126   8.402   7.294  1.9048  0.8010  0.2615
16492SOL    HW252109   9.023   8.511   7.274 -0.2930 -1.2566 -0.0974
16493SOL     OW52110   6.014   3.631   3.939 -0.1094  0.9002 -0.3768
16493SOL    HW152111   5.926   3.596   3.946  0.7902 -1.1694  2.7048
16493SOL    HW252112   6.058   3.574   3.876  0.1922 -1.1804  1.5636
16494SOL     OW52113   2.933   0.998   3.852 -0.2352 -0.4238  0.3000
16494SOL    HW152114   2.954   1.046   3.772 -0.8481 -2.4225 -1.1175
16494SOL    HW252115   2.842   1.023   3.871 -0.1273 -0.0365  0.3144
16495SOL     OW52116   8.990   9.658   5.478  0.0884  0.5659 -0.0009
16495SOL    HW152117   8.951   9.739   5.445 -0.9287 -0.2368 -0.8379
16495SOL    HW252118   8.916   9.599   5.491  0.8612 -0.4266  0.0497
16496SOL     OW52119   2.446   0.132   2.024  0.1051 -0.0695  0.2756
16496SOL    HW152120   2.364   0.091   2.050  0.1353  0.6051  1.5783
16496SOL    HW252121   2.461   0.103   1.934 -1.9700  0.4434 -0.2919
16497SOL     OW52122   7.946   3.077   1.958 -0.2437 -0.2100  0.0277
16497SOL    HW152123   8.013   3.054   1.894 -0.8215 -0.8571 -0.3572
16497SOL    HW252124   7.880   3.125   1.908 -0.7549 -0.8189  0.1038
16498SOL     OW52125   1.706   8.534   8.653 -0.2619 -0.5840 -0.0724
16498SOL    HW152126   1.786   8.581   8.675  0.4181 -1.8883  0.3635
16498SOL    HW252127   1.638   8.601   8.655  1.0635  0.9842 -2.4689
16499SOL     OW52128   5.927   7.032  10.184  0.4491 -0.3472 -0.3581
16499SOL    HW152129   5.867   6.987  10.243  0.6520 -0.4165 -0.2091
16499SOL    HW252130   6.013   6.994  10.201  0.2864 -1.4389 -1.7401
16500SOL     OW52131   5.393   3.494   7.428  0.4107 -0.2493  0.1860
16500SOL    HW152132   5.407   3.411   7.383  0.1456 -1.4746  2.2421
16500SOL    HW252133   5.302   3.492   7.455  0.5404  0.4811  0.7237
16501SOL     OW52134   9.683   3.888   5.753  0.6419  0.3011  0.0930
16501SOL    HW152135   9.707   3.943   5.678 -1.9502  1.3391 -0.0741
16501SOL    HW252136   9.590   3.905   5.766  0.3414 -2.1560  1.6932
16502SOL     OW52137   8.008   4.326   1.579  0.6514 -0.3069 -0.0516
16502SOL    HW152138   7.938   4.265   1.602  0.2570  0.6580  1.4782
16502SOL    HW252139   8.069   4.321   1.651  0.3696  1.4210  0.3523
16503SOL     OW52140   3.412   5.029   0.893 -0.1587 -0.0850  0.6509
16503SOL    HW152141   3.464   4.951   0.876  0.5129  0.2234  1.2385
16503SOL    HW252142   3.476   5.099   0.904 -0.7398  0.5190  0.3302
16504SOL     OW52143   9.076   8.668   0.215 -0.4867 -0.6010 -0.1252
16504SOL    HW152144   9.134   8.620   0.158  1.2599 -0.6870  1.6176
16504SOL    HW252145   9.012   8.603   0.245 -0.3507 -0.9525 -0.5879
16505SOL     OW52146   6.272   8.132   6.627  0.7957  0.6982  0.1475
16505SOL    HW152147   6.215   8.100   6.696  0.4347  1.1056  0.0393
16505SOL    HW252148   6.288   8.224   6.649  1.2743  0.6335  0.0864
16506SOL     OW52149   8.133   1.054   5.354 -0.5194 -0.1976  0.5825
16506SOL    HW152150   8.077   0.984   5.320  0.7382 -0.3812 -1.2811
16506SOL    HW252151   8.155   1.027   5.443 -2.1849 -0.8250  0.8304
16507SOL     OW52152   3.014   7.670   3.905  0.3253 -0.1798 -0.1165
16507SOL    HW152153   3.080   7.688   3.838  0.4768 -0.9667 -0.1817
16507SOL    HW252154   3.057   7.693   3.988  0.2731  0.4203 -0.2533
16508SOL     OW52155   3.066   9.471  10.166 -0.1004 -0.0470  0.4248
16508SOL    HW152156   3.015   9.440  10.241 -0.0357  1.8871  1.3353
16508SOL    HW252157   3.093   9.560  10.190  0.2989  0.4821 -1.7035
16509SOL     OW52158   1.445   3.480   9.912 -0.0429 -0.5105 -0.2447
16509SOL    HW152159   1.364   3.495   9.961 -0.0395 -0.3724 -0.2821
16509SOL    HW252160   1.435   3.393   9.875 -0.3067 -0.3684 -0.5089
16510SOL     OW52161   7.595  10.028   6.825  0.5221 -0.3641  0.2540
16510SOL    HW152162   7.555   9.976   6.755 -0.2611  2.5576 -1.6802
16510SOL    HW252163   7.579  10.119   6.799  3.5092  0.9256  2.3498
16511SOL     OW52164   4.883   5.135   8.586  0.0642 -0.1469 -0.0648
16511SOL    HW152165   4.818   5.138   8.516  0.2225  2.5911 -0.2109
16511SOL    HW252166   4.965   5.114   8.543 -0.2120 -0.6931 -0.3320
16512SOL     OW52167   6.468   3.226   3.083 -0.3472  0.1204 -0.6500
16512SOL    HW152168   6.400   3.182   3.033  1.1338 -0.8380 -1.9185
16512SOL    HW252169   6.526   3.155   3.112  0.2104  0.9208  0.2696
16513SOL     OW52170   3.334   3.284   2.860  0.6860  0.1381 -0.6885
16513SOL    HW152171   3.380   3.362   2.831  1.3543 -0.4464 -1.2243
16513SOL    HW252172   3.385   3.251   2.934  0.4045  0.2045 -0.4610
16514SOL     OW52173   9.654   1.476   7.465  0.4203 -0.1834  0.4325
16514SOL    HW152174   9.586   1.417   7.430  0.9361 -1.9209  2.1823
16514SOL    HW252175   9.701   1.423   7.529  1.7414  1.7986  1.1987
16515SOL     OW52176   7.810   2.439   6.875 -0.2482  0.4699  0.4416
16515SOL    HW152177   7.891   2.454   6.925 -0.6598  2.7619  0.5124
16515SOL    HW252178   7.828   2.476   6.789 -0.9254  0.1411  0.1520
16516SOL     OW52179   7.919   9.219   3.321 -0.2656  0.1506  0.2506
16516SOL    HW152180   7.999   9.200   3.271 -0.1870  0.1332  0.3823
16516SOL    HW252181   7.863   9.266   3.259  0.5011  1.6431  0.6313
16517SOL     OW52182   4.568   5.911   3.598 -0.1208  0.9357  0.4303
16517SOL    HW152183   4.623   5.941   3.525  2.2162  1.6546  2.3668
16517SOL    HW252184   4.478   5.919   3.565  0.8535 -0.0912 -2.8262
16518SOL     OW52185   9.076   8.200   6.443  0.1561 -0.1989  0.0660
16518SOL    HW152186   8.990   8.197   6.486  0.0128 -0.6790 -0.2536
16518SOL    HW252187   9.064   8.262   6.370  0.1900  0.0286  0.2507
16519SOL     OW52188   8.755   5.899   2.409  0.1214  0.3564 -0.5035
16519SOL    HW152189   8.792   5.953   2.339 -0.4450  0.6594 -0.5752
16519SOL    HW252190   8.828   5.885   2.469  0.6259  0.0550 -1.1747
16520SOL     OW52191   5.216   2.776   2.518 -0.2138  0.7062 -0.4413
16520SOL    HW152192   5.265   2.853   2.491  0.0134  0.3944 -0.9284
16520SOL    HW252193   5.166   2.805   2.595  1.5560  0.7222  0.7451
16521SOL     OW52194   7.268   8.089  10.338  0.3877 -0.0523 -0.3582
16521SOL    HW152195   7.214   8.120  10.265 -0.0103 -0.3947 -0.2096
16521SOL    HW252196   7.311   8.011  10.305  1.1892  0.4953 -0.6438
16522SOL     OW52197   5.014   3.697   0.112  0.1008 -0.1386 -0.2707
16522SOL    HW152198   4.966   3.778   0.128 -0.8639 -0.7555  0.0499
16522SOL    HW252199   5.102   3.726   0.087 -0.6492  1.0595 -1.7161
16523SOL     OW52200   3.374   7.968   9.557  0.2299  0.4914  0.0016
16523SOL    HW152201   3.321   7.913   9.614  2.1879 -0.7384  0.7214
16523SOL    HW252202   3.383   8.051   9.605  1.0723 -0.2044  1.0740
16524SOL     OW52203   5.060   8.346   6.908 -0.3996  0.1975 -0.0806
16524SOL    HW152204   5.083   8.431   6.871 -0.9431  0.9189  1.1839
16524SOL    HW252205   5.013   8.366   6.988  0.1942 -1.3049  0.6940
16525SOL     OW52206   5.156   8.432   1.726 -0.3103 -0.0561  0.2784
16525SOL    HW152207   5.200   8.474   1.652 -1.4154  0.8085  0.0831
16525SOL    HW252208   5.225   8.420   1.791  0.4313  0.2792 -0.4237
16526SOL     OW52209   2.985   5.875   0.316  0.5938  0.1036  0.4381
16526SOL    HW152210   2.968   5.781   0.311 -1.3230  0.4461 -0.7124
16526SOL    HW252211   3.047   5.892   0.245 -1.2321  0.0511 -1.2777
16527SOL     OW52212   1.872   8.720   9.362  0.0811  0.2974 -0.1683
16527SOL    HW152213   1.959   8.689   9.338 -0.4002 -1.9190  0.6536
16527SOL    HW252214   1.838   8.762   9.283  1.1925 -0.4594 -1.0795
16528SOL     OW52215   6.201   3.538   6.663 -0.1391  0.2795  0.5009
16528SOL    HW152216   6.241   3.562   6.580  0.7660  1.9597  1.3602
16528SOL    HW252217   6.134   3.604   6.677 -0.3095 -0.0111  1.0894
16529SOL     OW52218   9.206   5.153   4.886  0.6489 -0.1621 -0.3131
16529SOL    HW152219   9.195   5.225   4.824  3.4448 -0.0063 -0.7628
16529SOL    HW252220   9.235   5.195   4.967  1.5164 -0.7068 -0.3326
16530SOL     OW52221   7.757   4.017   5.826 -0.5387 -0.0285 -0.0966
16530SOL    HW152222   7.668   3.983   5.814 -1.3310  1.5920  0.8577
16530SOL    HW252223   7.790   3.969   5.903 -0.9051 -0.0415  0.0585
16531SOL     OW52224   8.974   9.162   2.810  0.0174 -0.2006  0.3576
16531SOL    HW152225   8.901   9.108   2.780  1.3362 -0.6691 -2.2699
16531SOL    HW252226   9.050   9.105   2.805  1.0852  1.2061 -0.2306
16532SOL     OW52227   6.166   3.056   3.330  0.4682 -0.3594 -0.0528
16532SOL    HW152228   6.173   3.077   3.237  0.5267 -0.5112 -0.0825
16532SOL    HW252229   6.241   2.999   3.347  0.0343 -0.9481 -0.0779
16533SOL     OW52230   2.106   0.308  10.189  0.2003 -0.1763 -0.1545
16533SOL    HW152231   2.059   0.291  10.270  0.4226  1.6670  0.4251
16533SOL    HW252232   2.064   0.387  10.153  0.0749 -0.9682 -1.8803
16534SOL     OW52233   7.167   9.787   3.408  0.4331 -0.5191  0.5982
16534SOL    HW152234   7.199   9.872   3.440 -0.3984 -0.5803  1.6620
16534SOL    HW252235   7.074   9.787   3.431  0.5229 -1.9053  1.0477
16535SOL     OW52236   4.250   0.686   8.539 -0.3343  0.2195 -0.3655
16535SOL    HW152237   4.249   0.600   8.582  1.0534 -0.4250 -1.4927
16535SOL    HW252238   4.158   0.712   8.534 -0.7077 -0.8130  0.7519
16536SOL     OW52239   1.851   6.874   8.812  0.1181  0.1877  0.1087
16536SOL    HW152240   1.770   6.830   8.785  0.1968  0.0298  0.1331
16536SOL    HW252241   1.857   6.859   8.906  1.2078 -1.5092 -0.1873
16537SOL     OW52242   2.090   6.735   9.469  0.3245 -0.0795  0.4958
16537SOL    HW152243   2.141   6.658   9.443  1.1307  0.8335 -0.7984
16537SOL    HW252244   2.045   6.709   9.549  1.1307 -1.6529  0.4755
16538SOL     OW52245   8.117  10.128   3.228  0.5783  0.0887  0.4726
16538SOL    HW152246   8.169  10.083   3.162 -0.7737 -1.6784  0.5638
16538SOL    HW252247   8.093  10.060   3.291 -0.9404  1.0720  0.9985
16539SOL     OW52248   3.061   5.189   4.426 -0.2220  0.4217 -0.0406
16539SOL    HW152249   3.036   5.097   4.433 -0.6487  0.6335  1.3942
16539SOL    HW252250   2.989   5.237   4.465  0.9457  1.2340  1.2033
16540SOL     OW52251   3.545   3.906   8.809  0.0632 -0.1639  0.3791
16540SOL    HW152252   3.576   3.952   8.731 -0.1566 -1.4997 -0.5431
16540SOL    HW252253   3.548   3.813   8.784  0.5427 -0.6628  2.1762
16541SOL     OW52254   5.888   2.366   4.444 -0.1566  0.2651 -0.5815
16541SOL    HW152255   5.918   2.326   4.526  2.6770  2.2133 -0.4939
16541SOL    HW252256   5.952   2.336   4.379 -2.2170 -1.0477 -2.1214
16542SOL     OW52257   6.811   3.256   9.575  0.2403  0.1382 -0.3185
16542SOL    HW152258   6.826   3.204   9.495 -2.8638  0.6861 -1.3730
16542SOL    HW252259   6.850   3.341   9.556  1.0939 -0.2852 -0.5094
16543SOL     OW52260   7.156   4.369   7.260  0.0253  0.2957  0.1109
16543SOL    HW152261   7.096   4.385   7.334 -0.1845  1.0575 -0.2166
16543SOL    HW252262   7.234   4.419   7.282  0.5753 -0.7339  0.5582
16544SOL     OW52263   2.264   8.922   5.472 -0.2358 -0.0275  0.8564
16544SOL    HW152264   2.348   8.963   5.450 -0.3246  0.3104  1.1404
16544SOL    HW252265   2.205   8.996   5.486 -0.8498 -0.2601 -0.3647
16545SOL     OW52266   2.501   6.330   4.466  0.0647 -0.3448 -0.1635
16545SOL    HW152267   2.571   6.332   4.402 -0.0188  0.3081 -0.2431
16545SOL    HW252268   2.421   6.325   4.414 -0.0002  0.1176 -0.1169
16546SOL     OW52269   3.792   5.988   6.139  0.1510 -0.1284 -0.1935
16546SOL    HW152270   3.802   6.082   6.147  3.2772 -0.4135  0.1944
16546SOL    HW252271   3.750   5.960   6.220 -0.3962  0.8380 -0.1329
16547SOL     OW52272   5.164   4.807   8.172  0.4023  0.0075  0.4824
16547SOL    HW152273   5.205   4.728   8.208  2.3958  0.3176 -0.9219
16547SOL    HW252274   5.204   4.818   8.086 -1.3573  1.4272 -0.2253
16548SOL     OW52275   7.215   1.372   6.988 -0.0696  0.7439  0.2627
16548SOL    HW152276   7.289   1.320   7.019 -0.2553  1.2758  1.6524
16548SOL    HW252277   7.203   1.345   6.897  1.3205  0.0752  0.2605
16549SOL     OW52278   5.346   1.296   3.450  0.0441 -0.4051 -0.5840
16549SOL    HW152279   5.395   1.364   3.497 -0.4904 -0.5894  0.2794
16549SOL    HW252280   5.410   1.253   3.394  0.8991 -0.7216  0.6086
16550SOL     OW52281   8.983   1.235   8.141  0.0506  0.4626 -0.2678
16550SOL    HW152282   9.029   1.273   8.216  0.4539 -2.2269  1.0067
16550SOL    HW252283   8.972   1.307   8.080  0.6293  2.5714  1.9369
16551SOL     OW52284   9.234   0.152   3.204 -0.1292  0.2316  0.4646
16551SOL    HW152285   9.280   0.080   3.160 -1.3656  0.2132 -0.8729
16551SOL    HW252286   9.300   0.191   3.262  1.1243 -0.7181 -0.2695
16552SOL     OW52287   6.705   3.407   1.646 -0.1405 -0.3369  0.5655
16552SOL    HW152288   6.785   3.431   1.599 -0.9794  0.1059 -0.6728
16552SOL    HW252289   6.634   3.439   1.591 -1.1820 -0.4341  1.7977
16553SOL     OW52290   2.392   5.508   9.556  0.1280  0.3706 -0.6049
16553SOL    HW152291   2.419   5.564   9.629  1.0206 -0.2615 -0.4376
16553SOL    HW252292   2.325   5.559   9.511  1.1112  1.6920 -0.6226
16554SOL     OW52293  10.338   0.253   8.217  0.2308  0.2700 -0.3396
16554SOL    HW152294  10.330   0.340   8.179 -2.4016  0.7747  1.1277
16554SOL    HW252295  10.427   0.250   8.253  1.1164  1.5017 -2.2624
16555SOL     OW52296   2.288   5.938   1.766 -0.5474 -0.1429 -0.0792
16555SOL    HW152297   2.355   5.869   1.761 -0.0862  0.1729  1.3502
16555SOL    HW252298   2.213   5.895   1.807 -1.0615 -0.3458 -1.1763
16556SOL     OW52299   6.493   5.117   0.472 -0.4214 -0.0174 -0.2160
16556SOL    HW152300   6.492   5.166   0.390 -0.2708 -0.4402 -0.4750
16556SOL    HW252301   6.541   5.037   0.451 -1.5143 -0.7365 -0.0657
16557SOL     OW52302   6.967   3.611   9.183  0.4131 -0.3307  0.2669
16557SOL    HW152303   6.893   3.671   9.179  0.3846 -0.3078  0.9820
16557SOL    HW252304   6.999   3.605   9.093  0.4269  0.7633  0.1853
16558SOL     OW52305   0.446   9.270   1.280  0.3290 -0.1079  0.2393
16558SOL    HW152306   0.351   9.275   1.295  0.4408  0.8801  0.6690
16558SOL    HW252307   0.485   9.301   1.362  1.0019  1.1201 -0.5202
16559SOL     OW52308   4.866   4.297   8.617  0.8030 -0.4543  0.1779
16559SOL    HW152309   4.797   4.334   8.671  0.1571  0.1656 -1.0355
16559SOL    HW252310   4.862   4.203   8.634  0.0129 -0.3642  0.5158
16560SOL     OW52311   6.682   5.905   6.046  0.2427  0.2870 -0.0790
16560SOL    HW152312   6.618   5.855   6.097  1.3200  0.8477  1.9008
16560SOL    HW252313   6.665   5.996   6.068  0.1806  0.6268 -1.4280
16561SOL     OW52314   5.514   1.791   9.193 -0.0066  0.1875 -0.1988
16561SOL    HW152315   5.498   1.811   9.286  0.7309 -2.2613  0.5295
16561SOL    HW252316   5.589   1.731   9.194 -0.2720 -0.2540 -2.3521
16562SOL     OW52317   5.792   6.557   8.720  0.3293  0.2083 -0.9781
16562SOL    HW152318   5.876   6.510   8.721  1.1350  1.5852 -0.3246
16562SOL    HW252319   5.754   6.539   8.806 -0.0175 -0.3635 -1.2498
16563SOL     OW52320   9.696   2.673   6.988 -0.2735  0.3026 -0.2436
16563SOL    HW152321   9.780   2.717   6.993  0.2687 -0.8703  1.7800
16563SOL    HW252322   9.644   2.712   7.058 -1.1537  0.4191 -0.9362
16564SOL     OW52323  10.256   5.930   1.444 -0.3892  0.5826 -0.0600
16564SOL    HW152324  10.278   5.841   1.471 -1.6055  0.0680 -0.7021
16564SOL    HW252325  10.260   5.928   1.349  2.7604  2.0871 -0.1095
16565SOL     OW52326   1.811   1.970   4.038  1.1340 -0.3357  0.2565
16565SOL    HW152327   1.762   2.046   4.007 -0.9249 -1.8784 -0.4737
16565SOL    HW252328   1.895   2.006   4.068 -0.4837  2.4716  1.7665
16566SOL     OW52329   9.528  10.228   3.456 -0.0591  0.7805 -0.1942
16566SOL    HW152330   9.578  10.289   3.401 -0.7593  0.8500 -0.7608
16566SOL    HW252331   9.460  10.282   3.496 -1.1488  0.2576 -1.2743
16567SOL     OW52332   0.681   6.988   1.686  0.3172  0.6293 -0.7841
16567SOL    HW152333   0.632   6.933   1.625  0.3023  0.4862 -0.6442
16567SOL    HW252334   0.649   7.077   1.670  0.2019  0.5701 -0.8773
16568SOL     OW52335   3.932   8.696   4.853 -0.0752  0.1270 -0.0725
16568SOL    HW152336   4.007   8.643   4.880  0.6323  0.8023 -0.6825
16568SOL    HW252337   3.888   8.643   4.786 -0.0355 -0.1901  0.1533
16569SOL     OW52338   4.736   9.944  10.028 -0.3065 -0.0989 -0.1598
16569SOL    HW152339   4.717   9.941  10.121 -0.0085 -0.1883 -0.1003
16569SOL    HW252340   4.734   9.852  10.000 -2.4636  0.0478 -0.6691
16570SOL     OW52341   7.985   9.028   1.350  0.8887  0.2597  0.1446
16570SOL    HW152342   7.927   8.972   1.402 -0.5295  0.6947 -0.8856
16570SOL    HW252343   8.065   9.035   1.402 -0.5775  0.9820  2.4449
16571SOL     OW52344   2.934   6.949   6.664 -0.5081 -0.2021  0.3631
16571SOL    HW152345   3.007   6.997   6.625 -1.1673 -0.2518 -0.9570
16571SOL    HW252346   2.892   7.012   6.723  1.3008 -0.5243  2.1284
16572SOL     OW52347   5.939   5.288   8.374 -0.8016  0.2033  0.2667
16572SOL    HW152348   5.921   5.215   8.433 -1.6189  1.3073  1.4068
16572SOL    HW252349   6.035   5.296   8.375 -0.5933 -1.6186 -0.8576
16573SOL     OW52350   7.389   5.235   2.587  0.2314 -0.3169 -0.4663
16573SOL    HW152351   7.437   5.207   2.665  0.9912 -0.1841 -0.8741
16573SOL    HW252352   7.321   5.169   2.575  0.6199 -0.7805 -0.1548
16574SOL     OW52353   0.754   1.279   2.731 -0.1225 -0.0600 -0.4001
16574SOL    HW152354   0.781   1.346   2.794  0.3117  0.0504 -0.7005
16574SOL    HW252355   0.683   1.320   2.682  0.0655  0.1417 -0.5064
16575SOL     OW52356   2.630   4.818   7.886  0.1911  0.2322  0.0749
16575SOL    HW152357   2.577   4.879   7.834  1.2679  0.6624 -0.5430
16575SOL    HW252358   2.711   4.866   7.903  0.9039 -0.8960 -0.0941
16576SOL     OW52359   8.663   6.006   8.184 -0.5675  0.1211 -0.0298
16576SOL    HW152360   8.701   6.086   8.147 -1.0223 -0.1217 -1.0337
16576SOL    HW252361   8.727   5.978   8.250 -0.6664  1.6150  0.7392
16577SOL     OW52362   1.622   7.391   5.580 -0.1009  0.4801 -0.4875
16577SOL    HW152363   1.629   7.303   5.541  0.1963  0.5489 -0.5931
16577SOL    HW252364   1.581   7.376   5.665 -1.8743  0.4605 -1.2972
16578SOL     OW52365   0.464   0.070   0.144  0.2644 -0.1003 -0.4537
16578SOL    HW152366   0.389   0.012   0.152  0.2969 -0.0005  0.8257
16578SOL    HW252367   0.432   0.156   0.171  0.7462  0.0071 -0.1977
16579SOL     OW52368   4.125   6.660   1.510  0.3008 -0.0150 -0.0873
16579SOL    HW152369   4.197   6.599   1.498  0.1700  0.1810 -2.1828
16579SOL    HW252370   4.047   6.605   1.512  0.4710 -0.3965  3.7528
16580SOL     OW52371   9.070   7.147   8.930 -0.2156  0.2224  0.0528
16580SOL    HW152372   9.115   7.102   8.858  1.3806  2.4690 -0.4801
16580SOL    HW252373   8.979   7.151   8.903  0.2176  0.3013 -1.4990
16581SOL     OW52374   0.164   5.351   3.561 -0.5848 -0.0880 -0.2250
16581SOL    HW152375   0.091   5.334   3.621 -0.6215 -0.9679 -0.5078
16581SOL    HW252376   0.193   5.439   3.584  0.4512 -0.9777  2.1741
16582SOL     OW52377   5.487   2.841   7.039  0.8130  0.4381 -0.1923
16582SOL    HW152378   5.424   2.771   7.049  0.1817  0.7215 -1.8401
16582SOL    HW252379   5.442   2.920   7.070  0.3765  0.6195 -1.2539
16583SOL     OW52380   9.793   2.226   7.231 -0.2887 -0.7854  0.3136
16583SOL    HW152381   9.748   2.284   7.293 -0.9937 -1.3134  0.3082
16583SOL    HW252382   9.840   2.285   7.173 -0.8248 -0.2201  0.4440
16584SOL     OW52383   7.798   7.102   3.068  0.0660  0.0720  0.8233
16584SOL    HW152384   7.882   7.122   3.028  0.8136 -0.9769  1.7978
16584SOL    HW252385   7.820   7.055   3.149 -1.3440  2.2002  2.5672
16585SOL     OW52386   3.743   2.028   5.192  0.1620  0.0749  0.3208
16585SOL    HW152387   3.770   2.095   5.129 -0.7516 -0.1534 -0.3383
16585SOL    HW252388   3.772   1.945   5.154  2.8819  0.1458  1.9678
16586SOL     OW52389   1.579   3.968   2.406  0.0471 -0.2688  0.3746
16586SOL    HW152390   1.542   3.969   2.318 -0.6681  0.3637  0.6651
16586SOL    HW252391   1.528   3.903   2.453  0.2191 -0.3822  0.4041
16587SOL     OW52392   5.884   2.073   3.001  0.0471 -0.2469  0.0494
16587SOL    HW152393   5.873   2.087   2.907 -0.4423  0.9977  0.2790
16587SOL    HW252394   5.961   2.124   3.025 -0.0358 -0.2734  0.3883
16588SOL     OW52395   5.026   4.736   1.817 -0.1701  0.4420 -0.6036
16588SOL    HW152396   4.954   4.740   1.880 -1.2634  1.6468 -1.8592
16588SOL    HW252397   5.105   4.738   1.871 -1.0647  0.5133  0.7580
16589SOL     OW52398   9.029   2.925   2.561 -0.2651  0.1917  0.1170
16589SOL    HW152399   9.065   2.875   2.488  0.4207  0.0170  0.5694
16589SOL    HW252400   8.939   2.944   2.535 -1.3307 -3.2130  0.8676
16590SOL     OW52401   2.101   4.941   5.074  0.1164 -0.0794 -0.1676
16590SOL    HW152402   2.128   4.916   5.163 -2.5668 -0.4132  0.6395
16590SOL    HW252403   2.114   4.861   5.023  1.4747  0.0487 -0.0773
16591SOL     OW52404   7.832  10.296   0.343 -0.5911  0.4745 -0.0238
16591SOL    HW152405   7.781  10.326   0.418 -0.6030 -0.8220  0.5163
16591SOL    HW252406   7.909  10.353   0.341  0.4488 -0.7106  2.2430
16592SOL     OW52407   4.863   7.438   5.013 -0.3790  0.0837  0.1338
16592SOL    HW152408   4.900   7.408   4.930  2.2456 -0.5692  1.4610
16592SOL    HW252409   4.849   7.532   5.001 -1.0916 -0.1801 -1.3697
16593SOL     OW52410   9.153   1.188   1.155 -0.6570  0.0902 -0.4513
16593SOL    HW152411   9.233   1.239   1.140  0.2710 -1.4552 -1.0163
16593SOL    HW252412   9.182   1.096   1.149 -2.4861 -0.5036 -0.6746
16594SOL     OW52413   5.856   6.700   5.916  0.3452  0.4278 -0.1074
16594SOL    HW152414   5.825   6.692   5.826 -0.5612 -1.2612  0.3126
16594SOL    HW252415   5.794   6.649   5.968  2.3920 -1.0127  1.1056
16595SOL     OW52416   1.645   4.093   7.388 -0.3850  0.3721 -0.5031
16595SOL    HW152417   1.590   4.019   7.413 -0.4048  0.4691 -0.2607
16595SOL    HW252418   1.669   4.135   7.471  1.7308 -0.8353 -0.4340
16596SOL     OW52419   1.581   4.372   2.193 -0.0530 -0.0597 -0.3213
16596SOL    HW152420   1.646   4.327   2.247 -1.8254 -0.3099  1.7458
16596SOL    HW252421   1.615   4.461   2.183 -0.3126  0.4545  2.5363
16597SOL     OW52422   0.744   8.066   2.074  0.1857 -0.3716 -0.2421
16597SOL    HW152423   0.669   8.009   2.061  1.9146 -3.0257  0.4693
16597SOL    HW252424   0.807   8.039   2.007  2.1935 -1.5089  1.9236
16598SOL     OW52425   6.242   1.218   3.291 -0.3770  0.1058 -0.3142
16598SOL    HW152426   6.147   1.232   3.289 -0.4020 -0.0230 -2.5967
16598SOL    HW252427   6.251   1.122   3.290 -0.2549  0.1167 -0.8843
16599SOL     OW52428   6.360   8.748   6.028  0.0158 -0.2499  0.2712
16599SOL    HW152429   6.307   8.826   6.048  1.1818  0.5991  0.1907
16599SOL    HW252430   6.357   8.696   6.108 -0.6020 -0.0233  0.4057
16600SOL     OW52431   2.547   7.333   7.490  0.3729 -0.2567 -0.0481
16600SOL    HW152432   2.579   7.408   7.540 -1.2368 -0.5895  1.5684
16600SOL    HW252433   2.564   7.356   7.399  1.9644  1.0579  0.5289
16601SOL     OW52434   2.216   1.392   5.010 -0.3942  0.6659 -0.1920
16601SOL    HW152435   2.287   1.435   5.058 -0.6155  1.4475 -0.5509
16601SOL    HW252436   2.242   1.398   4.918 -0.9612  1.0434 -0.3337
16602SOL     OW52437   2.860   0.149   6.839  0.4675  0.7002  0.0460
16602SOL    HW152438   2.825   0.194   6.761  2.3953  1.0156 -0.7002
16602SOL    HW252439   2.936   0.201   6.864  1.1066 -0.5876  0.8803
16603SOL     OW52440   3.952   8.030   2.094  0.0679 -0.4823 -0.5576
16603SOL    HW152441   3.987   7.956   2.143  0.2785 -0.4849 -0.7113
16603SOL    HW252442   4.023   8.056   2.035  0.3160  0.3962  0.1116
16604SOL     OW52443  10.198   7.379   0.325  0.2358 -0.5226 -0.0690
16604SOL    HW152444  10.142   7.394   0.249 -1.6011  0.3517  1.3904
16604SOL    HW252445  10.247   7.460   0.335  0.3077 -0.5536 -0.1628
16605SOL     OW52446   2.150   5.112   0.928  0.4953 -0.1471 -0.0075
16605SOL    HW152447   2.065   5.137   0.892  0.4681  0.1306  0.2476
16605SOL    HW252448   2.143   5.017   0.943  0.8458 -0.4617 -1.6561
16606SOL     OW52449   2.772   7.329   1.445 -0.1051  0.2064  0.0102
16606SOL    HW152450   2.727   7.324   1.361 -1.0670  0.0241  0.5249
16606SOL    HW252451   2.703   7.319   1.511  0.6610  0.0837  0.8249
16607SOL     OW52452   1.027   9.790   5.463 -0.2272  0.4103 -0.0795
16607SOL    HW152453   0.932   9.791   5.450 -0.2478  0.2581  0.0538
16607SOL    HW252454   1.055   9.705   5.429 -0.4376 -0.4937  1.9089
16608SOL     OW52455   8.881   5.684   3.838 -0.1021  0.1530  0.1120
16608SOL    HW152456   8.873   5.653   3.748  0.6277 -0.5394  0.2764
16608SOL    HW252457   8.909   5.608   3.887 -0.3401  0.5696  0.9058
16609SOL     OW52458   2.544   4.892   5.092  0.0168  0.0550 -0.2541
16609SOL    HW152459   2.546   4.987   5.107 -0.7345  0.0889 -0.3504
16609SOL    HW252460   2.634   4.871   5.064  0.1361  0.7691 -0.4415
16610SOL     OW52461   1.489   7.216   2.025 -0.0510 -0.0174  0.0898
16610SOL    HW152462   1.548   7.185   1.956  0.2489 -3.2863  1.6150
16610SOL    HW252463   1.546   7.255   2.091  0.3034 -1.6068  0.7722
16611SOL     OW52464   5.673   6.282   2.801 -0.0715  0.6154  0.3601
16611SOL    HW152465   5.701   6.193   2.822  0.7316  0.8472  0.3241
16611SOL    HW252466   5.614   6.307   2.872 -0.7194 -0.1282  0.0967
16612SOL     OW52467   2.274   8.727   7.960 -0.1977  0.1457 -0.4596
16612SOL    HW152468   2.207   8.764   8.017  0.8575 -0.1825  1.0646
16612SOL    HW252469   2.356   8.745   8.005  0.8648  1.2884 -2.6706
16613SOL     OW52470   8.060   0.407   2.597 -0.1842 -0.0860 -0.2711
16613SOL    HW152471   8.113   0.475   2.638  1.3962 -0.4946 -1.5367
16613SOL    HW252472   8.028   0.447   2.516 -2.1171  0.2455  0.5897
16614SOL     OW52473   3.113   9.138   0.446 -0.3769 -0.0671  0.6008
16614SOL    HW152474   3.061   9.136   0.367  0.3930  0.3048  0.0709
16614SOL    HW252475   3.085   9.217   0.492 -0.0760  0.2961  0.1692
16615SOL     OW52476   6.318   6.285   3.942 -0.5180 -0.3792  0.2680
16615SOL    HW152477   6.300   6.349   3.874 -1.3441 -0.7752  0.0931
16615SOL    HW252478   6.344   6.206   3.895  1.3423  0.0423  0.5048
16616SOL     OW52479   1.632   9.272   0.500  0.1482 -0.2235  0.5639
16616SOL    HW152480   1.577   9.282   0.422 -0.2750  1.2230  1.0111
16616SOL    HW252481   1.719   9.299   0.470 -0.0699  0.6027  0.6389
16617SOL     OW52482   9.599   5.586   9.325 -0.0497  0.1791  0.0819
16617SOL    HW152483   9.530   5.573   9.260  0.2036  1.4492 -0.4690
16617SOL    HW252484   9.611   5.500   9.365 -0.2045 -0.6369 -1.5611
16618SOL     OW52485   8.811   7.571   6.947  0.4358 -0.0537  0.4915
16618SOL    HW152486   8.879   7.509   6.920  0.6814  0.6265 -0.5362
16618SOL    HW252487   8.729   7.521   6.942  0.8259 -0.8562  1.6649
16619SOL     OW52488   2.872   9.207   0.265 -0.1230  0.2256  0.0680
16619SOL    HW152489   2.840   9.243   0.347 -0.3443  1.0433 -0.3670
16619SOL    HW252490   2.828   9.258   0.197 -0.1976 -0.6453 -0.5692
16620SOL     OW52491   4.167   8.056   5.763 -0.2477 -0.3890  0.6291
16620SOL    HW152492   4.094   8.087   5.817 -0.4560 -0.3538  0.3273
16620SOL    HW252493   4.239   8.115   5.785 -0.3569 -0.3207  0.8060
16621SOL     OW52494   6.600   5.535   3.130  0.1239 -0.9607 -0.1424
16621SOL    HW152495   6.627   5.561   3.042  2.9521  0.5123  1.0356
16621SOL    HW252496   6.564   5.614   3.169 -0.0015 -1.2823  0.4112
16622SOL     OW52497   0.544   6.563   8.472  0.4508  0.8242  0.3733
16622SOL    HW152498   0.602   6.616   8.418  0.0009  0.2218 -0.7320
16622SOL    HW252499   0.470   6.543   8.416 -1.3126  2.3340  2.0426
16623SOL     OW52500   5.121   4.806   6.280 -0.2818  0.4592  0.0075
16623SOL    HW152501   5.144   4.884   6.331  0.2238  0.7919 -0.7070
16623SOL    HW252502   5.198   4.750   6.285  0.5327  1.3355 -1.9407
16624SOL     OW52503   6.548   7.902   5.759 -0.2308  0.4102  0.0006
16624SOL    HW152504   6.491   7.828   5.783 -2.1509  1.7778 -0.0693
16624SOL    HW252505   6.493   7.979   5.774  1.3860  1.7793 -0.8565
16625SOL     OW52506   3.745   6.461   8.756  0.2115  0.5985  0.0387
16625SOL    HW152507   3.783   6.435   8.672  0.1909  1.2648 -0.1892
16625SOL    HW252508   3.794   6.412   8.822  0.9907  0.9088 -0.2974
16626SOL     OW52509   8.541   4.512   8.755  0.3332  0.0671 -0.2724
16626SOL    HW152510   8.636   4.504   8.764  0.5108  1.4633 -0.6221
16626SOL    HW252511   8.523   4.605   8.769 -1.3307 -0.5585  2.7483
16627SOL     OW52512   5.899   5.996   1.780  0.0348  0.2543 -0.3286
16627SOL    HW152513   5.916   5.933   1.850 -0.7661  1.1855  0.7232
16627SOL    HW252514   5.816   5.968   1.742 -0.5656  0.9292  0.4548
16628SOL     OW52515   6.048   5.741   0.596  0.1349  0.3293 -0.1897
16628SOL    HW152516   5.953   5.734   0.590  0.2089 -2.2413  0.5315
16628SOL    HW252517   6.080   5.711   0.511  0.3186  0.2931 -0.1083
16629SOL     OW52518   6.271   4.252   7.176 -0.2698  0.1028 -0.0593
16629SOL    HW152519   6.297   4.303   7.253  1.4452 -2.4982  1.2454
16629SOL    HW252520   6.208   4.189   7.209 -1.2761  0.3864 -1.3388
16630SOL     OW52521   2.446   0.961   1.843 -0.3206  0.0338 -0.4897
16630SOL    HW152522   2.462   0.870   1.815  1.0775  0.1456 -0.1589
16630SOL    HW252523   2.485   0.966   1.930  1.5961  1.4957 -1.3684
16631SOL     OW52524   7.365   3.895   1.719  0.3509 -0.3510  0.1188
16631SOL    HW152525   7.332   3.978   1.684  0.6537 -0.8212 -1.3733
16631SOL    HW252526   7.436   3.921   1.778  0.9713  0.4557 -0.9238
16632SOL     OW52527   7.114   8.335   5.426 -0.6236  0.4008 -0.1759
16632SOL    HW152528   7.132   8.241   5.430  0.1467  0.5721  0.8208
16632SOL    HW252529   7.162   8.365   5.349  1.4604  0.4034  1.0150
16633SOL     OW52530  10.229   2.602   5.690  0.2674  0.1410 -0.5974
16633SOL    HW152531  10.200   2.693   5.684 -0.5589 -0.0547  0.2357
16633SOL    HW252532  10.208   2.576   5.779  0.5631 -0.8537 -0.8053
16634SOL     OW52533   9.952   4.027   3.609  0.8266  0.5236 -0.2590
16634SOL    HW152534  10.043   4.048   3.588  1.6296 -3.2216 -1.2910
16634SOL    HW252535   9.945   4.041   3.704  2.8169 -0.1499  0.0219
16635SOL     OW52536   3.293   9.244   8.668  0.3786  0.2921 -0.1432
16635SOL    HW152537   3.340   9.215   8.589  0.2496 -1.0665  0.2502
16635SOL    HW252538   3.201   9.235   8.644  0.3337 -0.8590  0.3882
16636SOL     OW52539   6.844   6.742   2.773 -0.4576  0.2551 -0.4240
16636SOL    HW152540   6.938   6.732   2.760 -0.6577  0.2466 -2.0471
16636SOL    HW252541   6.811   6.653   2.782 -0.4674  0.1613 -1.2585
16637SOL     OW52542   8.197   7.372   7.229  0.5132  0.0181 -0.2054
16637SOL    HW152543   8.183   7.284   7.194  0.7369 -0.4447  0.8346
16637SOL    HW252544   8.125   7.385   7.290  0.9163  0.2300  0.2342
16638SOL     OW52545   5.599   1.222   7.163 -0.2309  0.0906  0.1810
16638SOL    HW152546   5.624   1.129   7.170 -0.8764 -0.1770 -0.9329
16638SOL    HW252547   5.564   1.243   7.249 -0.8265 -0.9319  0.2066
16639SOL     OW52548   2.078   2.970   1.010  0.1635 -0.0179 -0.5689
16639SOL    HW152549   2.069   2.975   0.914 -1.7041  0.7760 -0.4034
16639SOL    HW252550   2.124   2.888   1.026 -1.9952 -1.6089 -2.0479
16640SOL     OW52551   6.133   4.074  10.093  0.1140  0.0069  0.1096
16640SOL    HW152552   6.210   4.122  10.123  0.2184  1.1622 -1.8932
16640SOL    HW252553   6.070   4.082  10.166  0.9868  1.1369  0.7595
16641SOL     OW52554   2.874   1.851   0.104  0.0584  0.6548 -0.5669
16641SOL    HW152555   2.885   1.941   0.134  1.0194  0.7512 -1.1814
16641SOL    HW252556   2.818   1.811   0.170 -1.3924  2.0221 -0.9091
16642SOL     OW52557   9.210   7.532   6.014 -1.0203 -0.3916 -0.3574
16642SOL    HW152558   9.122   7.557   6.042 -0.5122 -1.4392  2.5858
16642SOL    HW252559   9.200   7.507   5.922 -3.7878 -0.5315 -0.1166
16643SOL     OW52560   9.981   7.108  10.168  0.3812 -0.1566  0.5111
16643SOL    HW152561  10.002   7.193  10.130 -0.4692 -0.7399 -1.3693
16643SOL    HW252562  10.060   7.084  10.217  1.0681  1.1785  0.1169
16644SOL     OW52563   5.140   7.975   4.218 -0.0613  0.3334 -0.3897
16644SOL    HW152564   5.161   7.888   4.185 -0.0629  0.6759 -1.2965
16644SOL    HW252565   5.221   8.005   4.260 -0.4777 -0.6849  1.2743
16645SOL     OW52566   9.323   0.795   8.172  0.1461  0.3685 -0.1703
16645SOL    HW152567   9.288   0.840   8.096  0.5707 -0.6125 -0.9639
16645SOL    HW252568   9.269   0.826   8.245  0.0132  1.6490 -0.7847
16646SOL     OW52569   9.522   8.298   5.571 -0.4939 -0.2730 -0.5786
16646SOL    HW152570   9.447   8.258   5.614 -1.2860  0.5311 -1.1766
16646SOL    HW252571   9.484   8.357   5.506  0.6241  1.2559  0.0937
16647SOL     OW52572   2.760   8.232   4.437  0.5221 -0.3933 -0.3819
16647SOL    HW152573   2.852   8.224   4.411  1.0241 -1.7573  1.5526
16647SOL    HW252574   2.723   8.145   4.419  0.0107 -0.2962  0.1523
16648SOL     OW52575   2.112   3.490   6.318  0.4768  0.0926 -0.4181
16648SOL    HW152576   2.072   3.493   6.231 -0.0377  0.4276 -0.1766
16648SOL    HW252577   2.190   3.543   6.311 -1.0665  2.5806  0.0601
16649SOL     OW52578  10.198   9.709   1.778  0.2128 -0.0013  0.3991
16649SOL    HW152579  10.135   9.689   1.709 -0.2164  1.3518  0.3752
16649SOL    HW252580  10.171   9.794   1.811  1.9726  0.5781  0.4467
16650SOL     OW52581   2.355   5.569   1.744 -0.1142 -0.1316 -0.5554
16650SOL    HW152582   2.366   5.567   1.649  0.3055 -1.1989 -0.4976
16650SOL    HW252583   2.403   5.647   1.772  0.2532 -0.1330 -1.1607
16651SOL     OW52584   4.696   7.701   3.651 -0.0430 -0.4834  0.0245
16651SOL    HW152585   4.759   7.661   3.711 -0.0242  1.1700  1.1988
16651SOL    HW252586   4.718   7.794   3.652 -0.8013 -0.2363 -1.6716
16652SOL     OW52587   5.472   0.757   0.584 -0.1540  0.3212 -0.7771
16652SOL    HW152588   5.475   0.852   0.591  0.8714  0.1556  3.2456
16652SOL    HW252589   5.563   0.729   0.588 -0.5365 -0.8713  0.4242
16653SOL     OW52590   5.618   9.881   2.955  0.0608 -0.0785  0.2815
16653SOL    HW152591   5.629   9.976   2.945 -0.8076 -0.0339 -0.3688
16653SOL    HW252592   5.688   9.843   2.902 -0.5521  0.2125 -0.7825
16654SOL     OW52593   8.335   4.148   4.041  0.1082 -0.1538  0.3371
16654SOL    HW152594   8.291   4.194   3.969  2.5418  1.2161 -0.3880
16654SOL    HW252595   8.264   4.123   4.100 -1.8921 -0.4914 -2.0435
16655SOL     OW52596   6.550   9.738   5.392 -0.9439  0.4413 -0.0961
16655SOL    HW152597   6.606   9.660   5.396 -0.2819  0.9192  0.1410
16655SOL    HW252598   6.461   9.703   5.392 -0.6485 -0.3447 -0.7937
16656SOL     OW52599   1.647   3.259   0.031 -0.1409 -0.0301 -0.0507
16656SOL    HW152600   1.615   3.349   0.029 -2.2272 -0.7116 -1.8795
16656SOL    HW252601   1.742   3.266   0.025 -0.2005  2.0340  0.6746
16657SOL     OW52602   6.407   4.007   5.531 -0.9698  0.1061 -0.0788
16657SOL    HW152603   6.421   3.922   5.491  1.1796  0.3354  0.0636
16657SOL    HW252604   6.351   4.055   5.469 -1.1072 -0.9399 -0.7791
16658SOL     OW52605   9.448   2.234   8.603 -0.0843  0.2023  0.1610
16658SOL    HW152606   9.522   2.177   8.581  0.4588  0.7929  0.4447
16658SOL    HW252607   9.488   2.316   8.630 -0.6318 -0.4781  3.5075
16659SOL     OW52608   7.580   2.480   3.219 -0.6916 -1.0476  0.7103
16659SOL    HW152609   7.660   2.430   3.204 -0.3659 -0.6002  0.9182
16659SOL    HW252610   7.547   2.447   3.303  0.2083 -0.0586  1.4903
16660SOL     OW52611   8.717   1.922   0.463  0.6733 -0.2600 -0.1741
16660SOL    HW152612   8.809   1.918   0.436  1.1260  0.5329  1.1541
16660SOL    HW252613   8.709   2.005   0.510 -0.5985 -0.5650  0.1986
16661SOL     OW52614   4.396   4.438   8.779  0.0627  0.0278 -0.2056
16661SOL    HW152615   4.348   4.460   8.699  0.9980 -0.1263 -0.8358
16661SOL    HW252616   4.363   4.498   8.845  0.3761  1.2418 -1.1100
16662SOL     OW52617   0.876   4.458   3.773  0.5276  0.2577  0.3846
16662SOL    HW152618   0.817   4.531   3.792 -0.2733 -0.0882 -0.6621
16662SOL    HW252619   0.918   4.482   3.690  0.3363 -0.4171  0.0851
16663SOL     OW52620   4.330   2.853  10.251 -0.1842 -0.1800  0.7009
16663SOL    HW152621   4.423   2.868  10.264 -0.1063 -1.5405  1.8240
16663SOL    HW252622   4.288   2.929  10.291  0.4125  0.4371  0.1978
16664SOL     OW52623   6.622   6.695   7.828  0.6249 -0.5274 -0.4447
16664SOL    HW152624   6.624   6.604   7.799  1.0436  0.6223 -4.7895
16664SOL    HW252625   6.711   6.713   7.857  1.0330 -1.0958 -1.2811
16665SOL     OW52626   1.906   9.762   4.050  0.7934  0.5228 -0.6617
16665SOL    HW152627   1.930   9.674   4.082  2.8552  1.9591  2.2036
16665SOL    HW252628   1.861   9.746   3.967 -1.1917 -3.3845  0.9038
16666SOL     OW52629   9.396   4.429   3.789  0.3993 -0.4510 -1.1094
16666SOL    HW152630   9.474   4.374   3.777  1.3573  0.6293 -0.1035
16666SOL    HW252631   9.344   4.383   3.855  0.5294 -0.8180 -1.2580
16667SOL     OW52632   4.251   4.875   8.199 -0.1403 -0.1274  0.4291
16667SOL    HW152633   4.332   4.881   8.148 -0.4399  1.4764  0.0963
16667SOL    HW252634   4.194   4.819   8.146  0.2423 -0.1009 -0.0217
16668SOL     OW52635   6.374   4.751   6.086 -0.3625 -0.2789 -0.2953
16668SOL    HW152636   6.421   4.671   6.110 -0.3231 -0.0328  0.4600
16668SOL    HW252637   6.284   4.736   6.116 -0.6454 -0.5160 -1.2249
16669SOL     OW52638   4.820   2.410   6.094 -0.1519 -0.1059  0.5173
16669SOL    HW152639   4.772   2.332   6.066  1.2009  0.2256 -3.3559
16669SOL    HW252640   4.758   2.482   6.084 -0.3545 -0.2806  0.5240
16670SOL     OW52641   0.791   3.981   7.703  0.1492  0.0018  0.0951
16670SOL    HW152642   0.739   4.055   7.734  0.5621 -0.7758  2.9823
16670SOL    HW252643   0.734   3.936   7.641 -2.2134 -0.1183  2.1738
16671SOL     OW52644   8.927   1.549   8.923 -0.2208 -0.0474  0.8537
16671SOL    HW152645   8.843   1.570   8.965 -0.7283 -0.0763 -0.1127
16671SOL    HW252646   8.934   1.611   8.851  1.4463  1.1334  1.9542
16672SOL     OW52647   5.935   6.865   1.464 -0.1442 -0.1300  0.1283
16672SOL    HW152648   5.886   6.866   1.546  1.1963 -0.2709  0.9603
16672SOL    HW252649   5.990   6.787   1.470  0.5905  0.3228 -0.5254
16673SOL     OW52650   2.817   9.880   0.671  0.2869 -0.0621 -0.0216
16673SOL    HW152651   2.786   9.965   0.641 -0.7603 -0.7233 -0.9270
16673SOL    HW252652   2.903   9.897   0.708 -0.5901  1.6552  1.3531
16674SOL     OW52653   7.937   5.485   9.796 -0.7818 -0.0152 -0.4925
16674SOL    HW152654   7.861   5.432   9.820 -0.8187  0.8146  1.4243
16674SOL    HW252655   7.988   5.492   9.876  0.4383  0.8764 -1.3058
16675SOL     OW52656   4.455   7.556   5.802 -0.2310 -0.7077 -0.1433
16675SOL    HW152657   4.489   7.509   5.879 -1.0799  0.0184  0.6961
16675SOL    HW252658   4.377   7.507   5.777  0.5268 -1.4596 -1.1106
16676SOL     OW52659   7.576   8.292   8.762 -0.2059  0.6518 -0.2594
16676SOL    HW152660   7.612   8.335   8.685  1.9490  1.2169  0.9649
16676SOL    HW252661   7.541   8.363   8.816 -2.3040  0.2023 -0.9488
16677SOL     OW52662   0.216   4.079   2.489  0.0180  0.3341  0.4513
16677SOL    HW152663   0.276   4.059   2.561  0.6148 -1.4445 -0.4921
16677SOL    HW252664   0.135   4.033   2.510  0.1537 -0.0937  0.0535
16678SOL     OW52665   8.127   6.690   5.472 -0.8089 -0.0749  0.1091
16678SOL    HW152666   8.205   6.728   5.512 -2.3475  0.8671  2.3831
16678SOL    HW252667   8.155   6.667   5.383  1.9153  0.5939  0.7069
16679SOL     OW52668   0.784   0.849   0.143 -0.2834  0.4287  0.4112
16679SOL    HW152669   0.812   0.762   0.115  1.7010  0.6181  1.5997
16679SOL    HW252670   0.739   0.885   0.067  0.5175 -0.9242 -0.7655
16680SOL     OW52671   9.474   7.279   5.824  0.7881  0.7259 -0.3141
16680SOL    HW152672   9.421   7.353   5.794 -0.7784 -0.4155 -0.5137
16680SOL    HW252673   9.410   7.210   5.843  2.2781 -1.1852 -1.8092
16681SOL     OW52674   2.514  10.322   8.938  0.0571 -0.2055 -0.4822
16681SOL    HW152675   2.451  10.390   8.915  0.6957  0.5093 -0.1415
16681SOL    HW252676   2.590  10.339   8.883  1.5564  1.4571  1.9087
16682SOL     OW52677   7.580   8.638   9.250 -0.5058 -0.4447  0.1933
16682SOL    HW152678   7.502   8.670   9.204  0.0209 -0.0047 -0.4061
16682SOL    HW252679   7.632   8.716   9.268 -0.0535 -0.7669  0.3072
16683SOL     OW52680  10.045   8.348   4.454  0.3998  0.4088 -0.4267
16683SOL    HW152681  10.011   8.425   4.500  0.9213  0.8076 -0.6850
16683SOL    HW252682   9.989   8.276   4.482 -1.1574  1.1723 -1.4714
16684SOL     OW52683   0.716   9.245   5.926  0.6135 -0.2282  0.6661
16684SOL    HW152684   0.669   9.328   5.916 -1.0881 -1.3256 -1.0711
16684SOL    HW252685   0.747   9.246   6.017 -0.9983  1.4567  1.2569
16685SOL     OW52686   4.136   7.534   1.711  0.1590 -0.7755  0.1653
16685SOL    HW152687   4.133   7.533   1.615  0.5519  0.9379  0.1074
16685SOL    HW252688   4.059   7.583   1.737 -0.8471 -2.6163  0.8387
16686SOL     OW52689   8.660   9.436   9.540  0.0039  0.3563  0.0383
16686SOL    HW152690   8.668   9.516   9.488  1.0214 -0.3408 -0.9142
16686SOL    HW252691   8.722   9.448   9.612 -0.8998  1.0221  0.7306
16687SOL     OW52692   5.689   8.320   9.934 -1.0608 -0.1263 -0.4708
16687SOL    HW152693   5.747   8.248   9.956  0.3855  0.8396 -0.9955
16687SOL    HW252694   5.630   8.327  10.010 -0.7298 -1.3301 -0.0810
16688SOL     OW52695   8.728   9.469  10.010 -0.0925  0.3730 -0.1850
16688SOL    HW152696   8.730   9.516  10.094 -0.9492  0.0515  0.0182
16688SOL    HW252697   8.637   9.474   9.981 -0.4375 -1.9731  0.3150
16689SOL     OW52698   6.545   3.322   0.778  0.1887  0.3043  0.0795
16689SOL    HW152699   6.608   3.289   0.842  0.7224  0.7754 -0.1964
16689SOL    HW252700   6.546   3.417   0.790 -1.1451  0.2699  0.6942
16690SOL     OW52701   7.551   1.793   8.693 -0.3359  0.1355  0.0150
16690SOL    HW152702   7.599   1.855   8.638  1.6807 -0.2511  1.2244
16690SOL    HW252703   7.595   1.798   8.778 -2.6130 -0.1173  1.2795
16691SOL     OW52704   2.313   4.383   4.687 -0.1320 -0.0175  0.0146
16691SOL    HW152705   2.267   4.419   4.763  0.6402 -0.7524  0.8608
16691SOL    HW252706   2.283   4.293   4.681  0.0752 -0.0644 -0.3303
16692SOL     OW52707   1.298   3.572   2.015  0.0174 -0.5784  0.4990
16692SOL    HW152708   1.217   3.525   2.034 -0.3496 -0.0714  0.2405
16692SOL    HW252709   1.314   3.624   2.093 -1.2884  1.2219 -0.3447
16693SOL     OW52710   1.645   5.742   8.219  0.1955  0.0518 -0.0897
16693SOL    HW152711   1.688   5.810   8.271  0.0409  0.7907 -0.8887
16693SOL    HW252712   1.695   5.663   8.237  1.9868  0.8936 -1.0198
16694SOL     OW52713   1.650   4.602   9.812  0.3388  0.1249  0.3623
16694SOL    HW152714   1.562   4.598   9.851 -0.3716 -0.6784 -1.2318
16694SOL    HW252715   1.696   4.526   9.849 -0.4026 -0.7609 -0.4777
16695SOL     OW52716   6.370   6.178   5.118 -0.0843  0.2139  0.6878
16695SOL    HW152717   6.355   6.219   5.203 -0.6289  1.2906  0.0928
16695SOL    HW252718   6.313   6.101   5.118 -1.8943  1.5059  0.4064
16696SOL     OW52719   4.951   3.372   5.136 -0.1356  0.0433 -0.5209
16696SOL    HW152720   4.907   3.389   5.053  0.5560 -0.0186 -0.9065
16696SOL    HW252721   4.882   3.337   5.192 -0.4912 -0.4329 -1.2346
16697SOL     OW52722   6.508   3.615   4.645 -0.2396 -0.5462  0.7219
16697SOL    HW152723   6.564   3.675   4.693 -0.7816  1.3931 -0.9487
16697SOL    HW252724   6.453   3.574   4.713 -0.3264  1.3618  1.8642
16698SOL     OW52725   1.928   9.326   7.151 -0.2619 -0.2296 -0.1663
16698SOL    HW152726   1.902   9.305   7.062 -0.8926 -3.6742  0.6914
16698SOL    HW252727   1.846   9.349   7.195 -0.0072  1.0555 -0.3165
16699SOL     OW52728   0.066   4.092   7.676 -0.1177  0.1174  0.2975
16699SOL    HW152729   0.160   4.097   7.690 -0.1006 -0.6984  0.5059
16699SOL    HW252730   0.028   4.096   7.764 -0.2097 -0.8287  0.3080
16700SOL     OW52731   7.256   1.116   5.858  0.3538  0.2927 -0.0797
16700SOL    HW152732   7.255   1.021   5.864 -0.4756  0.1283 -2.0007
16700SOL    HW252733   7.182   1.137   5.801  1.5346  1.9543 -1.0977
16701SOL     OW52734   8.855   7.859   1.658  0.0733  0.2119 -0.2891
16701SOL    HW152735   8.847   7.795   1.587  0.1283 -1.8184  1.4426
16701SOL    HW252736   8.889   7.938   1.615  0.3833 -1.0107 -2.4552
16702SOL     OW52737   4.986   3.882   2.627 -0.0408 -0.4135 -0.1701
16702SOL    HW152738   4.938   3.871   2.544  0.5607  1.2933 -0.7797
16702SOL    HW252739   5.071   3.841   2.610 -0.0194 -0.3139 -0.3113
16703SOL     OW52740   4.539   0.241   5.550  0.0570  0.1155  0.0326
16703SOL    HW152741   4.460   0.228   5.498 -0.0650 -1.4450  0.5460
16703SOL    HW252742   4.609   0.203   5.497 -0.0773 -1.5367  0.9671
16704SOL     OW52743   2.117   4.784   4.068 -0.2939 -0.1973 -0.1546
16704SOL    HW152744   2.202   4.751   4.042 -0.0874 -0.1110  0.3922
16704SOL    HW252745   2.134   4.837   4.146 -0.9343 -0.7858  0.4021
16705SOL     OW52746   2.307   2.255   2.556  0.2848 -0.3709  0.3068
16705SOL    HW152747   2.283   2.346   2.572 -1.3303 -0.6913 -0.1344
16705SOL    HW252748   2.309   2.247   2.460  0.8929 -0.6925  0.3394
16706SOL     OW52749   8.611   0.477   2.707 -0.0759 -0.2457 -0.0563
16706SOL    HW152750   8.691   0.460   2.657 -0.0664  0.1584 -0.1850
16706SOL    HW252751   8.549   0.411   2.676 -0.2051  0.2663 -0.9256
16707SOL     OW52752  10.172   5.881   7.519  0.3915  0.1777  0.0277
16707SOL    HW152753  10.134   5.889   7.431 -0.8222 -1.9168  0.3061
16707SOL    HW252754  10.098   5.890   7.578  1.0670  0.6723  0.8232
16708SOL     OW52755   1.436   3.753   2.572 -0.0144  0.1090 -0.0375
16708SOL    HW152756   1.424   3.839   2.612 -0.2274 -0.5186  1.3341
16708SOL    HW252757   1.362   3.701   2.604  0.4373 -0.7514 -0.3487
16709SOL     OW52758  10.019   9.626   3.565  0.2193  0.6655  0.0934
16709SOL    HW152759  10.097   9.632   3.621 -0.1983  1.5731  0.5945
16709SOL    HW252760   9.963   9.562   3.609  0.5333  0.2609 -0.0899
16710SOL     OW52761   3.645   1.128   0.414 -0.2786 -0.6254  0.6373
16710SOL    HW152762   3.579   1.060   0.402 -0.9518  0.0917  0.2154
16710SOL    HW252763   3.642   1.179   0.333  0.7381 -0.5304  0.6467
16711SOL     OW52764   5.598   3.880   1.344  0.5109  0.1541  0.3960
16711SOL    HW152765   5.597   3.855   1.436 -2.2979 -2.2630 -0.1227
16711SOL    HW252766   5.627   3.801   1.298  0.2177  0.7641 -0.9000
16712SOL     OW52767   6.069   4.228   1.605  0.3206  0.0551  0.4239
16712SOL    HW152768   6.098   4.280   1.531 -1.3242  1.2108  0.5545
16712SOL    HW252769   6.020   4.289   1.660  1.2931 -0.8170  2.3794
16713SOL     OW52770   4.311   5.337   3.943 -0.2393 -0.0612 -0.6116
16713SOL    HW152771   4.305   5.315   4.036  0.8752  0.3255 -0.4346
16713SOL    HW252772   4.273   5.425   3.937 -1.4338 -0.5673 -0.7379
16714SOL     OW52773   8.771   8.342   1.991 -0.4080 -0.3843 -0.3332
16714SOL    HW152774   8.856   8.304   2.012 -1.0617 -1.9512 -0.3977
16714SOL    HW252775   8.714   8.314   2.063 -0.9314  0.4617 -0.4068
16715SOL     OW52776   9.014   3.140   3.169  0.1243  0.1390 -0.3073
16715SOL    HW152777   9.065   3.152   3.089  0.2077 -0.9183 -0.4274
16715SOL    HW252778   9.065   3.076   3.220 -1.3652 -1.4464 -0.7181
16716SOL     OW52779   2.282   1.920   1.498  0.0058  0.0889 -0.1750
16716SOL    HW152780   2.252   1.850   1.440 -0.4439 -0.1656  0.3455
16716SOL    HW252781   2.325   1.983   1.441 -0.3185 -0.2179 -0.7632
16717SOL     OW52782   7.436   6.222   8.847  0.2490  0.0747  0.2339
16717SOL    HW152783   7.498   6.170   8.898 -0.2326  0.9817  1.7921
16717SOL    HW252784   7.361   6.163   8.834  1.0299 -0.7110 -0.8689
16718SOL     OW52785   9.479   6.176   8.325 -0.0309  0.1704 -0.6281
16718SOL    HW152786   9.429   6.252   8.353  0.1859  0.3043 -0.6040
16718SOL    HW252787   9.413   6.109   8.306 -0.2112  0.3083 -0.4838
16719SOL     OW52788   6.636   1.943  10.211 -0.1269  0.0488  0.0302
16719SOL    HW152789   6.725   1.909  10.214 -1.1018 -2.6773  1.0454
16719SOL    HW252790   6.618   1.955  10.118  0.8037 -0.9173 -0.2944
16720SOL     OW52791   2.766   6.542   0.438  0.4622 -0.5935 -0.3923
16720SOL    HW152792   2.861   6.545   0.434  0.5609  1.5742  1.4654
16720SOL    HW252793   2.746   6.462   0.488  1.3083 -0.9028 -0.5429
16721SOL     OW52794   0.070   1.379   9.136  0.3613 -0.2650  0.1568
16721SOL    HW152795   0.043   1.388   9.228 -2.9903  1.1284 -0.8563
16721SOL    HW252796   0.057   1.286   9.117 -0.2745 -0.3030  0.7245
16722SOL     OW52797   0.361  10.067   4.649  0.3648  0.1422 -0.1821
16722SOL    HW152798   0.290  10.125   4.623 -0.2165 -1.0516 -1.3942
16722SOL    HW252799   0.371  10.081   4.743 -0.1631  1.7208 -0.3317
16723SOL     OW52800  10.109   5.591   4.997 -0.3554 -0.3596 -0.0306
16723SOL    HW152801  10.137   5.538   4.923  1.6617  1.1385 -0.4341
16723SOL    HW252802  10.144   5.678   4.979 -0.7532  0.3313  2.1507
16724SOL     OW52803   1.706   8.690   0.996 -0.1585  0.2458 -0.2831
16724SOL    HW152804   1.701   8.640   1.078 -0.5763  0.4267 -0.1965
16724SOL    HW252805   1.679   8.778   1.020  0.4178  0.4787 -0.4733
16725SOL     OW52806   3.365   0.149   5.195  0.3511  0.6140  0.2321
16725SOL    HW152807   3.276   0.184   5.198 -0.3670 -1.0758 -0.2211
16725SOL    HW252808   3.387   0.146   5.101  0.2561 -0.4622  0.2372
16726SOL     OW52809   3.289   0.582   8.043  0.3660  0.2052  0.0027
16726SOL    HW152810   3.358   0.537   7.994 -1.1845 -2.2005 -0.1360
16726SOL    HW252811   3.232   0.512   8.074 -0.7041  1.9319  2.1886
16727SOL     OW52812   9.063   7.868   1.153 -0.0477  0.2631  0.1236
16727SOL    HW152813   8.976   7.853   1.189 -0.1972  2.5320  0.8699
16727SOL    HW252814   9.123   7.840   1.222 -0.2322  0.1288  0.2296
16728SOL     OW52815   1.424   4.741   5.677 -0.1203 -0.2243 -0.1784
16728SOL    HW152816   1.446   4.672   5.615  2.3566  0.0374  0.2985
16728SOL    HW252817   1.377   4.806   5.625  0.7080 -0.6332 -1.4856
16729SOL     OW52818   1.431   5.427   4.034 -0.0277  0.1942  0.0244
16729SOL    HW152819   1.493   5.412   3.962 -0.2778  1.3142 -0.4447
16729SOL    HW252820   1.378   5.347   4.037 -0.0009  0.1192 -1.0313
16730SOL     OW52821   6.600   0.054  10.009 -0.1356 -0.3154  0.0970
16730SOL    HW152822   6.605   0.141  10.048 -0.9205  0.3041 -1.1018
16730SOL    HW252823   6.692   0.029   9.995  0.1131  0.0741  0.9390
16731SOL     OW52824   3.788   1.454   3.227  0.4587  0.0043  0.2852
16731SOL    HW152825   3.804   1.475   3.319 -0.5580 -2.0380  0.9803
16731SOL    HW252826   3.699   1.419   3.226  0.6867 -0.5989 -1.3819
16732SOL     OW52827   9.819   6.069   1.936  0.5341  0.3372 -0.1364
16732SOL    HW152828   9.751   6.009   1.906 -0.9172  1.0883  1.5107
16732SOL    HW252829   9.895   6.048   1.881 -1.4903  0.6794 -3.2818
16733SOL     OW52830   3.732   3.525   6.373 -0.4175  0.4619  0.2887
16733SOL    HW152831   3.769   3.512   6.286  0.8458 -1.2763  1.0278
16733SOL    HW252832   3.803   3.564   6.424  0.0254 -1.5824  1.3524
16734SOL     OW52833   7.477  10.182   8.390 -0.0722 -0.2348 -0.4385
16734SOL    HW152834   7.519  10.103   8.356  0.8937 -0.3787  0.9733
16734SOL    HW252835   7.550  10.241   8.409 -0.7078  0.5621 -0.4119
16735SOL     OW52836   9.434   1.041   6.849  0.3407 -0.5129  0.1038
16735SOL    HW152837   9.392   1.039   6.935 -0.4506 -2.7614 -0.2489
16735SOL    HW252838   9.420   0.953   6.814  0.9392  0.2294 -2.1934
16736SOL     OW52839   7.875   0.057   3.683 -0.6514  0.3038 -0.2844
16736SOL    HW152840   7.841   0.117   3.617 -1.7713 -0.3713 -0.3527
16736SOL    HW252841   7.959   0.027   3.648  0.6350  2.8492  0.3901
16737SOL     OW52842   9.158   4.014   9.888 -0.4258  0.0386 -0.4759
16737SOL    HW152843   9.228   3.962   9.849 -0.3079  0.7045 -1.1592
16737SOL    HW252844   9.194   4.102   9.896 -0.5931  0.0232  0.7603
16738SOL     OW52845   4.645   7.531   1.283 -0.0560  0.3152  0.4413
16738SOL    HW152846   4.692   7.552   1.364  1.0638 -1.3911  0.2847
16738SOL    HW252847   4.628   7.616   1.242  0.7010  1.1151  1.7167
16739SOL     OW52848   7.976   2.398   4.779 -0.0334  0.3875  0.6541
16739SOL    HW152849   7.948   2.461   4.713  0.3260 -0.9777 -0.8442
16739SOL    HW252850   8.065   2.424   4.802 -0.4272  1.3111  1.1875
16740SOL     OW52851   9.353   5.525   2.239 -0.0080 -0.3130 -0.2417
16740SOL    HW152852   9.381   5.434   2.234  0.7597 -0.0442 -1.0398
16740SOL    HW252853   9.434   5.575   2.239 -0.4379  0.4902 -2.5150
16741SOL     OW52854   3.447   6.645   7.399  0.2310  0.1846  0.0745
16741SOL    HW152855   3.537   6.672   7.376  0.7934 -0.7924  1.0613
16741SOL    HW252856   3.458   6.563   7.446 -1.0852  0.7217  1.3854
16742SOL     OW52857   8.092   8.536   2.267 -0.2383  0.0353  0.4442
16742SOL    HW152858   8.075   8.447   2.298 -1.2874  0.0678 -0.0010
16742SOL    HW252859   8.147   8.575   2.334 -0.3504 -0.7264  0.9881
16743SOL     OW52860   6.670   3.305   7.982  0.3669  0.1450  0.0126
16743SOL    HW152861   6.628   3.342   7.904 -3.9210 -2.0926  0.9831
16743SOL    HW252862   6.670   3.377   8.046 -2.8352  0.1278  0.1712
16744SOL     OW52863   5.072   8.935   5.987 -0.2223  0.4275  0.1953
16744SOL    HW152864   5.143   8.979   6.035 -0.0468 -1.4512  1.8008
16744SOL    HW252865   5.117   8.866   5.938 -0.8116 -0.0540  0.3272
16745SOL     OW52866   3.231   4.772   8.904 -0.2935 -0.4490  0.0076
16745SOL    HW152867   3.323   4.746   8.906 -0.2938 -0.4215  1.1394
16745SOL    HW252868   3.228   4.856   8.950 -0.9070 -0.5305  0.1281
16746SOL     OW52869   3.220   1.298  10.130 -0.4916 -0.2650  0.3805
16746SOL    HW152870   3.282   1.325  10.063 -3.0697  0.6531 -1.8299
16746SOL    HW252871   3.251   1.211  10.158  1.0283 -0.3961 -1.5274
16747SOL     OW52872   0.233   1.778   4.340  0.1999 -0.2099  0.5997
16747SOL    HW152873   0.311   1.831   4.355  0.4493 -0.6712  0.9511
16747SOL    HW252874   0.246   1.741   4.252  0.9332 -1.2083  1.1078
16748SOL     OW52875  10.098   9.981   7.743 -0.2697 -0.0499 -0.9377
16748SOL    HW152876  10.063   9.912   7.800  0.7974  0.2963  0.2000
16748SOL    HW252877  10.126   9.936   7.664  0.9775 -1.0389  0.0365
16749SOL     OW52878   7.160   9.626   6.074  0.1352  0.5196  0.5495
16749SOL    HW152879   7.102   9.696   6.045  3.2224  1.7978 -3.4271
16749SOL    HW252880   7.178   9.646   6.166 -1.9212  2.7421  0.5535
16750SOL     OW52881   5.668   0.510   5.678  0.3974  0.3369  0.3884
16750SOL    HW152882   5.707   0.562   5.608 -1.8070  0.7833 -0.5852
16750SOL    HW252883   5.638   0.430   5.636 -2.1929  1.1985  0.4532
16751SOL     OW52884   5.553   9.943   5.786  0.4647 -0.4396  0.1633
16751SOL    HW152885   5.488  10.012   5.776  1.8507  0.9990  0.6289
16751SOL    HW252886   5.632   9.988   5.816  0.6947 -2.5072  3.1900
16752SOL     OW52887   0.653   4.697   5.758 -0.6368 -0.2075 -0.9478
16752SOL    HW152888   0.615   4.612   5.779 -0.4019 -1.0561 -3.6154
16752SOL    HW252889   0.706   4.719   5.834  1.3757 -3.7159 -1.1548
16753SOL     OW52890   3.616   1.960   3.468 -0.1531  0.8999 -0.1601
16753SOL    HW152891   3.583   1.928   3.384 -0.8499  2.0956 -0.3709
16753SOL    HW252892   3.539   1.959   3.526  0.4494 -0.4713  0.6491
16754SOL     OW52893   8.001   2.022   2.997 -0.6295  0.3147  0.4705
16754SOL    HW152894   8.082   2.073   2.999 -0.8343  0.6230  2.0013
16754SOL    HW252895   7.958   2.047   2.915  0.6426  0.4093 -0.1865
16755SOL     OW52896   3.175   2.479   8.775  0.2166  0.1945 -1.1525
16755SOL    HW152897   3.215   2.393   8.763  0.5741  0.5423 -2.6648
16755SOL    HW252898   3.179   2.519   8.689  0.9185  2.1183 -0.2692
16756SOL     OW52899   8.452   7.580   0.013 -0.3670  0.0615 -0.6425
16756SOL    HW152900   8.401   7.616  -0.060 -1.2452 -1.1827 -0.6794
16756SOL    HW252901   8.491   7.500  -0.022  1.3633  0.8078 -0.4988
16757SOL     OW52902   3.481   3.060   9.528  0.1730  0.6025 -0.4422
16757SOL    HW152903   3.483   2.964   9.526 -0.3063  0.5478  0.7715
16757SOL    HW252904   3.535   3.087   9.454  0.2079 -0.6060 -0.8716
16758SOL     OW52905   9.199   7.673   8.318  0.3097 -0.3926  0.4316
16758SOL    HW152906   9.198   7.758   8.362  0.8018 -0.2873  0.2440
16758SOL    HW252907   9.269   7.625   8.362  0.5225 -0.4351  0.0458
16759SOL     OW52908   5.921   5.837   6.053 -0.2742  0.0205 -0.6588
16759SOL    HW152909   5.931   5.932   6.045  2.4362 -0.0731  0.6941
16759SOL    HW252910   5.844   5.826   6.109  0.8875  1.5800  1.4076
16760SOL     OW52911   3.723   3.108   4.707  0.2514  0.2148  0.1408
16760SOL    HW152912   3.680   3.033   4.666  0.7733 -0.4446  0.7745
16760SOL    HW252913   3.709   3.096   4.801  1.9770 -0.1296  0.3808
16761SOL     OW52914   9.090   3.322   5.044 -0.3934 -0.2082 -0.0047
16761SOL    HW152915   9.040   3.385   4.992  0.9686  0.7184 -0.2220
16761SOL    HW252916   9.030   3.248   5.055 -1.7211  0.7550 -0.4754
16762SOL     OW52917   1.614   0.004   0.080  0.1843  0.2803 -0.1011
16762SOL    HW152918   1.568   0.087   0.086  0.1363  0.1531  2.2020
16762SOL    HW252919   1.607  -0.034   0.167  1.2535 -1.5898 -0.7637
16763SOL     OW52920   0.800   2.029   0.591 -0.1763 -0.3506 -0.3342
16763SOL    HW152921   0.766   2.089   0.658  1.0387 -0.1784  0.1464
16763SOL    HW252922   0.732   2.027   0.524 -1.4005 -0.4687  0.8579
16764SOL     OW52923   3.737   5.759   0.108  0.0847 -0.1088 -0.1802
16764SOL    HW152924   3.651   5.783   0.073 -0.1073 -1.6222 -0.8638
16764SOL    HW252925   3.762   5.682   0.057  1.4862 -0.1728  0.5672
16765SOL     OW52926   0.092   5.917   3.669  0.3283 -0.1659 -0.0322
16765SOL    HW152927   0.123   5.971   3.596 -0.8053  0.3203 -0.1655
16765SOL    HW252928   0.163   5.922   3.733  0.3651  1.3157 -0.1357
16766SOL     OW52929   5.157   2.933   6.841  0.0669 -0.4188 -0.5732
16766SOL    HW152930   5.088   2.980   6.794  1.9644  1.4269 -1.7465
16766SOL    HW252931   5.225   2.918   6.775  2.0827  0.6205  1.1167
16767SOL     OW52932   8.477   3.759   8.953  0.7240 -0.0375  0.1879
16767SOL    HW152933   8.432   3.751   9.037 -1.8792 -2.9285 -1.2977
16767SOL    HW252934   8.545   3.691   8.955  1.1825  0.4133  0.2172
16768SOL     OW52935   9.476  10.173   0.857 -0.2216 -0.5758 -0.0847
16768SOL    HW152936   9.424  10.227   0.917 -1.8389 -0.4746 -1.4970
16768SOL    HW252937   9.439  10.085   0.866 -0.2668 -0.6213 -0.6858
16769SOL     OW52938   3.778   1.993   1.598  0.9317  0.2834 -0.3843
16769SOL    HW152939   3.775   1.926   1.666  0.6757  0.6850  0.0016
16769SOL    HW252940   3.755   2.074   1.642 -0.7873  0.3042 -1.2346
16770SOL     OW52941   9.766   0.374   0.203 -0.3651  0.3727 -0.5643
16770SOL    HW152942   9.776   0.295   0.149 -0.9010 -0.3359  0.3400
16770SOL    HW252943   9.765   0.341   0.293  3.1602  1.7501  0.1230
16771SOL     OW52944   2.084   0.079   9.526 -0.7342 -0.5007 -0.4212
16771SOL    HW152945   2.164   0.030   9.540 -0.9958 -1.0703 -0.8920
16771SOL    HW252946   2.114   0.168   9.503 -0.2009 -1.0161 -1.8272
16772SOL     OW52947   1.379   6.394   4.168  0.5080 -0.1448  0.2844
16772SOL    HW152948   1.405   6.430   4.253  0.6987  0.8767 -0.1981
16772SOL    HW252949   1.455   6.346   4.137 -0.1836 -2.1778  1.5404
16773SOL     OW52950   1.670  10.359   9.927  0.1857 -0.4568  0.1828
16773SOL    HW152951   1.689  10.275   9.967 -0.4984 -1.0808 -0.7605
16773SOL    HW252952   1.628  10.337   9.844 -1.6493  0.8085  0.7244
16774SOL     OW52953   4.469   0.197   2.303  0.0527 -0.4324  0.0897
16774SOL    HW152954   4.413   0.167   2.374  0.9353 -1.3532  0.4273
16774SOL    HW252955   4.544   0.237   2.347 -0.9515  2.1531 -0.3439
16775SOL     OW52956   0.953   9.101   0.839 -0.1636  0.4608  0.5808
16775SOL    HW152957   0.863   9.115   0.810 -0.0743  0.4398  0.2938
16775SOL    HW252958   0.990   9.042   0.774  0.4547  1.4880 -0.0156
16776SOL     OW52959   6.950  10.061   3.791 -0.7431 -0.1792 -0.1871
16776SOL    HW152960   6.959  10.049   3.696  0.6000 -3.7626  0.2143
16776SOL    HW252961   7.026  10.112   3.816  0.3512 -1.4330 -0.8067
16777SOL     OW52962   6.203   5.698   9.159  0.0309  0.3043 -0.0349
16777SOL    HW152963   6.126   5.744   9.127  1.4906  0.3482 -3.9684
16777SOL    HW252964   6.215   5.730   9.249 -2.7831  2.4684 -0.3120
16778SOL     OW52965   0.577   9.772   4.853  0.4475  0.3308  0.3886
16778SOL    HW152966   0.615   9.756   4.939 -0.6000 -0.7363  0.6886
16778SOL    HW252967   0.486   9.797   4.872 -0.2606 -1.4474 -0.4236
16779SOL     OW52968   4.858   3.817   5.092  0.1155  0.0897  0.2358
16779SOL    HW152969   4.825   3.890   5.144  0.5521  0.2570  0.2882
16779SOL    HW252970   4.885   3.856   5.009  1.0819  0.1326  0.5516
16780SOL     OW52971   0.752   1.412   6.424  0.3986  0.2683 -0.3703
16780SOL    HW152972   0.768   1.409   6.518 -1.0504  0.1454 -0.1074
16780SOL    HW252973   0.660   1.387   6.414  1.0351 -1.6552 -1.9842
16781SOL     OW52974   8.774   1.459   6.639 -0.2921  0.3578  0.3521
16781SOL    HW152975   8.790   1.548   6.670  1.9503  0.5077 -1.0122
16781SOL    HW252976   8.723   1.470   6.559  1.6501  0.6277 -0.9168
16782SOL     OW52977   3.040   6.432   5.286 -0.3292 -0.0707  1.0712
16782SOL    HW152978   3.029   6.397   5.198  0.5240 -1.2053  1.3997
16782SOL    HW252979   3.128   6.469   5.287 -0.0795 -0.6674  1.6398
16783SOL     OW52980   2.446   1.585   3.961  0.3358 -0.3267 -0.3430
16783SOL    HW152981   2.418   1.534   3.885 -0.7704  1.5484 -1.2447
16783SOL    HW252982   2.423   1.675   3.939  0.6500  0.3501  1.9356
16784SOL     OW52983   9.269   3.686   3.109  0.0099  0.4522  0.4149
16784SOL    HW152984   9.221   3.604   3.122  0.3093 -0.1066 -1.7009
16784SOL    HW252985   9.360   3.663   3.125 -0.0662  0.8187  1.4997
16785SOL     OW52986   8.124   1.760   3.456  0.5618 -0.4849  0.3060
16785SOL    HW152987   8.035   1.736   3.482  0.4963  0.4213  0.9845
16785SOL    HW252988   8.112   1.813   3.377  0.5223 -0.5694  0.2549
16786SOL     OW52989   2.032   4.090   8.338 -0.2756 -0.6406  0.4079
16786SOL    HW152990   1.987   4.095   8.254 -0.3827 -0.6581  0.4626
16786SOL    HW252991   1.961   4.078   8.402 -0.1111 -2.3221  0.3436
16787SOL     OW52992   1.956   0.976   3.260  0.2099 -0.0938  0.1511
16787SOL    HW152993   2.019   1.043   3.232 -0.3782  0.3799 -0.0637
16787SOL    HW252994   1.937   0.998   3.351  0.6302 -0.4548  0.3263
16788SOL     OW52995  10.138   5.892   6.275 -0.4403  0.6570 -0.5868
16788SOL    HW152996  10.231   5.909   6.265 -0.1103 -1.3309 -1.5417
16788SOL    HW252997  10.123   5.812   6.224 -2.1846 -0.4749  1.5341
16789SOL     OW52998   0.208   6.491   6.493 -0.0314 -0.6330  0.2059
16789SOL    HW152999   0.156   6.532   6.563 -0.6389  0.5148 -0.8805
16789SOL    HW253000   0.152   6.495   6.416 -1.0058 -5.3771  0.3404
16790SOL     OW53001   0.287   6.996   9.032 -0.1588 -0.7925 -0.3827
16790SOL    HW153002   0.298   7.005   8.938 -1.4585  0.0267 -0.4795
16790SOL    HW253003   0.298   6.902   9.049  0.0038 -0.9587 -1.3401
16791SOL     OW53004   2.091   6.656   5.184 -0.4402 -0.3330 -0.1589
16791SOL    HW153005   2.017   6.709   5.213  0.4744  0.3638  1.0238
16791SOL    HW253006   2.135   6.630   5.266  0.9787 -0.1858 -0.8469
16792SOL     OW53007   1.361   8.483   9.329  0.3371  0.0050 -0.1969
16792SOL    HW153008   1.346   8.414   9.264  2.7678 -1.3517  0.5345
16792SOL    HW253009   1.419   8.545   9.286 -1.1117  1.1533 -0.5437
16793SOL     OW53010   0.358   4.786   0.225 -0.4035 -0.2873  0.8603
16793SOL    HW153011   0.444   4.778   0.182 -0.8479  1.8695 -0.6077
16793SOL    HW253012   0.353   4.710   0.283  1.1379 -2.2772 -1.4091
16794SOL     OW53013   2.871   3.274   9.495 -0.9326  0.4267  0.5212
16794SOL    HW153014   2.951   3.266   9.548 -1.4558 -1.8107  1.0652
16794SOL    HW253015   2.854   3.368   9.492  1.7288  0.9770  0.3642
16795SOL     OW53016   9.621   7.400   9.131  0.0185 -0.3320  0.7066
16795SOL    HW153017   9.563   7.367   9.062 -0.4553 -0.3658  1.1195
16795SOL    HW253018   9.640   7.323   9.185  1.8111 -0.7149 -0.3572
16796SOL     OW53019   3.684   5.247   4.408 -0.0535 -0.5891  0.9484
16796SOL    HW153020   3.728   5.325   4.444 -0.7297  1.3769 -2.0886
16796SOL    HW253021   3.731   5.173   4.448  2.6542  1.3650  1.7366
16797SOL     OW53022   9.875   6.025   1.405 -0.0632  0.0421  0.0062
16797SOL    HW153023   9.828   6.104   1.378 -0.6542 -0.6788 -1.1363
16797SOL    HW253024   9.809   5.971   1.450  0.5170  0.4988  1.4760
16798SOL     OW53025   0.994   9.839   1.230 -0.5784  0.2674  0.1065
16798SOL    HW153026   0.977   9.850   1.136  1.1553  0.0614 -0.2679
16798SOL    HW253027   1.082   9.876   1.242 -1.1175  1.0918  1.8276
16799SOL     OW53028   0.421   4.786   1.644 -0.0738 -0.2575  0.1286
16799SOL    HW153029   0.413   4.714   1.581 -1.7788  0.2642 -0.3128
16799SOL    HW253030   0.336   4.790   1.687 -0.6759  2.5654 -1.0815
16800SOL     OW53031  10.283   2.558   8.442 -0.0511 -0.0627  0.1147
16800SOL    HW153032  10.379   2.561   8.444 -0.0567  0.0054  0.6571
16800SOL    HW253033  10.256   2.616   8.514 -0.5459  1.6217 -1.3738
16801SOL     OW53034   7.643   2.971   6.903 -0.2084  0.4329  0.0218
16801SOL    HW153035   7.564   2.953   6.955 -1.6174  0.3871 -2.0211
16801SOL    HW253036   7.660   2.889   6.857  0.3096  0.8134 -0.4666
16802SOL     OW53037   2.477   7.435   0.287  0.3474  0.1622  0.0846
16802SOL    HW153038   2.501   7.425   0.380  0.6213 -0.8283 -0.0823
16802SOL    HW253039   2.408   7.502   0.288  0.5535  0.3829  0.9725
16803SOL     OW53040   5.602   4.091   3.792 -0.1096 -0.3338 -0.9715
16803SOL    HW153041   5.530   4.134   3.838  0.2159 -0.9527  0.1597
16803SOL    HW253042   5.653   4.163   3.754 -0.0396  0.2451  0.1820
16804SOL     OW53043   9.279   5.424   0.133 -0.1738 -0.6802  0.2059
16804SOL    HW153044   9.317   5.418   0.220 -1.2430  1.4069  0.8803
16804SOL    HW253045   9.195   5.469   0.146  0.0411  0.4955 -1.9768
16805SOL     OW53046   3.563   6.213   6.576 -0.0411  0.3384  0.1404
16805SOL    HW153047   3.569   6.293   6.524  1.6855  1.2790  1.6707
16805SOL    HW253048   3.509   6.237   6.651 -1.4887 -0.6525 -0.5460
16806SOL     OW53049   5.568   4.440   3.243  0.9833 -0.4095  0.2969
16806SOL    HW153050   5.614   4.430   3.160  3.3658  1.4352  1.2619
16806SOL    HW253051   5.503   4.508   3.226  2.8003  1.4380  0.3249
16807SOL     OW53052   7.355  10.260   7.562 -0.3608 -0.1211 -0.2585
16807SOL    HW153053   7.302  10.285   7.638  0.0541 -2.7171  1.0011
16807SOL    HW253054   7.319  10.176   7.535  2.0715 -1.2153 -0.3379
16808SOL     OW53055   5.084   4.604   7.641  0.1747 -0.2827 -0.2350
16808SOL    HW153056   5.164   4.554   7.625  2.6094  2.4909  2.2105
16808SOL    HW253057   5.021   4.538   7.672  2.1556 -2.2501 -0.1348
16809SOL     OW53058   4.221   4.541   4.772 -0.0675  0.5454  0.5743
16809SOL    HW153059   4.154   4.562   4.707  0.9331 -0.1789 -0.7136
16809SOL    HW253060   4.173   4.493   4.840 -0.9088  0.2698 -0.1892
16810SOL     OW53061   2.347   5.058   4.940  0.0536  0.4226  0.1587
16810SOL    HW153062   2.277   5.092   4.995 -0.4013 -1.0703  0.5443
16810SOL    HW253063   2.392   4.993   4.995 -0.2565 -0.9257 -1.1036
16811SOL     OW53064   2.294   1.222   1.467 -0.1096  0.0476  0.9821
16811SOL    HW153065   2.215   1.236   1.416  0.8941  3.4601  0.1778
16811SOL    HW253066   2.293   1.291   1.533  0.9407 -1.4615  2.6845
16812SOL     OW53067   9.416   3.230   4.153 -0.3281 -0.0691 -0.5605
16812SOL    HW153068   9.448   3.220   4.063 -1.1285  0.7700 -0.9629
16812SOL    HW253069   9.479   3.182   4.206  2.6381  2.8530 -1.1051
16813SOL     OW53070   1.233   2.371   3.976  0.2596  0.2610 -0.3884
16813SOL    HW153071   1.203   2.461   3.983  0.1311  0.2263 -0.4950
16813SOL    HW253072   1.153   2.318   3.972  0.3312  0.1732 -0.7143
16814SOL     OW53073   6.186   1.985   1.521 -0.5617 -0.0021 -0.0335
16814SOL    HW153074   6.106   1.964   1.474 -0.4003 -2.6419  0.6924
16814SOL    HW253075   6.256   1.965   1.459 -0.4139 -0.9203  0.4160
16815SOL     OW53076   6.861   2.204   1.272  0.1822  0.0153 -0.4747
16815SOL    HW153077   6.896   2.293   1.261 -0.9449  0.6081  0.4271
16815SOL    HW253078   6.797   2.194   1.202  0.7090 -0.3043 -0.9133
16816SOL     OW53079   6.408   6.904   0.440  0.0765  0.2875 -0.2339
16816SOL    HW153080   6.479   6.899   0.377  0.5531 -1.2460  0.3950
16816SOL    HW253081   6.444   6.867   0.520 -1.1317  0.3976  0.3813
16817SOL     OW53082   5.852   8.356   1.341  0.3664 -0.2409  0.2574
16817SOL    HW153083   5.920   8.396   1.287  0.1261 -0.4391 -0.1944
16817SOL    HW253084   5.772   8.361   1.288  0.7027 -3.1417 -0.7249
16818SOL     OW53085   3.275   7.746   8.989 -0.5625  0.3430 -0.3887
16818SOL    HW153086   3.215   7.810   8.951 -0.7701  0.4264  0.0761
16818SOL    HW253087   3.351   7.798   9.014 -0.7467  0.4131  0.0231
16819SOL     OW53088   8.196   1.939   8.106 -0.5689  0.5527  0.3489
16819SOL    HW153089   8.284   1.952   8.141 -0.6924  0.7130  0.6034
16819SOL    HW253090   8.171   1.852   8.135  0.1773 -0.2287 -1.1781
16820SOL     OW53091   6.893   8.770   3.709 -0.1253 -0.0757  0.0301
16820SOL    HW153092   6.889   8.776   3.614 -0.0889  1.4814  0.1095
16820SOL    HW253093   6.892   8.676   3.727 -1.4908 -0.3743 -1.4396
16821SOL     OW53094   8.965   9.581   7.496  0.2622  0.5509 -0.0957
16821SOL    HW153095   8.914   9.501   7.502  0.1673  0.6006 -0.2424
16821SOL    HW253096   8.901   9.650   7.481  0.4665  0.4639 -1.5059
16822SOL     OW53097   5.761   7.710  10.040 -0.0777 -0.4998 -0.3644
16822SOL    HW153098   5.668   7.702  10.018 -0.2090 -1.4264  0.4478
16822SOL    HW253099   5.788   7.621  10.064  1.0863 -0.2925 -0.8351
16823SOL     OW53100  10.354   2.866   3.592 -0.5543  0.3758  0.9160
16823SOL    HW153101  10.428   2.925   3.610 -1.2637  1.6713 -0.2130
16823SOL    HW253102  10.338   2.876   3.498  0.7633 -3.4205  0.1231
16824SOL     OW53103   0.323   1.937   0.914  0.2434  0.4668  0.4089
16824SOL    HW153104   0.403   1.989   0.916 -0.4093  1.5810 -0.7255
16824SOL    HW253105   0.350   1.849   0.938  1.3066  1.3961  2.9039
16825SOL     OW53106   0.829   3.685   7.981 -0.0775  0.3303  0.1766
16825SOL    HW153107   0.909   3.708   7.934 -0.9380  1.0014 -1.0279
16825SOL    HW253108   0.791   3.612   7.931  0.5570 -1.0915  1.6554
16826SOL     OW53109   3.209   1.985   4.185  0.4826 -0.3633 -0.4345
16826SOL    HW153110   3.174   2.034   4.111  1.7363 -0.2861 -0.9958
16826SOL    HW253111   3.140   1.990   4.251 -1.5553 -2.0939 -2.2410
16827SOL     OW53112   6.426   6.256   7.172  0.2765 -0.8733  0.2604
16827SOL    HW153113   6.488   6.213   7.112  1.1482  0.0934  0.4310
16827SOL    HW253114   6.347   6.268   7.120  1.1659  0.3675 -0.8888
16828SOL     OW53115   3.812   3.904   0.120  0.6137 -0.7401 -0.2342
16828SOL    HW153116   3.774   3.986   0.151 -1.7675 -2.1405  0.8561
16828SOL    HW253117   3.813   3.912   0.025  1.9997  1.1522 -0.1153
16829SOL     OW53118   1.454   2.080   9.193  0.6726 -0.1699 -0.1756
16829SOL    HW153119   1.479   2.109   9.105  1.0043 -1.5331 -0.5549
16829SOL    HW253120   1.368   2.039   9.181  0.6463 -0.2137  0.1565
16830SOL     OW53121   3.846   1.820   7.187  0.1570  0.5147 -0.4559
16830SOL    HW153122   3.855   1.725   7.192 -1.7273  0.1420 -2.5740
16830SOL    HW253123   3.927   1.850   7.145  0.6883 -0.1554  0.0674
16831SOL     OW53124   2.657   2.051   7.564  0.3781 -0.3158  0.0387
16831SOL    HW153125   2.677   2.134   7.608  0.3690 -1.5875  2.6695
16831SOL    HW253126   2.657   1.986   7.635 -1.0130 -2.3441 -1.6908
16832SOL     OW53127   2.379   0.835   7.230 -0.3576  0.1076  0.0164
16832SOL    HW153128   2.425   0.779   7.294  2.7798  1.3414 -0.9558
16832SOL    HW253129   2.376   0.783   7.150  1.1610  0.6857 -0.4497
16833SOL     OW53130   5.893   4.004   1.519 -0.0465  0.5517 -0.0265
16833SOL    HW153131   5.920   4.092   1.545 -1.3646  1.9767 -2.9722
16833SOL    HW253132   5.804   4.016   1.485 -0.7372 -2.1789  0.5869
16834SOL     OW53133   9.159   4.256   7.235 -0.1830 -0.2375  0.8891
16834SOL    HW153134   9.125   4.343   7.258  1.8208  0.5110  1.2318
16834SOL    HW253135   9.219   4.273   7.162 -1.7787 -1.7344 -0.8626
16835SOL     OW53136   2.500   3.292   1.778 -0.0399 -0.3708  0.4949
16835SOL    HW153137   2.495   3.203   1.742  2.6964 -1.4660  2.5048
16835SOL    HW253138   2.515   3.347   1.701 -3.0388 -1.3533 -0.9676
16836SOL     OW53139   7.066   8.407   3.239 -0.4394 -0.4743 -0.7383
16836SOL    HW153140   7.064   8.446   3.327  2.1904 -0.8899 -0.4113
16836SOL    HW253141   7.081   8.314   3.255  0.0108 -0.5588 -1.6229
16837SOL     OW53142   3.601   3.904   7.552  0.3182  0.2769 -0.2340
16837SOL    HW153143   3.528   3.893   7.492  1.2249 -0.0739 -1.3168
16837SOL    HW253144   3.609   3.820   7.596 -0.0425  0.3807  0.0373
16838SOL     OW53145   4.659   5.797   6.408  0.2593 -0.1432 -0.9841
16838SOL    HW153146   4.739   5.828   6.450 -0.9129  0.0164  1.2791
16838SOL    HW253147   4.626   5.729   6.466 -0.5065 -1.2530 -2.6410
16839SOL     OW53148   6.376   2.568   8.033  0.3426  0.5514  0.2863
16839SOL    HW153149   6.324   2.587   7.955 -0.9569  0.3830  1.0945
16839SOL    HW253150   6.452   2.519   8.000  0.2095  1.1519 -0.9484
16840SOL     OW53151   9.548   0.711  10.036  0.3588  0.0331 -0.2620
16840SOL    HW153152   9.591   0.754   9.961  0.2762  1.1222  0.2930
16840SOL    HW253153   9.601   0.735  10.111  1.3447 -2.3335 -0.1196
16841SOL     OW53154   6.426   5.725   6.589 -0.3107  0.0955 -0.3768
16841SOL    HW153155   6.384   5.663   6.529 -1.2201  1.0792 -0.7857
16841SOL    HW253156   6.435   5.805   6.539 -1.2191  0.9863  0.8071
16842SOL     OW53157   0.689   5.295   3.811 -0.6561 -0.1769  0.4308
16842SOL    HW153158   0.708   5.205   3.837  0.7669 -0.1461 -0.4039
16842SOL    HW253159   0.603   5.291   3.771 -0.8702 -1.0538  0.9594
16843SOL     OW53160   4.078   5.498   6.757  0.1015 -0.0661 -0.1683
16843SOL    HW153161   4.108   5.558   6.826 -1.0547 -2.0806  2.2285
16843SOL    HW253162   4.152   5.440   6.742  0.2693  0.2205 -0.4646
16844SOL     OW53163   6.615   7.898   4.032 -0.0955 -0.1159  0.3627
16844SOL    HW153164   6.658   7.983   4.022  0.2459 -0.5410 -2.3620
16844SOL    HW253165   6.551   7.913   4.103  1.5803  1.6794  1.6205
16845SOL     OW53166   0.211   6.804   7.018 -0.0845  0.3858 -0.3846
16845SOL    HW153167   0.279   6.871   7.018  0.4344 -0.1328 -1.2677
16845SOL    HW253168   0.257   6.722   6.999 -0.7758 -0.1686  0.2336
16846SOL     OW53169   2.464   8.120   3.044 -0.0140  0.0622  0.1967
16846SOL    HW153170   2.460   8.039   2.994  1.3533 -0.9310  1.5937
16846SOL    HW253171   2.557   8.142   3.047 -0.2327  0.9569  0.9409
16847SOL     OW53172   7.513   7.730   6.510 -0.3037  0.2050  0.2283
16847SOL    HW153173   7.524   7.825   6.505  0.3351  0.1439  0.2951
16847SOL    HW253174   7.560   7.696   6.434 -1.5607  0.0036 -0.4724
16848SOL     OW53175   2.181   9.632   1.018 -0.4999  0.1249  0.8920
16848SOL    HW153176   2.257   9.676   1.057 -1.2037  1.8515  0.4440
16848SOL    HW253177   2.146   9.697   0.958 -1.9167 -0.9211  0.5597
16849SOL     OW53178   6.944   1.079   4.247  0.3909 -0.3210 -0.2006
16849SOL    HW153179   6.969   1.145   4.183 -1.9558 -0.1600 -1.0506
16849SOL    HW253180   6.991   1.000   4.220  0.4244  0.0800 -1.3555
16850SOL     OW53181   6.482   5.729   2.371  0.7553 -0.0489 -1.0116
16850SOL    HW153182   6.391   5.752   2.388  0.1384 -0.9103 -2.8624
16850SOL    HW253183   6.488   5.725   2.276  3.1389  1.4545 -0.9871
16851SOL     OW53184   9.587   0.432   6.333  0.7386  0.2880  0.3436
16851SOL    HW153185   9.537   0.464   6.259 -0.0296  0.7561  1.0488
16851SOL    HW253186   9.584   0.336   6.326 -0.6083  0.2946  0.5906
16852SOL     OW53187   7.570   7.345   0.382 -0.0724  0.9614 -0.3079
16852SOL    HW153188   7.507   7.418   0.381 -1.7140 -0.3931 -1.0126
16852SOL    HW253189   7.557   7.303   0.467 -1.6043 -0.4942 -1.2118
16853SOL     OW53190   4.846   9.140   0.303 -0.2191 -0.3125  0.0592
16853SOL    HW153191   4.903   9.149   0.227 -0.7200 -0.1017 -0.2943
16853SOL    HW253192   4.905   9.148   0.378  0.3600 -1.0250 -0.3023
16854SOL     OW53193   2.028   6.413   1.494 -0.5305 -0.4120  0.1945
16854SOL    HW153194   1.946   6.398   1.447 -0.8946  0.2430  0.6056
16854SOL    HW253195   2.029   6.507   1.512  0.0806 -0.4928  0.6121
16855SOL     OW53196   0.228   3.259   3.472  0.2116 -0.2146 -0.2041
16855SOL    HW153197   0.202   3.195   3.406  0.3654 -0.3116 -0.1729
16855SOL    HW253198   0.285   3.209   3.532 -0.4930 -0.3147  0.3996
16856SOL     OW53199   2.523   3.278   1.330 -0.4926  0.0532 -0.4343
16856SOL    HW153200   2.501   3.326   1.250 -0.4094 -1.2842 -1.2861
16856SOL    HW253201   2.585   3.211   1.302 -1.6932 -1.4844  0.4531
16857SOL     OW53202   1.259   6.791  10.269  0.1891 -0.3882 -0.4601
16857SOL    HW153203   1.351   6.814  10.258  0.0353  0.4210 -0.1339
16857SOL    HW253204   1.232   6.837  10.349  0.0779 -2.3766  0.7119
16858SOL     OW53205   7.020   7.313   9.651  1.1536  0.3816  0.1184
16858SOL    HW153206   7.081   7.257   9.604 -1.0184  1.4864 -4.7283
16858SOL    HW253207   7.036   7.400   9.616 -0.2950  1.4982  2.0363
16859SOL     OW53208   5.420   1.236   8.362 -0.3524 -0.2458  0.0056
16859SOL    HW153209   5.511   1.241   8.393 -0.3899  0.4794  0.0136
16859SOL    HW253210   5.400   1.142   8.363  0.6714 -0.4863 -0.7951
16860SOL     OW53211   6.597   1.489   8.958 -0.1703 -0.0662  0.5527
16860SOL    HW153212   6.585   1.558   9.023  1.4867  1.1976 -0.4017
16860SOL    HW253213   6.687   1.459   8.970  0.1730  0.1874 -1.0982
16861SOL     OW53214   5.578   3.404   7.114  0.1721  0.0296  0.2633
16861SOL    HW153215   5.486   3.412   7.140  0.5848  0.1006  1.8390
16861SOL    HW253216   5.623   3.381   7.195  1.8553  2.1020 -0.0184
16862SOL     OW53217   4.988   4.457   1.961  0.1618  0.7050  0.2053
16862SOL    HW153218   4.899   4.429   1.941  0.8175 -0.6379 -0.9967
16862SOL    HW253219   4.987   4.471   2.056 -1.1946  0.1966  0.2953
16863SOL     OW53220   0.356   4.902   6.490  0.1200 -0.6092 -0.1217
16863SOL    HW153221   0.422   4.837   6.466 -0.7181 -1.8540  0.7970
16863SOL    HW253222   0.334   4.881   6.581  2.1358  2.9745  1.3703
16864SOL     OW53223   9.947   5.099   0.125  0.1438 -0.4991  0.3887
16864SOL    HW153224   9.941   5.137   0.037  2.7901 -1.0592 -0.1042
16864SOL    HW253225   9.892   5.020   0.120  0.2664 -0.5329 -0.7627
16865SOL     OW53226   3.274   1.322   3.566 -0.0037  0.4983  0.2995
16865SOL    HW153227   3.252   1.350   3.477  0.2088 -1.9790 -0.6291
16865SOL    HW253228   3.353   1.268   3.554  0.8844  1.2920  2.2284
16866SOL     OW53229   3.384   0.797   8.560  0.4654  0.7290  0.1656
16866SOL    HW153230   3.368   0.703   8.546 -0.7579  0.9858 -0.3427
16866SOL    HW253231   3.307   0.827   8.609  0.4876  1.6118 -0.3229
16867SOL     OW53232   0.147   8.475   7.313 -0.2491 -0.1462  0.4854
16867SOL    HW153233   0.053   8.474   7.298 -0.4516 -3.3208  1.1680
16867SOL    HW253234   0.186   8.479   7.226 -0.9286  2.0709  0.2298
16868SOL     OW53235   8.893   7.791   3.450 -0.2056 -0.3205  0.5530
16868SOL    HW153236   8.861   7.724   3.389 -2.4587 -0.1783  1.4892
16868SOL    HW253237   8.897   7.871   3.398  0.5047 -0.7368 -0.0520
16869SOL     OW53238   1.350   0.196   4.277  0.3901 -0.0603  0.4116
16869SOL    HW153239   1.279   0.132   4.285  0.9515 -0.7954 -0.3396
16869SOL    HW253240   1.332   0.242   4.196  1.4973 -1.2087 -0.5329
16870SOL     OW53241   1.838   6.735   9.048  0.2325 -0.7480 -0.4623
16870SOL    HW153242   1.884   6.806   9.093 -0.5832 -0.0574 -0.7030
16870SOL    HW253243   1.826   6.668   9.115  0.7562 -0.5435 -0.1578
16871SOL     OW53244   2.091   0.657   6.499 -0.1169  0.1098 -0.2731
16871SOL    HW153245   2.093   0.746   6.535 -1.6215 -0.3554  1.1034
16871SOL    HW253246   2.152   0.608   6.554 -0.2287  0.0261 -0.2236
16872SOL     OW53247   0.664   7.508  10.108  0.1720 -0.3737 -0.0831
16872SOL    HW153248   0.711   7.527  10.189 -0.7206 -0.6107  0.5097
16872SOL    HW253249   0.574   7.534  10.126  0.3637  1.7127 -1.7758
16873SOL     OW53250   0.423   3.245   0.917 -0.7044  0.3104 -0.1319
16873SOL    HW153251   0.472   3.249   0.999  0.6865  1.9111 -0.9902
16873SOL    HW253252   0.407   3.336   0.894 -0.7782 -0.0925 -1.8102
16874SOL     OW53253   6.529   8.934   6.709 -0.3407 -0.1453 -0.0999
16874SOL    HW153254   6.440   8.939   6.675 -0.6070  0.2285  0.6284
16874SOL    HW253255   6.519   8.943   6.804  0.5198  0.6076 -0.0652
16875SOL     OW53256   3.183   7.040   7.483 -0.4019  0.2100  0.0408
16875SOL    HW153257   3.217   6.990   7.556 -1.2582 -2.2392 -1.1313
16875SOL    HW253258   3.103   7.081   7.517  0.2648  0.7617  0.9886
16876SOL     OW53259  10.305   4.162   8.844  0.5985 -0.0439  0.0181
16876SOL    HW153260  10.278   4.254   8.841  0.6519 -0.0564 -1.0346
16876SOL    HW253261  10.395   4.162   8.811 -0.1605 -0.7342 -2.1827
16877SOL     OW53262   6.551   1.480   9.895  0.1070  0.0496 -0.3106
16877SOL    HW153263   6.500   1.549   9.938 -0.5856  0.0667 -1.1497
16877SOL    HW253264   6.633   1.523   9.870  0.1699  0.2549  0.2348
16878SOL     OW53265   9.716   7.890   3.461 -0.0798  0.7064  0.2330
16878SOL    HW153266   9.627   7.860   3.479 -0.2417  2.2464  2.4268
16878SOL    HW253267   9.707   7.947   3.385 -1.0781  1.2429  0.7322
16879SOL     OW53268   2.565  10.076   0.887  0.3160 -0.1438 -0.2463
16879SOL    HW153269   2.479  10.084   0.928 -1.0832 -1.9071 -2.5618
16879SOL    HW253270   2.592   9.986   0.907  1.2382  0.1227 -0.2683
16880SOL     OW53271   5.446   9.320   0.910 -0.6827  0.2266  0.3486
16880SOL    HW153272   5.498   9.242   0.889 -1.3512  0.3486 -2.0100
16880SOL    HW253273   5.464   9.336   1.003  0.1304 -2.2302  0.6996
16881SOL     OW53274   9.765   8.894   3.518 -0.1546 -0.1474 -0.6858
16881SOL    HW153275   9.680   8.850   3.521 -0.6192  0.6393 -1.7382
16881SOL    HW253276   9.803   8.867   3.435 -0.0137  0.6457 -0.8846
16882SOL     OW53277   9.063   7.954   4.207 -0.0731 -0.2303  0.3559
16882SOL    HW153278   8.996   7.891   4.232  0.4194 -1.2988 -0.9247
16882SOL    HW253279   9.024   8.005   4.137  0.7290 -1.5205 -1.1042
16883SOL     OW53280   0.577   7.729   2.265 -0.4064  0.5317 -0.1057
16883SOL    HW153281   0.596   7.726   2.359 -0.0383 -0.7856 -0.2010
16883SOL    HW253282   0.489   7.692   2.257 -0.5806  0.9731 -0.2484
16884SOL     OW53283   1.726   1.671   9.971  0.3595 -0.1866 -0.1972
16884SOL    HW153284   1.636   1.703   9.968 -0.4352 -1.9253  1.9301
16884SOL    HW253285   1.778   1.739   9.929 -2.0547  0.3801 -2.4846
16885SOL     OW53286   3.958   9.893   4.311  0.1867 -0.2368  0.2315
16885SOL    HW153287   4.015   9.968   4.328 -0.8436  0.5112  0.4791
16885SOL    HW253288   3.995   9.822   4.364  0.7237  0.3046  0.5947
16886SOL     OW53289   7.979   2.208   7.938  0.4580 -0.2002 -0.1254
16886SOL    HW153290   7.890   2.170   7.938 -1.0194  2.9729 -1.0412
16886SOL    HW253291   8.010   2.195   8.028  0.0252 -3.2331 -0.3014
16887SOL     OW53292   5.871   2.425   0.379  0.1186  0.0034  0.1896
16887SOL    HW153293   5.833   2.487   0.318  2.4219  0.7861 -0.5628
16887SOL    HW253294   5.916   2.361   0.324 -0.7959 -1.4104  1.0112
16888SOL     OW53295   7.362   2.555  10.005  0.5656  0.0896 -0.5200
16888SOL    HW153296   7.315   2.638  10.016 -0.3342 -0.3622 -0.8669
16888SOL    HW253297   7.406   2.541  10.089  0.9300  1.0287 -0.5330
16889SOL     OW53298   6.171   4.151   4.890  0.7242  0.2419  0.2350
16889SOL    HW153299   6.230   4.218   4.926  1.7680 -0.0258 -0.8854
16889SOL    HW253300   6.156   4.178   4.800 -2.1842  1.1341  0.8791
16890SOL     OW53301   1.596   8.170   2.091  0.2721  0.2791 -0.3685
16890SOL    HW153302   1.645   8.112   2.149 -0.9179 -0.8997 -0.4835
16890SOL    HW253303   1.505   8.163   2.122 -0.1311  0.8639 -1.3718
16891SOL     OW53304   5.721   4.922   6.145 -0.3857 -0.4450  0.7187
16891SOL    HW153305   5.768   4.969   6.214  1.2612 -0.6982 -0.1702
16891SOL    HW253306   5.629   4.941   6.161 -0.0490 -0.3847  2.8875
16892SOL     OW53307   5.285   6.208   7.294 -0.1529  0.7204  0.1728
16892SOL    HW153308   5.333   6.232   7.374  0.5398 -0.2211  0.0432
16892SOL    HW253309   5.304   6.116   7.281 -0.4521  0.8122 -0.9715
16893SOL     OW53310   3.167   9.381   7.228  0.3573  0.1995  0.2923
16893SOL    HW153311   3.189   9.377   7.321 -0.0557 -0.4480  0.3705
16893SOL    HW253312   3.194   9.469   7.200 -0.5790  0.8333  1.3015
16894SOL     OW53313   1.099  10.256   4.961 -0.0745  0.2318 -0.2396
16894SOL    HW153314   1.120  10.346   4.935 -0.0306  0.0656 -0.8118
16894SOL    HW253315   1.005  10.256   4.974 -0.0316  0.4371  0.0728
16895SOL     OW53316   3.772   8.113   2.887 -1.0599 -0.1496 -0.2540
16895SOL    HW153317   3.682   8.107   2.857 -0.8902  1.1847 -1.1138
16895SOL    HW253318   3.802   8.198   2.855  0.1819 -0.1256  0.8934
16896SOL     OW53319   7.459   3.821   0.248 -0.4657 -0.0738 -0.5474
16896SOL    HW153320   7.410   3.770   0.183 -1.3556  0.5239 -0.3597
16896SOL    HW253321   7.543   3.839   0.206 -0.0863 -1.7424 -0.6033
16897SOL     OW53322   4.890   7.939   9.391 -0.2928  0.0893 -0.0455
16897SOL    HW153323   4.890   7.863   9.332  0.3252 -0.6911  0.9108
16897SOL    HW253324   4.970   7.928   9.443 -0.2566  1.3468  0.1846
16898SOL     OW53325   5.375   0.962   0.139  0.0222 -0.1685 -0.3776
16898SOL    HW153326   5.317   0.890   0.114 -0.5132 -0.7738  2.2821
16898SOL    HW253327   5.440   0.921   0.196  1.7454  0.9171 -1.4917
16899SOL     OW53328   9.939   3.919   0.064 -0.3408 -0.6098  0.2240
16899SOL    HW153329   9.878   3.986   0.033 -0.9659 -1.0542  0.4985
16899SOL    HW253330  10.025   3.950   0.032 -0.4474  0.8936  1.2725
16900SOL     OW53331   2.564   9.646   0.854 -0.1123 -0.4224  0.1055
16900SOL    HW153332   2.483   9.632   0.805 -0.6768 -2.2321  1.4401
16900SOL    HW253333   2.627   9.677   0.788 -1.5260 -0.2140 -1.2022
16901SOL     OW53334   4.269  10.171   4.855  0.3524 -0.3638  0.4730
16901SOL    HW153335   4.360  10.171   4.884  0.1212  0.7678  1.2825
16901SOL    HW253336   4.263  10.098   4.793  2.1895  0.5249 -0.8471
16902SOL     OW53337   9.803   4.695   7.046 -0.1727  0.0767  0.1702
16902SOL    HW153338   9.718   4.739   7.049 -0.5512 -0.5302 -1.0466
16902SOL    HW253339   9.804   4.650   6.961  1.0437 -0.5670  0.5021
16903SOL     OW53340   8.902   5.907   4.224  0.1731 -0.6655 -0.2121
16903SOL    HW153341   8.895   5.899   4.129 -0.2301 -0.3337 -0.2153
16903SOL    HW253342   8.812   5.921   4.253  0.5400  1.9765 -0.0659
16904SOL     OW53343   2.964   6.335   1.008 -0.0538 -0.4699  0.5520
16904SOL    HW153344   2.874   6.324   1.039 -0.0693  0.3090  0.8027
16904SOL    HW253345   2.988   6.249   0.974 -1.3648 -0.3630 -0.7639
16905SOL     OW53346   5.648   1.781   6.091 -0.1052 -0.4658  0.6756
16905SOL    HW153347   5.708   1.801   6.019  0.3469 -1.6079  0.7186
16905SOL    HW253348   5.576   1.843   6.080 -0.1567 -0.7694 -0.9000
16906SOL     OW53349   3.155   9.669   9.078 -0.4016 -0.1258 -0.0642
16906SOL    HW153350   3.066   9.695   9.101 -0.6511 -0.2123 -0.8959
16906SOL    HW253351   3.196   9.647   9.162 -1.0719  0.1872  0.3537
16907SOL     OW53352   7.598   2.848   6.084 -0.6556  0.3346  0.3159
16907SOL    HW153353   7.639   2.934   6.092 -1.2805  0.6082  0.6220
16907SOL    HW253354   7.576   2.823   6.173  0.4550 -0.6146  0.3410
16908SOL     OW53355   8.016   8.593   9.286  0.1245  0.7745 -0.2364
16908SOL    HW153356   7.989   8.671   9.334  0.9908  1.1005 -0.2609
16908SOL    HW253357   7.955   8.525   9.316  0.7333  0.9251  1.4801
16909SOL     OW53358   9.371   4.907   3.495 -0.2502  0.0580 -0.5247
16909SOL    HW153359   9.365   4.875   3.584 -1.2009 -1.0864 -0.9648
16909SOL    HW253360   9.428   4.844   3.450  0.9215  1.0984 -0.5488
16910SOL     OW53361   5.120   1.809   4.383 -0.2656  0.6593  0.0699
16910SOL    HW153362   5.084   1.857   4.308 -2.1406  1.7319  1.5636
16910SOL    HW253363   5.185   1.868   4.420 -0.2427  0.6753  0.0038
16911SOL     OW53364   7.771   4.176   1.578 -0.2541 -0.4018  0.2713
16911SOL    HW153365   7.679   4.152   1.579 -0.1533 -0.9323 -1.0601
16911SOL    HW253366   7.814   4.110   1.633 -0.5942 -0.4477  0.4845
16912SOL     OW53367   8.238   7.988   3.455 -0.3432  0.2971  0.4516
16912SOL    HW153368   8.168   7.967   3.393 -0.9576 -2.0158  1.8346
16912SOL    HW253369   8.316   7.946   3.419 -0.3222  0.3685  0.4126
16913SOL     OW53370   7.526   1.408   9.186  0.2980 -0.6534  0.0857
16913SOL    HW153371   7.620   1.392   9.187  1.0035  1.1857 -4.9765
16913SOL    HW253372   7.517   1.498   9.216  0.6699  0.1272 -1.9421
16914SOL     OW53373   6.320   7.912   6.124  0.5667  0.3549  0.3733
16914SOL    HW153374   6.352   7.955   6.203  1.5045 -0.2953  0.3652
16914SOL    HW253375   6.390   7.924   6.060 -0.7934  2.1902 -0.8735
16915SOL     OW53376   3.676   2.069   0.275  0.0063 -0.4181 -0.4696
16915SOL    HW153377   3.703   1.989   0.229 -1.6635 -1.0653 -0.4036
16915SOL    HW253378   3.598   2.099   0.228  0.0837  0.6606  0.0677
16916SOL     OW53379   8.197   0.367   9.451 -0.1238  0.1338  0.4362
16916SOL    HW153380   8.246   0.285   9.447 -0.2755  0.0903 -1.6564
16916SOL    HW253381   8.109   0.341   9.478 -0.4236 -0.5603 -1.1099
16917SOL     OW53382   5.605  10.289   4.586 -0.0568 -0.9098  0.3441
16917SOL    HW153383   5.680  10.231   4.593 -0.2820 -1.2861 -0.3148
16917SOL    HW253384   5.636  10.372   4.624  0.9935 -0.7749 -0.7312
16918SOL     OW53385   4.710   2.208   0.960 -0.2636 -0.2699 -0.4158
16918SOL    HW153386   4.760   2.133   0.928 -2.3389 -0.5809 -3.3288
16918SOL    HW253387   4.743   2.282   0.909  0.2201  0.4048  0.8341
16919SOL     OW53388   8.390   2.965   1.707  0.0824 -0.0046  0.0647
16919SOL    HW153389   8.358   2.950   1.618 -0.3244 -1.3731  0.4184
16919SOL    HW253390   8.455   2.897   1.721  0.0615  0.1241  0.8582
16920SOL     OW53391   3.830   5.934   6.988  0.4225 -0.5996  0.0721
16920SOL    HW153392   3.899   6.000   6.983  0.3740 -0.4426  1.2516
16920SOL    HW253393   3.872   5.853   6.959  0.5463 -0.1192 -1.1608
16921SOL     OW53394   6.418   4.440   9.972  0.0498 -0.2992  0.2243
16921SOL    HW153395   6.469   4.519   9.990  0.7863 -0.6900 -0.0894
16921SOL    HW253396   6.448   4.413   9.885  0.0618 -1.1128  0.4754
16922SOL     OW53397  10.046   9.539   2.159 -0.3013 -0.1719 -0.1388
16922SOL    HW153398  10.124   9.580   2.195 -1.2444  1.7088 -0.1315
16922SOL    HW253399  10.077   9.494   2.080  1.2078 -1.6969  1.2367
16923SOL     OW53400   6.126   5.835   0.078 -0.4029  0.2307 -0.6746
16923SOL    HW153401   6.212   5.877   0.081 -0.6115  0.6092  1.2632
16923SOL    HW253402   6.073   5.893   0.023  0.1817  0.7847 -0.6665
16924SOL     OW53403   6.548   3.618   6.363 -0.8170  0.7000  0.1487
16924SOL    HW153404   6.525   3.559   6.434 -1.2018  1.6625  0.8431
16924SOL    HW253405   6.614   3.677   6.400  0.2997  0.1175 -0.8214
16925SOL     OW53406   9.418   2.590   1.590 -0.1281 -0.4052 -0.0178
16925SOL    HW153407   9.465   2.670   1.616  0.6228 -0.2956 -1.5837
16925SOL    HW253408   9.473   2.551   1.523 -1.5656 -1.0832 -0.8465
16926SOL     OW53409   0.526   2.437   2.295 -0.3561 -0.1374 -0.2173
16926SOL    HW153410   0.449   2.382   2.308 -0.7022  0.1639 -0.9124
16926SOL    HW253411   0.513   2.512   2.353 -0.9320  0.2437 -0.8146
16927SOL     OW53412   5.982   1.702   8.946 -0.5185  0.5805  0.2537
16927SOL    HW153413   5.946   1.629   8.998 -0.9667  1.4568  1.2144
16927SOL    HW253414   5.910   1.729   8.890 -0.6865  0.9236  0.6242
16928SOL     OW53415   5.396   0.877   8.055 -0.3391 -0.4352  0.2651
16928SOL    HW153416   5.490   0.859   8.059 -0.1809 -0.9095 -2.9601
16928SOL    HW253417   5.355   0.791   8.045 -0.7752 -0.0736 -1.5071
16929SOL     OW53418   1.216   6.817   5.025 -0.0706 -0.0449 -0.2820
16929SOL    HW153419   1.266   6.740   5.050 -0.0715  0.4519  1.3673
16929SOL    HW253420   1.126   6.785   5.016  0.1085 -0.4397 -0.7307
16930SOL     OW53421   5.895  10.127   7.672  0.3657 -0.3226  0.4708
16930SOL    HW153422   5.971  10.075   7.698  1.2050  1.5826  2.0601
16930SOL    HW253423   5.905  10.138   7.578  1.1393 -1.4652  0.3912
16931SOL     OW53424   8.302   3.328   8.097 -0.1022  0.3642  0.1220
16931SOL    HW153425   8.350   3.381   8.160  2.4278 -1.0328 -0.4906
16931SOL    HW253426   8.308   3.376   8.015  2.3517 -0.8348 -0.4768
16932SOL     OW53427   0.205   5.976   9.260  0.2488 -0.2436  0.0722
16932SOL    HW153428   0.207   5.993   9.166  2.8319 -0.6521 -0.0381
16932SOL    HW253429   0.151   5.897   9.269 -0.2956 -0.0160 -1.0147
16933SOL     OW53430   0.749   4.374   5.810 -0.0302  0.7384 -0.1119
16933SOL    HW153431   0.829   4.326   5.831  0.5032  1.5727 -0.2001
16933SOL    HW253432   0.750   4.384   5.715 -0.6400  0.0811 -0.1992
16934SOL     OW53433   5.931   2.707   5.716  0.5008 -0.0502 -0.3993
16934SOL    HW153434   5.893   2.637   5.663  0.1451 -0.9354  0.9806
16934SOL    HW253435   5.921   2.677   5.807 -1.6221  2.6656  0.4182
16935SOL     OW53436   6.741   5.191   4.143  0.1677  0.0263  0.0342
16935SOL    HW153437   6.824   5.143   4.147  0.4529  0.4075 -0.8697
16935SOL    HW253438   6.761   5.267   4.087  0.4471  2.6417  3.3494
16936SOL     OW53439   2.883   7.776   5.459  0.5028  0.2649 -0.4628
16936SOL    HW153440   2.883   7.792   5.365 -0.9525 -0.3640 -0.5930
16936SOL    HW253441   2.917   7.687   5.468 -0.1731 -0.0021 -0.4769
16937SOL     OW53442   1.186   8.321   5.316  0.2808  0.8052 -0.3270
16937SOL    HW153443   1.215   8.258   5.382 -0.0778  1.2449  0.2568
16937SOL    HW253444   1.091   8.306   5.309  0.1156  1.6164  0.1719
16938SOL     OW53445   1.933   1.125   5.970 -0.0360  0.1907  0.0252
16938SOL    HW153446   1.988   1.089   6.039 -0.1922  0.7768  0.4640
16938SOL    HW253447   1.860   1.166   6.016  1.0662  2.7284 -0.2893
16939SOL     OW53448   2.348   4.287   3.997 -0.2323  0.5716 -0.3781
16939SOL    HW153449   2.370   4.360   3.939  1.3024 -0.4285 -1.0986
16939SOL    HW253450   2.405   4.216   3.970 -2.0456 -1.1028 -0.0313
16940SOL     OW53451   3.799   8.942   1.953  0.1490  0.3239  0.1496
16940SOL    HW153452   3.721   8.956   1.900  0.7355  0.1768 -0.7785
16940SOL    HW253453   3.802   8.848   1.968 -1.6031  0.6040  2.9809
16941SOL     OW53454   2.388   6.226   7.689  0.0103 -0.0567 -0.0839
16941SOL    HW153455   2.430   6.157   7.638 -0.2647 -1.9826  2.1326
16941SOL    HW253456   2.431   6.223   7.774 -1.5941  0.9335  0.8171
16942SOL     OW53457   7.062   9.518   3.760  0.2470  0.0558  0.5209
16942SOL    HW153458   7.136   9.458   3.770  0.4074  0.3496  1.1332
16942SOL    HW253459   7.056   9.533   3.666 -0.7768 -2.1528  0.1610
16943SOL     OW53460   9.125   7.750   5.238  0.2117 -0.0383  0.2216
16943SOL    HW153461   9.169   7.692   5.176 -0.6338 -1.9156  1.2895
16943SOL    HW253462   9.196   7.804   5.275  0.9973 -0.2623 -0.9114
16944SOL     OW53463   7.469   9.679   5.355  0.1423  0.3473  0.0243
16944SOL    HW153464   7.379   9.674   5.323  0.4236  0.7241 -0.8748
16944SOL    HW253465   7.461   9.700   5.448 -0.6990 -0.1103  0.0623
16945SOL     OW53466   8.056   1.566   5.990 -0.0244  0.0339 -0.1315
16945SOL    HW153467   8.062   1.628   5.917  1.5582  1.1077  0.8479
16945SOL    HW253468   8.082   1.617   6.067  1.1115 -1.7847  0.7579
16946SOL     OW53469   4.622   9.110   2.464 -0.3526 -0.3014 -0.2534
16946SOL    HW153470   4.716   9.094   2.457 -0.2230  0.2780  0.1105
16946SOL    HW253471   4.615   9.200   2.497 -1.0150 -0.6161  0.5018
16947SOL     OW53472   9.895   4.996   4.659 -0.1665  0.0205 -0.0391
16947SOL    HW153473   9.896   4.986   4.563 -0.4433  0.9673 -0.1506
16947SOL    HW253474   9.987   4.996   4.684 -0.0929 -0.2498 -0.3026
16948SOL     OW53475   3.514   8.159   5.243 -0.2074  0.0121 -0.8802
16948SOL    HW153476   3.551   8.149   5.155  0.1774 -0.0134 -0.7176
16948SOL    HW253477   3.479   8.073   5.264  0.2314 -0.1439 -0.7732
16949SOL     OW53478   9.999   1.758   2.970 -0.2997 -0.2552  0.4485
16949SOL    HW153479  10.049   1.745   2.889 -0.7643  0.5838  0.0079
16949SOL    HW253480  10.005   1.852   2.987 -0.1577 -0.4334  1.4329
16950SOL     OW53481   9.645   3.235   2.697  0.0542  0.1878 -0.2704
16950SOL    HW153482   9.710   3.251   2.766  1.3802  0.2483 -1.4782
16950SOL    HW253483   9.561   3.239   2.741  0.8966 -0.4889  1.4777
16951SOL     OW53484   7.191   9.790   8.683  0.0504  0.5232  0.7239
16951SOL    HW153485   7.246   9.809   8.607 -0.9396 -0.6168 -0.3097
16951SOL    HW253486   7.250   9.802   8.758  0.9214  2.1467 -0.1520
16952SOL     OW53487   2.388   3.250   6.795 -0.4764 -0.2809 -0.0876
16952SOL    HW153488   2.430   3.218   6.715 -0.0293  1.7956 -0.7394
16952SOL    HW253489   2.365   3.341   6.776  1.4883  0.9728  2.7995
16953SOL     OW53490  10.240   5.068   8.773  0.4485 -0.4200 -0.7332
16953SOL    HW153491  10.308   5.005   8.799  0.7103  0.4936  0.9029
16953SOL    HW253492  10.158   5.020   8.786  0.6992 -1.0350 -1.3172
16954SOL     OW53493   4.434   8.074   8.371  0.4874  0.7034 -0.1352
16954SOL    HW153494   4.408   8.050   8.282 -1.4847  0.8083  0.3569
16954SOL    HW253495   4.353   8.103   8.412  0.7605 -1.8906  2.5496
16955SOL     OW53496   6.571   2.089   1.994  0.5414 -0.1323  0.0570
16955SOL    HW153497   6.533   2.001   2.006 -0.0950  0.2552  1.1048
16955SOL    HW253498   6.664   2.073   1.979  0.9326 -0.9291  2.7546
16956SOL     OW53499   4.132   9.522   8.730 -0.8467  0.2408 -0.4351
16956SOL    HW153500   4.184   9.482   8.800 -2.0418  1.0776  0.9794
16956SOL    HW253501   4.191   9.523   8.654  0.6217 -0.3347  0.6460
16957SOL     OW53502   3.665   3.688   0.550  0.3090  0.1264 -0.1097
16957SOL    HW153503   3.744   3.701   0.603 -0.3387 -1.6049  1.3973
16957SOL    HW253504   3.692   3.627   0.481  0.2282 -0.7924  0.6501
16958SOL     OW53505   6.496   9.949   7.440  0.7244  0.7807 -0.5874
16958SOL    HW153506   6.456  10.036   7.444  1.1508  0.9923 -0.8862
16958SOL    HW253507   6.568   9.958   7.377  1.9758  0.7023  0.7805
16959SOL     OW53508   5.375   0.337   1.604 -0.0533 -0.1923  0.2559
16959SOL    HW153509   5.465   0.306   1.615  0.9827  1.6043 -2.2254
16959SOL    HW253510   5.335   0.273   1.545 -0.0639 -0.4145  0.5022
16960SOL     OW53511   8.628   1.935   2.802 -0.2233 -0.1115  0.1899
16960SOL    HW153512   8.584   1.985   2.733  0.9345 -0.3716 -0.7685
16960SOL    HW253513   8.685   2.000   2.845  1.7524 -0.6625 -1.4585
16961SOL     OW53514   5.905   3.724   7.661 -0.4715  0.8332  0.4146
16961SOL    HW153515   5.861   3.701   7.743 -0.1605  1.0180  0.6328
16961SOL    HW253516   5.918   3.819   7.667  1.9935  0.5129  1.3715
16962SOL     OW53517   4.104   5.906   7.513  0.2725 -0.9628 -0.0554
16962SOL    HW153518   4.019   5.911   7.469  1.1697  0.7785 -1.7399
16962SOL    HW253519   4.121   5.812   7.522 -1.3577 -1.3371 -0.6037
16963SOL     OW53520   7.575   8.831   7.837  0.1587  0.0083 -0.1443
16963SOL    HW153521   7.540   8.918   7.823  2.2201  0.9468  0.2082
16963SOL    HW253522   7.510   8.772   7.797 -0.3049  1.7830 -2.1631
16964SOL     OW53523   1.249   9.926  10.132 -0.0126 -0.4173  0.0378
16964SOL    HW153524   1.300   9.932  10.213 -0.1083  0.0012  0.0671
16964SOL    HW253525   1.271  10.006  10.084  0.6037 -0.9909 -0.6779
16965SOL     OW53526   2.842   4.393   9.398  0.8929  0.0386  0.1623
16965SOL    HW153527   2.787   4.377   9.474  0.5737 -0.6743 -0.2132
16965SOL    HW253528   2.930   4.404   9.434  0.5060  1.3020  0.7787
16966SOL     OW53529   4.382   9.504   5.259  0.5343 -0.2554  0.7056
16966SOL    HW153530   4.427   9.588   5.249  1.6535 -0.8494  0.4748
16966SOL    HW253531   4.410   9.472   5.344 -2.1275  0.8426  2.1066
16967SOL     OW53532   4.675   2.049   2.116 -0.3220 -0.4040 -0.5727
16967SOL    HW153533   4.688   2.130   2.067 -2.7610  1.2470  1.2684
16967SOL    HW253534   4.733   2.058   2.192  0.1140 -0.8498 -0.8485
16968SOL     OW53535   8.471   2.005   1.441 -0.3356 -0.4592 -0.2081
16968SOL    HW153536   8.476   1.918   1.480 -0.8440 -0.2905  0.2522
16968SOL    HW253537   8.547   2.011   1.383 -0.1541 -1.1058 -0.0350
16969SOL     OW53538   7.335   1.270   3.931 -0.1129  0.0551 -0.1540
16969SOL    HW153539   7.409   1.246   3.987  1.2349 -0.2118 -1.9506
16969SOL    HW253540   7.361   1.352   3.890 -1.6890  0.9949  0.6491
16970SOL     OW53541   5.703   8.183   3.319  0.2888 -0.4518 -0.7184
16970SOL    HW153542   5.733   8.184   3.228  1.9058  1.4025 -0.2241
16970SOL    HW253543   5.728   8.096   3.352  1.8161 -0.3062 -1.4075
16971SOL     OW53544   6.013   7.615   4.236  0.1850  0.1178 -0.2187
16971SOL    HW153545   6.024   7.616   4.331  0.7360  0.7763 -0.2815
16971SOL    HW253546   6.098   7.586   4.202 -0.3484 -1.2161 -0.4819
16972SOL     OW53547   0.880   4.190   3.887  0.0939 -0.1540  0.4785
16972SOL    HW153548   0.856   4.271   3.842  1.6620 -0.5252 -1.1348
16972SOL    HW253549   0.904   4.218   3.976  0.2930  1.0941  0.0526
16973SOL     OW53550   3.858   0.032   3.886 -0.6110  0.0808 -0.1823
16973SOL    HW153551   3.847  -0.014   3.969 -1.9916 -2.0651 -1.4497
16973SOL    HW253552   3.929  -0.014   3.841  1.0231  2.0386  0.2537
16974SOL     OW53553   3.090   8.219   1.841  0.2501  0.0073 -0.3266
16974SOL    HW153554   3.128   8.151   1.897 -0.5810  0.9323  1.4484
16974SOL    HW253555   2.995   8.203   1.846  0.1309  0.4699 -1.0175
16975SOL     OW53556   1.192   1.666   9.967  0.2415  0.0426 -0.0530
16975SOL    HW153557   1.189   1.761   9.977  1.3330  0.0763  0.1525
16975SOL    HW253558   1.281   1.643   9.994 -0.4909 -1.2248  1.4633
16976SOL     OW53559   3.010   2.112   8.076 -0.0834 -0.0123  0.1625
16976SOL    HW153560   3.099   2.077   8.083 -0.2460 -0.7213 -1.0617
16976SOL    HW253561   2.957   2.036   8.051 -0.8006  0.6863 -0.4444
16977SOL     OW53562   0.526   5.376   0.650  0.5413  0.4477 -0.3974
16977SOL    HW153563   0.449   5.328   0.618 -0.2618 -0.6126  2.7397
16977SOL    HW253564   0.601   5.325   0.620 -0.2503 -1.8890  1.3265
16978SOL     OW53565  10.129   9.349   3.753 -0.1330  0.4611 -0.1950
16978SOL    HW153566  10.041   9.370   3.722 -0.3667 -0.4215 -0.1562
16978SOL    HW253567  10.116   9.283   3.820  0.5624  0.3249 -0.1872
16979SOL     OW53568   1.204   1.958   2.958  0.1373 -0.5511 -0.0464
16979SOL    HW153569   1.115   1.927   2.972  0.0170  0.0574  0.5803
16979SOL    HW253570   1.211   1.969   2.863 -1.0108  0.9813  0.0057
16980SOL     OW53571   9.771   4.611   8.357  0.3588 -0.1912 -0.4462
16980SOL    HW153572   9.716   4.541   8.392  1.2746 -0.8593 -0.3198
16980SOL    HW253573   9.756   4.685   8.416  0.1482 -0.5916  0.0103
16981SOL     OW53574   4.394   1.309   0.232  0.4599  0.1786 -0.4037
16981SOL    HW153575   4.388   1.351   0.318  0.1930 -0.7330  0.0345
16981SOL    HW253576   4.308   1.321   0.193  0.2977 -0.1924 -0.1650
16982SOL     OW53577   2.349   4.474   1.531 -0.4425  0.1203  0.1826
16982SOL    HW153578   2.399   4.550   1.502 -1.5839  1.0545  0.6037
16982SOL    HW253579   2.392   4.446   1.612  0.0662  0.2066 -0.0497
16983SOL     OW53580   9.907   1.570   6.993 -0.0115 -0.4315 -1.0221
16983SOL    HW153581   9.854   1.535   7.064  0.8204  0.4896  0.1056
16983SOL    HW253582   9.995   1.535   7.010  0.2197 -0.0987 -1.5207
16984SOL     OW53583   9.624   6.192   7.794  0.3374  0.2071 -0.5203
16984SOL    HW153584   9.551   6.219   7.850  0.9709  2.6971 -0.7469
16984SOL    HW253585   9.613   6.243   7.713  1.0769 -1.0819 -1.4672
16985SOL     OW53586   0.917   1.389   6.998  0.0724 -0.8175 -0.7325
16985SOL    HW153587   0.829   1.396   6.959 -0.8720  0.9485  1.4996
16985SOL    HW253588   0.911   1.313   7.056 -0.7727  0.5548  1.0810
16986SOL     OW53589   9.885   0.303   0.671 -0.4134 -0.0260 -0.3281
16986SOL    HW153590   9.835   0.356   0.734  0.8047  1.4400 -0.5304
16986SOL    HW253591   9.967   0.283   0.717  0.9400  1.9435 -1.7394
16987SOL     OW53592   6.468   0.625   7.243 -0.3682  0.4147 -0.6566
16987SOL    HW153593   6.524   0.654   7.315  0.4951  1.0753 -1.5590
16987SOL    HW253594   6.453   0.704   7.191 -0.0775 -0.2374 -1.7740
16988SOL     OW53595   6.445   3.281   9.751 -0.6102 -0.6813 -0.0365
16988SOL    HW153596   6.486   3.362   9.782  1.1628 -1.4667 -0.1816
16988SOL    HW253597   6.516   3.217   9.751 -2.3780 -2.8134  2.0416
16989SOL     OW53598   3.915   6.363   7.321 -0.4474  0.1676  0.1892
16989SOL    HW153599   3.972   6.416   7.377 -0.0231 -1.0348  0.9223
16989SOL    HW253600   3.896   6.285   7.373 -2.0690  0.1365 -0.3827
16990SOL     OW53601   4.133   9.590   4.801 -0.3879  0.2563  0.0331
16990SOL    HW153602   4.066   9.534   4.841 -0.6930  1.8618  1.9575
16990SOL    HW253603   4.211   9.535   4.796 -1.3261 -1.0709 -0.4668
16991SOL     OW53604   6.944   1.717   7.250 -0.7065  0.1550 -0.4656
16991SOL    HW153605   6.957   1.690   7.159 -0.3239  1.7812 -0.9229
16991SOL    HW253606   7.025   1.691   7.294  0.5133  2.1836 -1.3349
16992SOL     OW53607   5.300   5.768   6.783 -0.2856  0.1818 -0.2071
16992SOL    HW153608   5.320   5.844   6.837 -2.1837  1.1188 -0.7147
16992SOL    HW253609   5.352   5.780   6.704  1.8532 -0.7575  0.9709
16993SOL     OW53610   2.995   1.841   6.442 -0.2799 -0.5347  0.2521
16993SOL    HW153611   3.014   1.934   6.445 -0.6775 -0.4556  0.4465
16993SOL    HW253612   3.051   1.802   6.509 -0.6101 -0.3418  0.6434
16994SOL     OW53613   4.137   1.593   8.257 -0.3701 -0.5373  0.0428
16994SOL    HW153614   4.078   1.537   8.207 -1.2518  0.2370  0.1832
16994SOL    HW253615   4.093   1.678   8.260  0.9845  0.1980 -0.2596
16995SOL     OW53616  10.245   3.534   0.688  0.7681  0.8716 -0.3807
16995SOL    HW153617  10.181   3.597   0.657  2.2761  3.0549  0.6409
16995SOL    HW253618  10.195   3.474   0.744 -0.8451  0.6142 -2.0140
16996SOL     OW53619   6.248   5.120   2.231 -0.3029 -0.1321 -0.5497
16996SOL    HW153620   6.314   5.099   2.165 -0.3704  1.1872 -1.0643
16996SOL    HW253621   6.287   5.091   2.314  0.8197  0.3938 -0.8765
16997SOL     OW53622  10.139   0.002   5.408 -0.5147  0.0331  0.0828
16997SOL    HW153623  10.146   0.069   5.340  0.1437  0.6717  0.7636
16997SOL    HW253624  10.112   0.050   5.487 -3.1474 -0.9532 -0.1312
16998SOL     OW53625   1.010   8.197  10.205  0.1922 -0.3216 -0.2528
16998SOL    HW153626   0.978   8.232  10.288  1.9856 -0.5106  0.5773
16998SOL    HW253627   1.067   8.266  10.171  0.5711 -0.8072 -0.6207
16999SOL     OW53628   4.022  10.092   4.592 -0.2844 -0.8779  0.2362
16999SOL    HW153629   3.977  10.154   4.534  0.1571 -0.5562  0.2306
16999SOL    HW253630   3.956  10.026   4.612 -1.3319  0.5396  1.7188
17000SOL     OW53631   6.519   2.581   5.779  0.0950 -0.1885 -0.8372
17000SOL    HW153632   6.434   2.625   5.784  0.5144  0.5566  2.3707
17000SOL    HW253633   6.501   2.491   5.807  0.1786 -0.4433 -1.5738
17001SOL     OW53634   5.095   2.129   8.338 -0.2764 -0.0720 -0.7171
17001SOL    HW153635   5.177   2.177   8.351 -0.1724  0.0199 -1.6913
17001SOL    HW253636   5.103   2.052   8.395 -0.6020  1.2102  1.1532
17002SOL     OW53637   2.592   6.321   1.492 -0.4476 -0.5229  0.5864
17002SOL    HW153638   2.598   6.397   1.549  0.2852 -0.7254  0.7950
17002SOL    HW253639   2.682   6.307   1.461 -0.6316 -1.1095  0.2966
17003SOL     OW53640   6.319   1.695   5.882  0.1314  0.4034  0.3169
17003SOL    HW153641   6.335   1.762   5.815 -0.6181 -0.3096 -0.6087
17003SOL    HW253642   6.331   1.740   5.965  1.4440  1.2362 -0.2940
17004SOL     OW53643   9.337   5.277   4.479 -0.1419 -0.0517  0.0456
17004SOL    HW153644   9.392   5.347   4.443 -0.6698  0.3157 -0.0568
17004SOL    HW253645   9.323   5.217   4.406 -0.9609  0.5377 -0.3043
17005SOL     OW53646   3.204   8.063  10.165 -0.1123  0.7150 -0.5561
17005SOL    HW153647   3.141   8.024  10.226  1.0643  1.2142  1.0353
17005SOL    HW253648   3.240   8.139  10.212  2.6663 -0.3179 -0.8323
17006SOL     OW53649   1.612   1.638   9.050  0.1610 -0.2441  0.1433
17006SOL    HW153650   1.555   1.643   9.127 -1.6014  2.2173 -1.1805
17006SOL    HW253651   1.558   1.599   8.982  0.4565  0.8941 -0.7799
17007SOL     OW53652   6.419   8.402   7.006 -0.1601 -0.0095 -0.3698
17007SOL    HW153653   6.445   8.494   7.008 -0.6773  0.1342 -0.0608
17007SOL    HW253654   6.374   8.392   6.922  1.4321 -0.4216 -1.2181
17008SOL     OW53655   2.597   5.905   7.115 -0.4397  0.2531  0.3583
17008SOL    HW153656   2.571   5.989   7.153 -0.4978  0.2659  0.2897
17008SOL    HW253657   2.627   5.854   7.190 -1.4181 -0.0527  0.5544
17009SOL     OW53658   4.274   4.747   6.960  0.3032 -0.1230  0.0749
17009SOL    HW153659   4.201   4.699   6.921  1.3177 -1.7400  0.0897
17009SOL    HW253660   4.280   4.827   6.908 -0.4625 -0.7094 -0.9566
17010SOL     OW53661   7.977   8.815   7.970 -0.0161 -0.8280 -0.7361
17010SOL    HW153662   8.063   8.854   7.958 -0.0671 -0.5949 -0.3595
17010SOL    HW253663   7.931   8.833   7.888 -0.7172  1.6705  0.1167
17011SOL     OW53664  10.098  10.181   8.123 -0.4504  0.7242  0.2319
17011SOL    HW153665  10.158  10.243   8.165 -1.7613  0.2860  2.9225
17011SOL    HW253666  10.081  10.114   8.189  0.3980 -2.2689 -2.3287
17012SOL     OW53667   9.425   1.669   7.649 -0.2036  0.4049  0.1749
17012SOL    HW153668   9.408   1.755   7.613  0.1355  0.1422 -0.6266
17012SOL    HW253669   9.473   1.686   7.730  0.1046  0.9613 -0.1171
17013SOL     OW53670  10.096   3.647   5.585 -0.4264 -0.1042  0.6079
17013SOL    HW153671  10.054   3.702   5.519  0.3115 -0.1267  0.1061
17013SOL    HW253672  10.137   3.708   5.646  0.0939 -0.0840  0.2465
17014SOL     OW53673   1.955   4.799   2.155  0.6841 -0.2493 -0.1023
17014SOL    HW153674   1.893   4.802   2.228  1.6148  0.2590  0.6979
17014SOL    HW253675   1.960   4.890   2.124  1.9841 -0.0100  0.7046
17015SOL     OW53676   7.062   8.498   7.581 -0.0418  0.2116 -0.0678
17015SOL    HW153677   7.062   8.593   7.576  0.7516  0.3003  1.2404
17015SOL    HW253678   6.997   8.477   7.648  0.2110 -0.1345  0.0731
17016SOL     OW53679   2.690   8.653  10.108 -0.5729  0.6011  0.1572
17016SOL    HW153680   2.767   8.668  10.053 -0.7896  1.2900  0.0288
17016SOL    HW253681   2.700   8.713  10.181 -1.2644  1.1205 -0.1559
17017SOL     OW53682   4.842   1.285   4.564  0.5426  0.2407 -0.5793
17017SOL    HW153683   4.895   1.293   4.485 -0.3687 -0.4713 -1.3000
17017SOL    HW253684   4.903   1.253   4.631  1.1774  0.1365 -1.1927
17018SOL     OW53685  10.268   2.379   1.960  0.6741 -0.6908  0.3324
17018SOL    HW153686  10.239   2.463   1.925 -0.4775 -0.4876  1.6759
17018SOL    HW253687  10.350   2.361   1.915  0.6931  0.9141 -0.3346
17019SOL     OW53688   6.193  10.206   0.676  0.4255  0.4182  0.0875
17019SOL    HW153689   6.156  10.241   0.596  1.8795 -0.6121 -1.0840
17019SOL    HW253690   6.143  10.126   0.693  1.7935 -0.7996 -1.3169
17020SOL     OW53691   6.086   4.056   8.714  0.1802  0.1625 -0.5291
17020SOL    HW153692   6.113   4.099   8.632  1.5186 -0.1764 -0.2823
17020SOL    HW253693   6.078   4.128   8.777 -2.7476  0.7059 -1.3526
17021SOL     OW53694   9.696   2.037   2.572 -0.3639 -0.0645 -0.0038
17021SOL    HW153695   9.693   2.131   2.589 -1.4358 -0.1033  0.0677
17021SOL    HW253696   9.689   2.030   2.476  0.8262 -0.0412 -0.1090
17022SOL     OW53697   2.227   0.764   1.680  0.0570 -0.1178 -0.3251
17022SOL    HW153698   2.284   0.706   1.730  0.2982  0.3590 -0.0482
17022SOL    HW253699   2.286   0.830   1.642  0.0226 -1.0025 -2.0201
17023SOL     OW53700   1.578   4.746   3.864 -0.4375  0.2965 -0.1136
17023SOL    HW153701   1.629   4.675   3.824  0.5947  0.8216  0.2391
17023SOL    HW253702   1.497   4.703   3.893 -0.2560 -0.5311 -0.7951
17024SOL     OW53703   6.853   5.752   4.627  0.1257 -0.3657  0.0300
17024SOL    HW153704   6.893   5.762   4.541 -0.7524  0.2105 -0.3305
17024SOL    HW253705   6.839   5.842   4.657  0.2011 -0.5633  0.6651
17025SOL     OW53706   5.811   9.275   8.527 -0.1208  0.1171  0.1563
17025SOL    HW153707   5.829   9.221   8.604  0.7915  0.4094  0.1608
17025SOL    HW253708   5.893   9.275   8.477 -0.4514  0.5856 -0.4101
17026SOL     OW53709   3.461   0.740   4.407  0.3014  0.3617  0.6942
17026SOL    HW153710   3.516   0.662   4.417  0.4795  0.6195  1.7360
17026SOL    HW253711   3.514   0.800   4.355  0.0989 -0.2552 -0.2647
17027SOL     OW53712   1.630   6.391   4.077  0.1305  0.6926 -0.4621
17027SOL    HW153713   1.640   6.482   4.106 -0.6850  1.7059 -3.0371
17027SOL    HW253714   1.648   6.339   4.155  1.4909  3.0148  0.9119
17028SOL     OW53715   2.343   9.747   3.946  0.2917 -0.0118 -0.3475
17028SOL    HW153716   2.355   9.653   3.931  0.5896 -0.0848  0.3137
17028SOL    HW253717   2.385   9.789   3.871  0.3528 -0.4031 -0.5351
17029SOL     OW53718   5.621   0.115   0.683 -0.4032  0.4916 -0.3811
17029SOL    HW153719   5.596   0.189   0.738 -0.0690  1.5475 -1.5806
17029SOL    HW253720   5.713   0.133   0.660 -0.9921  0.9886 -2.5813
17030SOL     OW53721   6.414   0.270   1.943  0.1867  0.0578 -0.1975
17030SOL    HW153722   6.445   0.348   1.897 -0.3361 -0.1947 -1.0114
17030SOL    HW253723   6.458   0.198   1.898  0.0584 -0.1601  0.0284
17031SOL     OW53724   9.314   2.925   7.414  0.1842 -0.2807  0.2122
17031SOL    HW153725   9.244   2.869   7.448  0.2609 -0.5734 -0.1072
17031SOL    HW253726   9.292   2.937   7.321  0.4566 -0.2188  0.1547
17032SOL     OW53727   4.907   0.371   7.573 -0.0241  0.3476 -0.3387
17032SOL    HW153728   4.838   0.322   7.619 -0.4102  0.2500 -1.0144
17032SOL    HW253729   4.870   0.459   7.562  1.0607  1.1411  1.7865
17033SOL     OW53730   3.901   6.894   8.960 -0.0232 -0.1465 -0.5441
17033SOL    HW153731   3.964   6.966   8.952  0.2000 -0.1538  0.9525
17033SOL    HW253732   3.951   6.823   9.000 -1.3469  0.3969  2.2943
17034SOL     OW53733   4.691   1.455   6.537  0.0839 -0.2077  0.4205
17034SOL    HW153734   4.750   1.397   6.490 -2.6611 -1.0725 -2.2994
17034SOL    HW253735   4.665   1.405   6.614 -0.1549 -1.5330 -0.4774
17035SOL     OW53736   1.105   2.464   2.589 -0.8389  0.4783  0.0704
17035SOL    HW153737   1.200   2.479   2.588 -0.4555 -1.3963  1.8105
17035SOL    HW253738   1.067   2.551   2.578  1.0691  1.3056 -0.4388
17036SOL     OW53739   0.583   0.864   9.310 -0.4211  0.2184 -0.7167
17036SOL    HW153740   0.651   0.828   9.369 -0.0637 -0.1124 -1.3156
17036SOL    HW253741   0.632   0.918   9.248 -0.9901  2.0551  0.3682
17037SOL     OW53742   0.930   6.015  10.122  0.0410  0.1311 -0.3477
17037SOL    HW153743   0.850   5.995  10.073  0.6670  2.0873 -2.3405
17037SOL    HW253744   0.996   5.956  10.085  0.3343  1.0768 -1.3860
17038SOL     OW53745   5.324   0.214   7.232 -0.0155 -0.0724  0.2514
17038SOL    HW153746   5.238   0.204   7.273 -0.1009 -0.4130 -0.0119
17038SOL    HW253747   5.371   0.135   7.254  0.0813 -0.0760  0.0377
17039SOL     OW53748  10.201   1.944   1.896 -0.0507  0.3062 -0.2938
17039SOL    HW153749  10.163   1.858   1.876  1.6716 -0.4194 -0.6640
17039SOL    HW253750  10.171   2.000   1.825 -1.2279  0.0319 -0.0311
17040SOL     OW53751   0.774   7.439   5.076 -0.5357 -0.6173  0.0153
17040SOL    HW153752   0.855   7.453   5.028 -0.3574 -0.4753  0.3533
17040SOL    HW253753   0.717   7.511   5.051  0.1792  0.4630  1.3324
17041SOL     OW53754   2.449   9.296   2.479  0.3138 -0.6265  0.1031
17041SOL    HW153755   2.514   9.261   2.418  0.0582 -1.2244  0.1653
17041SOL    HW253756   2.499   9.355   2.536 -0.0450  3.2183 -3.1261
17042SOL     OW53757   0.937   6.220   2.063 -0.3100 -0.0314 -0.2771
17042SOL    HW153758   0.859   6.275   2.071 -1.1325 -1.1237 -0.5905
17042SOL    HW253759   0.999   6.273   2.013 -0.3246  1.3836  1.1125
17043SOL     OW53760   4.077   0.846   9.029 -0.0055 -0.3189  0.1087
17043SOL    HW153761   4.098   0.853   9.122  0.7260 -0.1648 -0.0638
17043SOL    HW253762   4.141   0.784   8.994 -0.4711 -0.6108 -0.2333
17044SOL     OW53763   1.261   1.793   8.025 -0.1441  0.5477 -0.5734
17044SOL    HW153764   1.289   1.789   8.117 -2.0632 -0.2666  0.0349
17044SOL    HW253765   1.307   1.721   7.983  0.7499  0.9197 -0.2518
17045SOL     OW53766   5.814   9.904   5.583  0.6570 -0.4325  0.8124
17045SOL    HW153767   5.797   9.964   5.655  1.3733 -0.1453  0.7545
17045SOL    HW253768   5.732   9.855   5.572  0.2735  0.0988  1.2656
17046SOL     OW53769   1.397   2.026   8.117 -0.3916 -0.5565  0.0415
17046SOL    HW153770   1.349   1.960   8.066 -1.2348  0.5558 -0.6451
17046SOL    HW253771   1.440   2.080   8.052  0.8084 -0.7811  0.6249
17047SOL     OW53772   7.895   8.435   1.974 -0.2917  0.0878  0.4836
17047SOL    HW153773   7.825   8.474   1.923  0.2812  0.3302 -0.1406
17047SOL    HW253774   7.851   8.378   2.037 -0.9945 -1.1595 -1.0612
17048SOL     OW53775   0.763   0.078   0.321 -0.8181  0.1887 -0.3595
17048SOL    HW153776   0.835   0.015   0.328 -0.7980  0.3564  1.2042
17048SOL    HW253777   0.743   0.080   0.227 -0.8665 -2.2129 -0.4785
17049SOL     OW53778   9.654   0.703   5.726  0.5568 -0.4457 -0.8576
17049SOL    HW153779   9.739   0.660   5.717  1.5025  0.6444  1.8810
17049SOL    HW253780   9.591   0.632   5.732  1.7475 -1.4406  0.6402
17050SOL     OW53781   8.579   9.753   1.153  0.2190 -0.0874  0.5821
17050SOL    HW153782   8.515   9.724   1.088 -0.2020  1.0644  0.4722
17050SOL    HW253783   8.527   9.790   1.224  0.7236 -0.2096  1.0220
17051SOL     OW53784   2.780   5.131   7.439  0.3834  0.1225 -0.8972
17051SOL    HW153785   2.772   5.124   7.534 -2.1665 -1.0942 -1.1261
17051SOL    HW253786   2.855   5.075   7.417 -0.0063 -0.9038  0.2701
17052SOL     OW53787   9.853   0.272   1.656 -0.1946 -0.1631  0.5026
17052SOL    HW153788   9.821   0.228   1.578  0.1221  0.3557  0.0667
17052SOL    HW253789   9.775   0.310   1.696 -0.2335  0.5123 -0.1781
17053SOL     OW53790   0.842   3.033   5.922  0.5462  0.8036  0.2030
17053SOL    HW153791   0.792   2.963   5.880 -1.5848  2.2042  0.2363
17053SOL    HW253792   0.930   3.025   5.886  0.0838 -1.1788 -0.6212
17054SOL     OW53793   3.586   8.860   2.190 -0.0778 -0.2013  0.4245
17054SOL    HW153794   3.602   8.954   2.182  3.0084 -0.6284  0.3910
17054SOL    HW253795   3.663   8.826   2.234  0.5380 -3.1363 -2.5015
17055SOL     OW53796   0.500   8.775   3.436  0.5374  0.9451  0.0931
17055SOL    HW153797   0.490   8.823   3.354  1.1968  2.0626  0.6523
17055SOL    HW253798   0.507   8.842   3.504 -1.2121  0.0408  1.2523
17056SOL     OW53799   9.186   2.638   4.881  0.2097 -0.2604  0.1738
17056SOL    HW153800   9.126   2.564   4.880 -0.8153  0.4920 -1.7753
17056SOL    HW253801   9.230   2.634   4.795 -1.4008  2.4743 -0.9002
17057SOL     OW53802   5.286   1.381   4.099 -0.4204  0.0472 -0.6889
17057SOL    HW153803   5.284   1.460   4.152 -2.1571 -0.1354 -0.4182
17057SOL    HW253804   5.349   1.324   4.142  2.8116  2.1244 -2.2534
17058SOL     OW53805   2.850   7.980   7.994 -0.1836 -0.5045  0.0543
17058SOL    HW153806   2.919   7.934   8.041 -0.0418 -1.2100 -0.8198
17058SOL    HW253807   2.769   7.955   8.039 -0.0096 -0.7972  0.2101
17059SOL     OW53808   8.088   5.960   6.476  0.0414 -0.0186 -0.0425
17059SOL    HW153809   8.071   5.874   6.514  0.1951 -0.2126 -0.4081
17059SOL    HW253810   8.182   5.961   6.459 -0.1961 -0.3936 -1.5138
17060SOL     OW53811   0.570   4.437   6.253 -0.0540 -0.1707 -0.0393
17060SOL    HW153812   0.645   4.450   6.311  0.0564  2.4333 -0.6325
17060SOL    HW253813   0.494   4.456   6.308 -0.1730 -0.9659  0.0795
17061SOL     OW53814   7.211   2.861   4.557 -0.6822  0.2698 -0.0208
17061SOL    HW153815   7.289   2.848   4.504 -0.0589  0.8454  0.7456
17061SOL    HW253816   7.207   2.784   4.614 -0.6567  0.2648 -0.0260
17062SOL     OW53817   9.326   7.164   7.469  0.3012  0.0057 -0.2001
17062SOL    HW153818   9.278   7.081   7.480  0.0644  0.1500 -0.1288
17062SOL    HW253819   9.418   7.140   7.475  0.2902 -0.4600 -1.4594
17063SOL     OW53820   2.786   0.635   5.987  0.8811 -0.3574 -0.0272
17063SOL    HW153821   2.814   0.544   5.983  0.7347 -0.4346  0.5140
17063SOL    HW253822   2.729   0.647   5.912  1.1988 -0.6075 -0.3089
17064SOL     OW53823   4.281   0.093   8.557  0.2447 -0.4334 -0.3886
17064SOL    HW153824   4.340   0.165   8.579  0.9472 -1.1672  0.1901
17064SOL    HW253825   4.219   0.091   8.629 -0.4462  0.2767 -0.9491
17065SOL     OW53826   0.151   2.238   6.192  0.1898  0.4588 -0.1817
17065SOL    HW153827   0.122   2.317   6.238 -0.2371 -0.2073  0.7346
17065SOL    HW253828   0.195   2.186   6.260  1.2680  0.3017 -0.9804
17066SOL     OW53829   0.363   3.317   9.029 -0.1124 -0.5915  0.3548
17066SOL    HW153830   0.392   3.244   9.084 -0.5858  0.1957  1.6978
17066SOL    HW253831   0.435   3.380   9.034 -0.9608  0.3137  1.6942
17067SOL     OW53832   8.502   2.453   6.173 -0.6251  0.2556 -0.4552
17067SOL    HW153833   8.412   2.435   6.147 -0.7935  1.1024 -0.4927
17067SOL    HW253834   8.548   2.467   6.090  0.1129 -2.4930 -0.6257
17068SOL     OW53835   9.591   5.443   2.688  0.2234 -0.2341 -0.9831
17068SOL    HW153836   9.583   5.538   2.676 -1.5033 -0.0109  1.3037
17068SOL    HW253837   9.506   5.416   2.720  1.6911 -1.9686  1.8030
17069SOL     OW53838  10.022   7.473   5.033 -0.5454  0.3103 -0.4877
17069SOL    HW153839   9.942   7.422   5.017  0.3534 -1.8307  1.3488
17069SOL    HW253840   9.991   7.563   5.043 -2.8737 -0.5593  0.9688
17070SOL     OW53841   5.449   0.654   4.733  0.1195 -0.3756  0.4091
17070SOL    HW153842   5.375   0.646   4.674  0.7395  0.7004 -0.5597
17070SOL    HW253843   5.526   0.647   4.677  0.7901 -1.8800  1.4448
17071SOL     OW53844   2.224   3.098   8.307 -0.1818  0.3837 -0.1036
17071SOL    HW153845   2.211   3.010   8.271  0.0744  0.1093  0.4705
17071SOL    HW253846   2.145   3.114   8.358 -0.2650  0.5226 -0.2750
17072SOL     OW53847   0.496   9.224   8.288 -0.4674  0.3111  0.5467
17072SOL    HW153848   0.576   9.253   8.243 -0.9448  0.4860 -0.1998
17072SOL    HW253849   0.469   9.146   8.241 -0.1806 -0.3384  1.4409
17073SOL     OW53850   2.415   3.462   0.556 -0.4584  0.0757 -0.2747
17073SOL    HW153851   2.444   3.383   0.602 -2.4403 -0.2340  0.5442
17073SOL    HW253852   2.402   3.527   0.625  0.3152  0.8674 -0.8524
17074SOL     OW53853   0.306   2.977   5.468  0.1528 -0.3804 -0.2033
17074SOL    HW153854   0.352   3.056   5.497 -2.2491  0.3322  1.9793
17074SOL    HW253855   0.371   2.907   5.476  1.6007  0.9607  0.2218
17075SOL     OW53856   7.838   2.789   4.810  0.3813 -0.7826  0.2592
17075SOL    HW153857   7.850   2.831   4.894  0.1458  0.3723 -0.2685
17075SOL    HW253858   7.918   2.738   4.797  1.3361  0.6575  0.2654
17076SOL     OW53859   4.066  10.346   1.515 -0.1010 -0.1776  0.2340
17076SOL    HW153860   4.155  10.380   1.504 -0.7957  1.0142 -3.0394
17076SOL    HW253861   4.077  10.252   1.525  1.5355 -0.0821 -0.4123
17077SOL     OW53862   3.592   6.215   3.897 -0.1218  0.1464 -0.0929
17077SOL    HW153863   3.583   6.309   3.910 -3.6356 -0.0777  0.1198
17077SOL    HW253864   3.629   6.183   3.979  0.7490  1.2695 -0.0242
17078SOL     OW53865   7.588   7.622   1.113  0.8544  0.1243  0.1860
17078SOL    HW153866   7.634   7.706   1.107 -0.6197  0.9376 -0.1640
17078SOL    HW253867   7.656   7.556   1.102  1.8414  1.2904 -0.9456
17079SOL     OW53868   2.695   2.609   3.040  0.1570  0.3451 -0.6312
17079SOL    HW153869   2.634   2.663   2.989 -0.9844 -1.3615 -1.1513
17079SOL    HW253870   2.752   2.568   2.974  0.7760  0.6041 -0.2672
17080SOL     OW53871   1.471   3.571   1.640 -0.5069  0.2178 -0.5715
17080SOL    HW153872   1.489   3.485   1.600 -2.5229 -0.4422 -0.1515
17080SOL    HW253873   1.380   3.590   1.617 -0.1662  2.1854 -0.4922
17081SOL     OW53874   1.899   8.286   9.516  0.9219 -0.6537 -0.9624
17081SOL    HW153875   1.892   8.212   9.456  1.6452 -1.1522 -0.4560
17081SOL    HW253876   1.845   8.355   9.477 -0.2729 -1.6583 -1.1104
17082SOL     OW53877   0.839   0.719   4.182 -1.2903  0.0614  0.1490
17082SOL    HW153878   0.751   0.749   4.159 -1.3892  0.1381  0.6165
17082SOL    HW253879   0.894   0.749   4.110 -2.2086 -3.2904 -2.2201
17083SOL     OW53880   1.954   3.599   9.177  0.0143 -0.8329  0.0712
17083SOL    HW153881   1.897   3.550   9.237 -2.0484  0.1872 -0.9462
17083SOL    HW253882   1.936   3.561   9.091 -0.5741  0.7371 -0.5280
17084SOL     OW53883   4.203   1.569   2.356  1.2148  0.3527 -0.2505
17084SOL    HW153884   4.219   1.476   2.337  0.9597  0.6499 -2.1765
17084SOL    HW253885   4.155   1.568   2.439  1.2365 -1.2383 -0.2127
17085SOL     OW53886   4.237   9.139   8.726  0.2010  0.4136 -0.2876
17085SOL    HW153887   4.330   9.144   8.752  0.4430 -1.0966 -0.7990
17085SOL    HW253888   4.193   9.200   8.786  1.3102  0.0215  0.9744
17086SOL     OW53889   2.676   5.111  10.172 -0.2447  0.2405 -0.2834
17086SOL    HW153890   2.662   5.173  10.244 -0.4107  0.0565 -0.1561
17086SOL    HW253891   2.606   5.130  10.110  0.1397  0.6739 -0.5895
17087SOL     OW53892   2.739   7.711   7.951  1.1663 -0.3318  0.0057
17087SOL    HW153893   2.716   7.745   8.037 -1.9051  0.7573 -1.1068
17087SOL    HW253894   2.703   7.623   7.949  1.1378 -0.3165 -0.2182
17088SOL     OW53895   8.000   6.277   6.853  0.5035 -0.2406 -0.3554
17088SOL    HW153896   7.915   6.244   6.825 -0.2596  1.6782 -0.5146
17088SOL    HW253897   8.056   6.270   6.776 -0.4260  1.2705 -1.2172
17089SOL     OW53898   4.425   3.269   7.562  0.1388  0.1455 -0.2862
17089SOL    HW153899   4.456   3.212   7.492  2.2677 -1.3542  1.7189
17089SOL    HW253900   4.336   3.240   7.580  0.5188 -1.2783 -0.5986
17090SOL     OW53901   5.256   2.788   4.136 -0.1499 -0.3533 -0.0032
17090SOL    HW153902   5.205   2.779   4.217  1.6712 -1.1223  1.1139
17090SOL    HW253903   5.298   2.873   4.145 -0.7264  0.0112 -0.6455
17091SOL     OW53904   7.206   0.083   7.203  0.2617 -0.5685  0.2164
17091SOL    HW153905   7.222   0.004   7.150  0.7014  0.2570 -0.9215
17091SOL    HW253906   7.163   0.050   7.282 -1.3943 -1.7434 -1.0992
17092SOL     OW53907   5.221   4.902   2.963 -0.0781 -0.1273 -0.3904
17092SOL    HW153908   5.153   4.961   2.930 -1.1478  0.0168  1.8657
17092SOL    HW253909   5.228   4.833   2.896 -0.9232  0.9757 -1.6583
17093SOL     OW53910   5.096   3.094   5.051 -0.2811  0.3588 -0.2996
17093SOL    HW153911   5.014   3.046   5.056 -0.6608  0.9556 -0.7687
17093SOL    HW253912   5.075   3.182   5.083 -0.0876  0.8459 -1.4842
17094SOL     OW53913   6.487   8.894   3.605 -0.4711 -0.4799 -0.8740
17094SOL    HW153914   6.417   8.933   3.657  0.4690 -0.5803  0.5109
17094SOL    HW253915   6.504   8.958   3.536  0.0531  0.9022  0.5009
17095SOL     OW53916  10.020   8.134   6.551 -0.3156 -0.8467 -0.0671
17095SOL    HW153917  10.005   8.195   6.479 -0.9396  0.4052  1.0979
17095SOL    HW253918  10.113   8.143   6.571 -0.4163 -0.2087  0.1422
17096SOL     OW53919   5.003   1.882   7.813 -0.3182 -0.0769 -0.1727
17096SOL    HW153920   5.007   1.961   7.759  0.6872  0.3316  0.4697
17096SOL    HW253921   5.083   1.885   7.866 -0.7338 -1.0430  0.5361
17097SOL     OW53922   7.211   1.714   7.890 -0.2327  0.0411 -0.0468
17097SOL    HW153923   7.159   1.684   7.965  0.4032 -0.7486  0.0920
17097SOL    HW253924   7.248   1.634   7.854 -0.4088  0.4331 -1.1229
17098SOL     OW53925   9.502   2.227   2.349  0.3606 -0.0380  0.3932
17098SOL    HW153926   9.576   2.259   2.297  1.5715 -1.8245  0.9214
17098SOL    HW253927   9.463   2.158   2.296  0.0010 -0.1171  0.7560
17099SOL     OW53928   4.907   8.875   5.730  0.3527 -0.5448  0.0557
17099SOL    HW153929   4.875   8.956   5.769 -0.4642 -0.1571 -1.3305
17099SOL    HW253930   4.976   8.903   5.670  1.5977 -1.1239  1.1776
17100SOL     OW53931   0.198   1.028   6.378 -0.1921  0.4619  0.1450
17100SOL    HW153932   0.210   0.996   6.289 -0.3893  3.5038 -1.1039
17100SOL    HW253933   0.287   1.034   6.413 -0.0354  0.2198 -0.2047
17101SOL     OW53934   9.312   1.590   9.684  0.9542  1.0548  0.4631
17101SOL    HW153935   9.401   1.578   9.716  1.4624  0.9814 -0.9074
17101SOL    HW253936   9.319   1.580   9.589 -0.0344  3.6534  0.0240
17102SOL     OW53937   4.658   1.139   1.698 -0.7886 -0.0254  0.6216
17102SOL    HW153938   4.696   1.225   1.677 -0.5415  0.1280  1.6388
17102SOL    HW253939   4.724   1.076   1.671 -1.0080  0.0927 -0.2133
17103SOL     OW53940  10.289   3.203   8.240 -0.0971  0.0430  0.3807
17103SOL    HW153941  10.216   3.156   8.200 -0.1165 -0.5925  1.1293
17103SOL    HW253942  10.365   3.182   8.185 -0.4668  0.6846 -0.3857
17104SOL     OW53943   1.542   4.764   6.415  0.3678  0.1492  0.0740
17104SOL    HW153944   1.568   4.699   6.350  0.5203  0.1338  0.1497
17104SOL    HW253945   1.617   4.824   6.421 -0.1359  0.8889 -0.6867
17105SOL     OW53946   2.176   5.808  10.290 -0.4998 -0.2890 -0.8707
17105SOL    HW153947   2.084   5.832  10.301 -0.6480 -0.9665 -0.5651
17105SOL    HW253948   2.212   5.810  10.379 -0.3621 -0.5813 -0.9197
17106SOL     OW53949   9.429   1.132   2.656 -0.3393  0.0767  0.1645
17106SOL    HW153950   9.490   1.191   2.612  0.5791  0.6225  2.0679
17106SOL    HW253951   9.432   1.051   2.605  1.2278  0.4340 -0.3572
17107SOL     OW53952   7.629   8.121   9.291  0.6351 -0.3431  0.1154
17107SOL    HW153953   7.590   8.175   9.223  0.8291  1.0153  1.0375
17107SOL    HW253954   7.713   8.164   9.310 -0.0189  0.1582  2.1602
17108SOL     OW53955   7.360   6.841  10.039  0.1731  0.1202  0.1501
17108SOL    HW153956   7.338   6.889   9.959 -0.5296  1.1377  0.9197
17108SOL    HW253957   7.310   6.759  10.032  0.1983  0.1512 -0.4935
17109SOL     OW53958   5.512   1.904   2.872 -0.0155  0.0280 -0.7143
17109SOL    HW153959   5.502   1.999   2.872  0.0334  0.0497  0.6422
17109SOL    HW253960   5.579   1.887   2.938 -2.6080 -1.1527  1.8209
17110SOL     OW53961   0.402   3.965   1.958  0.3166  0.3369 -0.5735
17110SOL    HW153962   0.472   3.971   1.893  0.7736 -0.5864 -0.1882
17110SOL    HW253963   0.366   3.877   1.945  0.1073  0.3206  0.1111
17111SOL     OW53964   4.201   7.786   6.318 -0.3040  0.3021  0.4214
17111SOL    HW153965   4.284   7.818   6.282 -0.4796 -0.2417 -0.5043
17111SOL    HW253966   4.206   7.691   6.308 -0.6646  0.1988  1.2006
17112SOL     OW53967   9.559   7.844   0.532  0.3369 -0.2636 -0.0226
17112SOL    HW153968   9.610   7.923   0.553  0.9090 -0.7593  0.4838
17112SOL    HW253969   9.625   7.778   0.511 -0.1586 -0.4096 -1.2047
17113SOL     OW53970   8.219   3.814   5.772 -0.2733  0.5832 -0.5528
17113SOL    HW153971   8.311   3.836   5.758  0.2460 -2.6309 -3.6970
17113SOL    HW253972   8.174   3.898   5.769  2.2795  2.0286 -1.8708
17114SOL     OW53973   6.871   3.026   1.522 -0.0698 -0.0455 -0.1064
17114SOL    HW153974   6.877   3.119   1.539 -0.6666 -0.2499  1.3349
17114SOL    HW253975   6.906   3.015   1.433 -1.3165  1.7288 -0.8778
17115SOL     OW53976   2.048   5.536   2.414  0.5110 -0.0274  0.2601
17115SOL    HW153977   2.056   5.532   2.509  1.2117  1.1745  0.2633
17115SOL    HW253978   1.954   5.544   2.398  0.5302  2.1647  0.9684
17116SOL     OW53979   7.541   9.696   1.592  0.5470 -0.2096  0.1284
17116SOL    HW153980   7.614   9.645   1.556  1.2630  0.0875  1.1075
17116SOL    HW253981   7.466   9.637   1.588  1.0609 -0.8661 -0.0152
17117SOL     OW53982   2.600   6.027   0.265  0.2174  0.2924 -0.0424
17117SOL    HW153983   2.616   6.010   0.358  1.2444  0.0539 -0.2568
17117SOL    HW253984   2.521   5.976   0.245  0.0929  0.2016  0.6541
17118SOL     OW53985   2.757   8.530   6.864 -0.1193 -0.5348  0.2183
17118SOL    HW153986   2.745   8.439   6.835  1.5784 -0.5455 -0.5358
17118SOL    HW253987   2.796   8.522   6.951  3.9586 -0.6817 -1.4320
17119SOL     OW53988   8.385   4.123   8.870 -0.0657 -0.0673 -0.3412
17119SOL    HW153989   8.378   4.210   8.908 -2.5173  0.0810 -0.9828
17119SOL    HW253990   8.450   4.132   8.800 -1.6265  1.7345 -1.6178
17120SOL     OW53991   5.768   3.958   2.924  0.0350  0.6096  0.4937
17120SOL    HW153992   5.708   4.018   2.967 -1.2442 -0.8832  0.8920
17120SOL    HW253993   5.849   3.964   2.976 -0.1392  1.7738  0.6622
17121SOL     OW53994   6.615   4.471   7.768 -0.9138 -0.0294  0.6209
17121SOL    HW153995   6.609   4.543   7.832  1.6565 -1.0340  2.1453
17121SOL    HW253996   6.664   4.507   7.695 -3.0028  0.8275 -0.4450
17122SOL     OW53997   3.075   0.194   4.490 -0.1056 -0.0313  0.2754
17122SOL    HW153998   3.005   0.259   4.479  0.3276  0.2530 -1.0153
17122SOL    HW253999   3.081   0.180   4.584 -0.6923  1.2830  0.5261
17123SOL     OW54000   2.746   6.320   0.608 -0.1285  0.1361  0.5392
17123SOL    HW154001   2.754   6.286   0.697  1.2753 -0.4304  0.2178
17123SOL    HW254002   2.786   6.252   0.553  0.0861  1.0114 -0.4064
17124SOL     OW54003   8.845   6.140   6.087  0.3932  0.1592  0.2108
17124SOL    HW154004   8.831   6.150   5.993  0.5453  1.9038  0.3395
17124SOL    HW254005   8.779   6.076   6.115  0.3690 -0.4136 -1.0620
17125SOL     OW54006   0.692   8.297   2.573 -0.0443  0.3645  0.1390
17125SOL    HW154007   0.700   8.244   2.494 -2.2889 -0.2800  0.2959
17125SOL    HW254008   0.770   8.353   2.572  0.7597 -0.7102 -1.6928
17126SOL     OW54009   0.537   6.375   7.115  0.1767 -0.0144  0.4376
17126SOL    HW154010   0.599   6.304   7.132  0.4032  0.1020  0.1270
17126SOL    HW254011   0.586   6.436   7.059 -0.5297 -0.3901 -0.6203
17127SOL     OW54012   1.183   3.277   3.358 -0.0880  0.4802 -0.7346
17127SOL    HW154013   1.226   3.238   3.282 -0.0819  2.5389 -1.8470
17127SOL    HW254014   1.237   3.249   3.432  2.3754  1.7521 -1.9276
17128SOL     OW54015   7.886   3.398   8.597  0.4353 -0.3612  0.3960
17128SOL    HW154016   7.957   3.419   8.658  0.6314  1.3699 -0.3697
17128SOL    HW254017   7.929   3.388   8.512 -0.2272  1.1284 -0.1578
17129SOL     OW54018   7.459   7.040   4.736  0.0583  0.0435  0.0854
17129SOL    HW154019   7.402   6.973   4.775  1.5763 -0.6835  1.1536
17129SOL    HW254020   7.519   6.991   4.680  2.6910  0.0968  2.6461
17130SOL     OW54021   1.695   8.110   4.968  0.2991  0.6404  0.2913
17130SOL    HW154022   1.627   8.050   4.999  0.9247 -0.5994 -0.6210
17130SOL    HW254023   1.713   8.081   4.879 -0.0207  2.8228 -0.5187
17131SOL     OW54024   6.985   0.489   0.512  0.0260  0.1696 -0.2798
17131SOL    HW154025   7.059   0.430   0.505  0.5148  0.7824 -0.3663
17131SOL    HW254026   6.976   0.528   0.425  0.3226  0.9434  0.0304
17132SOL     OW54027   4.552   7.877   9.155  0.1531 -0.0416  0.2757
17132SOL    HW154028   4.535   7.898   9.064 -2.5569 -0.2482  0.6650
17132SOL    HW254029   4.612   7.945   9.185 -0.2890  1.0305 -1.1999
17133SOL     OW54030   7.093   3.442   6.665 -0.0214 -0.3958 -0.3121
17133SOL    HW154031   7.071   3.433   6.572 -2.8665 -0.9210  0.3265
17133SOL    HW254032   7.122   3.355   6.692 -1.0574 -0.7432 -0.2950
17134SOL     OW54033   8.086   1.149   2.217 -0.2622 -0.0443 -0.2963
17134SOL    HW154034   8.081   1.150   2.121 -2.0691  1.2319 -0.2606
17134SOL    HW254035   8.175   1.176   2.237 -0.0215  0.2327 -1.6331
17135SOL     OW54036   3.913   5.344   8.546 -0.2560  0.2084 -0.6534
17135SOL    HW154037   3.820   5.365   8.545  0.0241  1.7487  0.8586
17135SOL    HW254038   3.938   5.352   8.638  1.2528 -0.7847 -0.9471
17136SOL     OW54039   8.195   2.408   1.767  0.3540  0.3050 -0.7192
17136SOL    HW154040   8.203   2.486   1.822 -0.1185 -1.3960  1.9635
17136SOL    HW254041   8.278   2.363   1.776 -1.1572 -2.2553  2.5344
17137SOL     OW54042   2.068   7.830   4.058 -0.8692 -0.3170 -0.4551
17137SOL    HW154043   2.125   7.761   4.092  0.2789 -0.0799 -1.7812
17137SOL    HW254044   2.114   7.862   3.980 -1.3531  1.9882  0.1407
17138SOL     OW54045   2.376   6.259   1.934 -0.4237 -0.7477  0.4874
17138SOL    HW154046   2.343   6.210   2.009  0.1075 -0.1299  1.1402
17138SOL    HW254047   2.402   6.344   1.970 -0.0360 -0.4913 -0.3691
17139SOL     OW54048   1.370   5.020   6.895  0.0252 -0.6291  0.3310
17139SOL    HW154049   1.460   4.988   6.907 -0.2052 -1.2165  0.5271
17139SOL    HW254050   1.345   5.050   6.982 -0.2361 -1.1816  0.4514
17140SOL     OW54051   2.509   4.893   6.274 -0.0239 -0.3287 -0.0424
17140SOL    HW154052   2.486   4.845   6.194 -2.0024  0.7997 -0.2219
17140SOL    HW254053   2.556   4.829   6.328 -1.1452 -1.9802 -0.9404
17141SOL     OW54054   8.314   6.726   1.640 -0.1887  0.0819 -0.0959
17141SOL    HW154055   8.233   6.760   1.680 -0.5989 -0.8580 -0.1152
17141SOL    HW254056   8.344   6.659   1.701 -0.0431 -0.3674 -0.6556
17142SOL     OW54057   7.544   1.464   5.037  0.3907 -0.1259  0.2111
17142SOL    HW154058   7.564   1.538   4.980  0.5547 -0.7507 -0.5681
17142SOL    HW254059   7.497   1.402   4.980 -1.1941  0.0662  1.2616
17143SOL     OW54060   6.523   5.664   0.309 -0.1730 -0.2509 -0.5454
17143SOL    HW154061   6.495   5.579   0.343  0.3328 -0.6851 -1.1839
17143SOL    HW254062   6.585   5.643   0.240 -1.2745  0.5828 -1.8497
17144SOL     OW54063   5.989   4.761   8.733 -0.1300  0.3058 -0.2219
17144SOL    HW154064   6.006   4.710   8.812 -0.3624  0.4983 -0.0454
17144SOL    HW254065   5.900   4.795   8.745 -0.4672 -0.3082 -0.9145
17145SOL     OW54066   7.820   3.732   2.693 -0.6246 -0.1626  0.3141
17145SOL    HW154067   7.837   3.806   2.751 -2.8026  0.5872  0.1002
17145SOL    HW254068   7.891   3.670   2.711  1.7824  2.2981 -0.1406
17146SOL     OW54069   9.336   8.006   4.959  0.3931  0.5486 -0.0214
17146SOL    HW154070   9.400   7.951   5.005 -0.8675  0.4775  1.7760
17146SOL    HW254071   9.258   7.951   4.951 -0.0234  1.2063 -0.5860
17147SOL     OW54072   0.107   1.490   3.347  0.5853 -0.6365  0.1109
17147SOL    HW154073   0.177   1.469   3.410  0.6032  1.0537  0.7011
17147SOL    HW254074   0.128   1.579   3.317 -0.2489 -0.8526 -1.1750
17148SOL     OW54075   4.550   4.269   4.779  0.2530 -0.3407 -0.1400
17148SOL    HW154076   4.574   4.340   4.839  1.2289 -0.7015 -0.0854
17148SOL    HW254077   4.523   4.314   4.699 -0.2123  0.1164  0.2612
17149SOL     OW54078   4.236   6.995   5.264  0.5773  0.6781  0.6664
17149SOL    HW154079   4.265   6.932   5.331  0.5108  0.3995  0.4337
17149SOL    HW254080   4.300   7.066   5.269  0.4749  0.7424  1.1474
17150SOL     OW54081   1.251  10.040   3.498  0.2862  0.2384 -0.2822
17150SOL    HW154082   1.239  10.109   3.432  3.3238  0.9067 -0.2994
17150SOL    HW254083   1.183   9.976   3.478 -1.8400  2.5802 -1.0873
17151SOL     OW54084   7.664   9.117  10.265 -0.1910  0.5196 -0.1444
17151SOL    HW154085   7.655   9.179  10.338 -0.1787  0.2557  0.0822
17151SOL    HW254086   7.753   9.129  10.233  0.3685 -0.5351  0.9552
17152SOL     OW54087   3.151   3.036   7.930  0.1910  0.6458  0.1032
17152SOL    HW154088   3.236   2.997   7.910 -1.1045 -1.7265 -1.2005
17152SOL    HW254089   3.117   3.066   7.846 -0.0333  2.2376  0.7092
17153SOL     OW54090   4.837   1.430   6.013  0.4185 -0.2494 -0.1615
17153SOL    HW154091   4.903   1.382   5.964  2.0802  0.5542  1.1734
17153SOL    HW254092   4.760   1.429   5.957  1.1678 -2.2493 -1.2612
17154SOL     OW54093   3.600   8.305  10.035  0.1719  0.0723  0.0943
17154SOL    HW154094   3.624   8.245   9.964  0.4952  0.9151 -0.5287
17154SOL    HW254095   3.577   8.247  10.108 -0.6545 -0.8396 -0.8404
17155SOL     OW54096   1.921   4.595   3.680  0.5652  0.5090 -0.1342
17155SOL    HW154097   1.867   4.672   3.700  0.2423 -0.0504  1.2547
17155SOL    HW254098   1.998   4.604   3.737  0.6464 -0.0634 -0.1475
17156SOL     OW54099  10.117   3.230   6.250 -0.2965  0.0733 -0.0660
17156SOL    HW154100  10.037   3.180   6.233 -1.9129  2.6214 -0.3844
17156SOL    HW254101  10.133   3.219   6.344 -1.0554 -0.3749  0.0141
17157SOL     OW54102   9.227   9.863   2.956 -0.2460 -0.5986  0.3527
17157SOL    HW154103   9.309   9.851   2.907 -0.6030  1.0053 -0.7163
17157SOL    HW254104   9.222   9.787   3.013 -0.2194 -3.1022 -2.6836
17158SOL     OW54105   9.838   9.428   3.686  0.4397  0.0386 -0.1343
17158SOL    HW154106   9.775   9.381   3.631  0.8497 -0.2722 -0.3377
17158SOL    HW254107   9.791   9.445   3.767  0.2605 -0.6483 -0.0910
17159SOL     OW54108   4.568   7.179   1.843 -0.0091  0.2137  0.2440
17159SOL    HW154109   4.636   7.165   1.909 -0.1285  2.0330  0.8180
17159SOL    HW254110   4.505   7.238   1.885  0.0171  1.6243 -1.5393
17160SOL     OW54111   4.729   0.772   6.864  0.1641 -0.6413  0.0381
17160SOL    HW154112   4.824   0.763   6.871  0.1923 -1.3137 -1.0382
17160SOL    HW254113   4.709   0.751   6.773 -1.2082 -2.1809  0.6364
17161SOL     OW54114   2.622   3.177   7.300  0.4971  0.1433  0.0660
17161SOL    HW154115   2.636   3.223   7.217 -0.6378  0.4660  0.0387
17161SOL    HW254116   2.685   3.215   7.360  0.4240  0.8546 -0.2992
17162SOL     OW54117   2.434   4.038   4.473 -0.4261  0.0381  0.0916
17162SOL    HW154118   2.475   3.961   4.433 -1.1913 -1.8046  2.6158
17162SOL    HW254119   2.505   4.080   4.522 -0.0449  0.8728 -1.1547
17163SOL     OW54120   8.317   1.487   1.990  0.1142  0.9206  0.3519
17163SOL    HW154121   8.396   1.473   1.938  0.5310  0.8622  0.9782
17163SOL    HW254122   8.245   1.474   1.929  0.5486 -0.7041  0.1471
17164SOL     OW54123   0.762   9.972   9.777 -0.6335 -0.3412  0.6032
17164SOL    HW154124   0.793   9.956   9.866 -1.3999  0.5459  1.0441
17164SOL    HW254125   0.839  10.002   9.729 -0.6731  1.4233  1.5741
17165SOL     OW54126   6.844   4.594   8.311 -0.3817  0.5770  0.0252
17165SOL    HW154127   6.896   4.567   8.387 -1.3706  2.3084  1.3723
17165SOL    HW254128   6.901   4.654   8.263  0.3943 -0.8234 -0.8948
17166SOL     OW54129   9.953   1.890   7.203  0.2422 -0.0477 -0.2921
17166SOL    HW154130   9.949   1.896   7.298  0.2614  1.7947 -0.3606
17166SOL    HW254131   9.877   1.941   7.173  0.1516 -0.7254 -1.2679
17167SOL     OW54132   7.816   7.798  10.256  0.1236  0.2424  0.0668
17167SOL    HW154133   7.842   7.829  10.343 -1.6267  1.6574  0.1329
17167SOL    HW254134   7.750   7.861  10.227 -0.4839 -1.1070 -1.6183
17168SOL     OW54135   8.436   8.620   5.146  0.0590  0.1341 -0.0451
17168SOL    HW154136   8.454   8.714   5.143 -0.7485  0.3111  0.3247
17168SOL    HW254137   8.417   8.603   5.239 -0.9941 -0.1606 -0.3112
17169SOL     OW54138   9.165   5.339   4.690 -0.6592 -0.7798 -0.1511
17169SOL    HW154139   9.207   5.418   4.723 -1.5460 -1.0252  1.6871
17169SOL    HW254140   9.231   5.298   4.634  1.1186 -0.5311  1.6433
17170SOL     OW54141   1.733   7.558   9.796  0.0280 -0.3933 -0.1586
17170SOL    HW154142   1.659   7.616   9.814  0.2347  0.1490 -0.9661
17170SOL    HW254143   1.751   7.514   9.879 -2.2195 -1.7486 -0.3209
17171SOL     OW54144   0.059   0.939   1.628  0.4435 -0.3848 -0.3781
17171SOL    HW154145   0.139   0.917   1.581 -0.7579 -1.5714 -1.9686
17171SOL    HW254146  -0.007   0.880   1.593 -1.3547  1.1208  0.2802
17172SOL     OW54147   1.998   2.390   6.962  0.1858  0.2190  0.4790
17172SOL    HW154148   2.001   2.368   6.868  0.0353  0.5229  0.4011
17172SOL    HW254149   2.050   2.470   6.969  0.6629 -0.1102  0.7456
17173SOL     OW54150   4.079   1.794   2.951 -0.6464 -0.0691  0.2181
17173SOL    HW154151   4.059   1.884   2.977 -2.3929 -0.2328 -0.4331
17173SOL    HW254152   4.020   1.740   3.004  0.2520 -0.8406  0.4659
17174SOL     OW54153   8.422   8.970   3.211  0.5385 -0.0599  0.2337
17174SOL    HW154154   8.356   8.968   3.142  0.5055 -0.7035  0.2868
17174SOL    HW254155   8.494   8.917   3.178  1.2127  0.9721  0.0017
17175SOL     OW54156   7.630   1.201   9.737 -0.1715  0.1234  0.2746
17175SOL    HW154157   7.645   1.122   9.790 -1.1389  0.6434  1.3765
17175SOL    HW254158   7.560   1.247   9.783 -0.5637  0.9540 -1.1024
17176SOL     OW54159   5.522   9.218   7.130 -0.0961  0.1650 -0.3294
17176SOL    HW154160   5.518   9.145   7.192  1.4771 -1.2251 -1.7807
17176SOL    HW254161   5.432   9.227   7.098 -0.1241 -1.9555 -0.9861
17177SOL     OW54162   1.852   6.784   0.116 -0.4225 -0.0563  0.3323
17177SOL    HW154163   1.807   6.865   0.092 -2.3330 -1.1976 -0.1185
17177SOL    HW254164   1.942   6.798   0.087 -0.6101  2.0239  0.5753
17178SOL     OW54165   2.090   1.781   1.347 -0.4590  0.0268 -0.3427
17178SOL    HW154166   2.047   1.699   1.324 -0.4038 -0.3990  0.9863
17178SOL    HW254167   2.019   1.839   1.372 -0.5555  0.6296 -1.9166
17179SOL     OW54168   8.271   1.635   5.549 -0.3024 -0.2577 -0.2840
17179SOL    HW154169   8.209   1.562   5.554 -2.4214  1.4808  0.4194
17179SOL    HW254170   8.255   1.674   5.464  0.7997 -0.5710 -0.6452
17180SOL     OW54171   0.188   5.384   5.657  0.2648 -0.0809  0.3078
17180SOL    HW154172   0.207   5.298   5.621 -0.0786 -0.2235  0.4623
17180SOL    HW254173   0.272   5.430   5.656  0.1831  0.0601 -1.0577
17181SOL     OW54174   6.443   1.476   2.984 -0.6753 -0.0213  0.6000
17181SOL    HW154175   6.461   1.541   2.916 -1.0045 -1.0392 -0.4955
17181SOL    HW254176   6.388   1.522   3.047  0.0161  1.0805  0.4366
17182SOL     OW54177   8.910   4.093   4.825 -0.3253  0.2934  0.1504
17182SOL    HW154178   8.865   4.168   4.786 -0.2584  1.1325  1.6077
17182SOL    HW254179   8.977   4.132   4.880 -0.9274 -0.7799  1.7118
17183SOL     OW54180   4.721   2.909   0.187 -0.3879  0.0760 -0.3274
17183SOL    HW154181   4.670   2.960   0.250  0.2383 -0.0424  0.2791
17183SOL    HW254182   4.668   2.912   0.106 -1.3570 -0.0566  0.2831
17184SOL     OW54183   1.348   6.951   6.952  0.2442 -0.3341  0.5512
17184SOL    HW154184   1.315   7.022   6.897  1.9175  0.4610  0.5144
17184SOL    HW254185   1.429   6.923   6.909  1.8306  0.5963  2.7596
17185SOL     OW54186   4.092   6.827   2.044  0.4183 -0.5599  0.1422
17185SOL    HW154187   4.033   6.751   2.045 -0.3283 -0.0985  3.7370
17185SOL    HW254188   4.036   6.901   2.070  2.2203  0.1523  2.2529
17186SOL     OW54189   5.270   4.645   4.226  0.2122  0.1498  0.3475
17186SOL    HW154190   5.332   4.686   4.287  1.1476  1.3433 -1.3181
17186SOL    HW254191   5.200   4.710   4.216  0.7690  0.5797 -0.8896
17187SOL     OW54192   1.565   7.138   1.721  0.1571 -0.2634  0.7772
17187SOL    HW154193   1.569   7.082   1.643  0.8482 -0.4897  0.9728
17187SOL    HW254194   1.587   7.226   1.689  1.6649 -0.5679  0.9155
17188SOL     OW54195   8.445   4.535   2.823 -0.2778  0.0395 -0.3233
17188SOL    HW154196   8.531   4.559   2.787 -0.6635  1.2204 -0.5136
17188SOL    HW254197   8.385   4.600   2.787 -1.5463 -1.6415 -1.3583
17189SOL     OW54198   6.335  10.263   2.065 -0.9484  0.1561 -0.4544
17189SOL    HW154199   6.352  10.344   2.018 -0.8098 -0.6117 -1.7767
17189SOL    HW254200   6.271  10.287   2.132 -0.2622  1.5188 -0.2664
17190SOL     OW54201   6.473   8.888   2.470  0.0748  0.1086 -0.3691
17190SOL    HW154202   6.422   8.847   2.401  0.3493 -0.9538  0.0503
17190SOL    HW254203   6.562   8.893   2.434  0.1574 -0.1786 -0.2072
17191SOL     OW54204   5.886   1.390   7.701  0.8650  0.3601 -0.0442
17191SOL    HW154205   5.893   1.379   7.796 -0.4567 -1.3086 -0.0904
17191SOL    HW254206   5.823   1.461   7.690  0.1933 -0.1586  0.3545
17192SOL     OW54207   7.193   4.479   9.839 -0.2061 -0.6324  0.6962
17192SOL    HW154208   7.115   4.506   9.791  0.2283 -1.7943 -0.7538
17192SOL    HW254209   7.247   4.434   9.773  0.5611 -2.0192  2.2017
17193SOL     OW54210   5.285   2.321   3.343 -0.0367  0.4934  0.6191
17193SOL    HW154211   5.362   2.277   3.381  0.5653  0.0345 -1.0512
17193SOL    HW254212   5.322   2.389   3.286 -0.8806  0.5790  0.1643
17194SOL     OW54213   9.707   0.445  10.112 -0.0600 -0.2202 -0.1745
17194SOL    HW154214   9.623   0.463  10.154  0.2168  1.6552 -0.3326
17194SOL    HW254215   9.767   0.429  10.185 -0.3184 -0.4746 -0.0143
17195SOL     OW54216   7.656   5.382   7.510  0.2276  0.5837 -0.1115
17195SOL    HW154217   7.674   5.304   7.458  0.5816  0.6144 -0.0325
17195SOL    HW254218   7.644   5.350   7.599 -2.0929  0.3070 -0.4589
17196SOL     OW54219   4.544   7.817   8.118 -0.3449 -0.1947 -0.2206
17196SOL    HW154220   4.460   7.861   8.126 -1.5565 -1.6951 -3.1306
17196SOL    HW254221   4.595   7.874   8.061 -0.1538 -0.2978 -0.1519
17197SOL     OW54222   5.459   8.311   3.262  0.2222 -0.2248  0.1713
17197SOL    HW154223   5.394   8.269   3.318 -1.4504  0.5064 -1.1581
17197SOL    HW254224   5.538   8.256   3.272 -0.7863 -1.5452  1.2715
17198SOL     OW54225   8.106   3.615  10.235 -0.0626  0.1224  0.2959
17198SOL    HW154226   8.031   3.562  10.206  1.6396 -2.3529  0.0520
17198SOL    HW254227   8.132   3.664  10.157 -1.6092  1.3395  0.4917
17199SOL     OW54228   4.638   0.946   1.186  0.0720 -0.0094  0.1696
17199SOL    HW154229   4.554   0.934   1.142  1.1061 -0.3408 -1.8368
17199SOL    HW254230   4.661   1.037   1.169 -0.0537  0.1853  1.0366
17200SOL     OW54231   4.421   0.728   1.076  0.3216  0.6875 -0.3096
17200SOL    HW154232   4.396   0.680   1.155 -2.6277 -0.2748 -1.7117
17200SOL    HW254233   4.512   0.702   1.061 -0.6829 -3.5085 -0.2253
17201SOL     OW54234   8.548   1.401   7.889  0.0080 -0.2656  0.3367
17201SOL    HW154235   8.458   1.413   7.860  0.4865 -0.4092 -1.3142
17201SOL    HW254236   8.555   1.307   7.907 -0.2481 -0.2001  0.8012
17202SOL     OW54237   9.570   1.204   1.613 -0.2945 -0.3577  0.1212
17202SOL    HW154238   9.485   1.231   1.650 -0.8035 -1.2549 -0.3791
17202SOL    HW254239   9.557   1.205   1.519  0.1789 -0.7553  0.0473
17203SOL     OW54240   4.308   7.952   2.399  0.1589  0.5650 -0.4243
17203SOL    HW154241   4.292   8.014   2.470  0.6702 -0.8344  0.9826
17203SOL    HW254242   4.334   7.871   2.444  1.1010 -0.1931 -2.2332
17204SOL     OW54243   1.205   3.642   2.723 -0.2345 -0.3199  0.1312
17204SOL    HW154244   1.210   3.656   2.818  1.5565  0.5476 -0.0572
17204SOL    HW254245   1.133   3.698   2.694 -1.8101 -1.7069  1.1164
17205SOL     OW54246   2.321   7.593   0.044 -0.0268 -0.1333  0.1784
17205SOL    HW154247   2.242   7.547   0.072 -2.0973  1.1697 -2.8813
17205SOL    HW254248   2.302   7.685   0.062  1.0233  0.1607 -0.1459
17206SOL     OW54249   1.467   6.817   9.877  0.4689  0.2031 -0.1556
17206SOL    HW154250   1.397   6.751   9.878  1.3333 -0.7755  1.9212
17206SOL    HW254251   1.423   6.899   9.902 -0.3024  0.0884 -1.0686
17207SOL     OW54252   7.915  10.011   2.911 -0.3957  0.0669 -0.6725
17207SOL    HW154253   7.977  10.077   2.882 -0.7830  1.2155  0.9785
17207SOL    HW254254   7.970   9.939   2.942  0.0580  0.1623 -1.2479
17208SOL     OW54255   0.481   2.567   7.804  0.2818  0.3366 -0.1060
17208SOL    HW154256   0.404   2.559   7.747  0.8959 -0.3750 -0.8563
17208SOL    HW254257   0.539   2.627   7.757  1.1686 -0.9380 -0.6869
17209SOL     OW54258   5.980   1.799   3.850 -0.0977 -0.0508  0.1050
17209SOL    HW154259   5.949   1.773   3.936 -0.2120 -0.4244 -0.0483
17209SOL    HW254260   6.046   1.867   3.867  0.6847 -0.9018  0.5399
17210SOL     OW54261   0.664   1.036   5.702  0.7567 -0.2701 -0.0050
17210SOL    HW154262   0.588   1.039   5.760  0.3424 -1.2235 -0.4740
17210SOL    HW254263   0.633   0.989   5.624  1.5484  0.2090 -0.6261
17211SOL     OW54264   5.311   8.043   3.163 -0.0898 -0.1689 -0.2980
17211SOL    HW154265   5.332   8.081   3.248 -0.4367 -1.2881  0.3203
17211SOL    HW254266   5.349   7.955   3.166 -0.3883 -0.3368 -1.1632
17212SOL     OW54267   1.769   4.010   4.738 -0.2468  0.3801  0.1309
17212SOL    HW154268   1.690   3.986   4.785  0.7600  1.5679  2.6414
17212SOL    HW254269   1.750   4.096   4.700  0.7493  2.2508  3.5154
17213SOL     OW54270   7.189   6.728   5.526 -0.0316  0.4157 -0.2333
17213SOL    HW154271   7.155   6.800   5.580  1.7888 -1.4681  3.7789
17213SOL    HW254272   7.275   6.758   5.497 -0.0171  0.5213 -0.0824
17214SOL     OW54273   1.065   3.474   9.689  0.3604  0.0513  0.4981
17214SOL    HW154274   1.088   3.430   9.771 -0.6344  0.7404  1.1548
17214SOL    HW254275   0.976   3.446   9.671  1.7097 -3.1005 -2.3680
17215SOL     OW54276   9.288   2.196   8.123 -0.3381  0.0328  0.0533
17215SOL    HW154277   9.198   2.225   8.138 -0.3233 -0.4005  1.0461
17215SOL    HW254278   9.304   2.131   8.191  0.6153 -0.1450 -0.3293
17216SOL     OW54279   2.457   0.837   5.432 -0.3321  0.0997  0.3973
17216SOL    HW154280   2.496   0.751   5.445 -0.8911 -0.2954 -0.4918
17216SOL    HW254281   2.423   0.836   5.343 -1.9679  0.5914  0.9790
17217SOL     OW54282   9.342   5.990   0.473  0.4021  0.5576  0.2076
17217SOL    HW154283   9.380   6.037   0.547  0.2870  0.5491  0.2718
17217SOL    HW254284   9.394   6.018   0.397  0.6031  0.4664  0.3113
17218SOL     OW54285   5.911   0.276   8.113 -0.1091  0.1504  0.2139
17218SOL    HW154286   5.930   0.328   8.191  0.9388 -0.6736  0.5428
17218SOL    HW254287   5.827   0.309   8.081 -1.9813 -1.2063  3.2205
17219SOL     OW54288   7.232   7.371   4.702  0.4607 -1.0349  0.0625
17219SOL    HW154289   7.170   7.299   4.714 -0.8445 -0.1973 -1.2738
17219SOL    HW254290   7.291   7.341   4.633  0.6589 -1.2917  0.3448
17220SOL     OW54291   9.798   9.310   7.444  0.6684 -0.5525 -0.1183
17220SOL    HW154292   9.881   9.318   7.397  0.4936 -0.8031 -0.4758
17220SOL    HW254293   9.818   9.255   7.519  1.2988  1.0826  0.9590
17221SOL     OW54294   4.508   9.012   7.709  0.2469 -0.1114  0.2620
17221SOL    HW154295   4.460   9.015   7.792  0.0790  2.8184  0.1449
17221SOL    HW254296   4.599   8.998   7.735  0.2659  1.2687  1.0124
17222SOL     OW54297   5.657   5.205   7.325  0.2639 -0.1347  0.0028
17222SOL    HW154298   5.623   5.288   7.292 -1.0368  0.0508  1.6884
17222SOL    HW254299   5.732   5.186   7.269 -1.5442  0.3319 -2.7903
17223SOL     OW54300   9.245   9.525   2.809 -0.0303 -0.2243  0.0448
17223SOL    HW154301   9.321   9.551   2.757 -0.7120 -1.1605 -1.4957
17223SOL    HW254302   9.182   9.493   2.745 -1.1947 -0.7803  1.4106
17224SOL     OW54303   9.103   6.328   1.847 -0.0849 -0.4741  0.2420
17224SOL    HW154304   9.131   6.413   1.812 -1.3754  0.5320  1.4856
17224SOL    HW254305   9.183   6.276   1.853  0.6508  0.4439 -1.0771
17225SOL     OW54306   9.663   8.652   7.016 -0.2429  0.3692 -0.2426
17225SOL    HW154307   9.700   8.694   7.094  1.1342  1.0381 -1.2098
17225SOL    HW254308   9.593   8.711   6.989 -0.3390  0.4388  0.1550
17226SOL     OW54309   0.742   8.020   1.584 -0.5811  0.3743 -0.8568
17226SOL    HW154310   0.721   8.114   1.591 -1.0915  0.1330  1.6199
17226SOL    HW254311   0.689   7.990   1.510 -2.0342  1.6348 -0.3965
17227SOL     OW54312   6.830   2.555   4.789  0.6793  0.4440 -0.2300
17227SOL    HW154313   6.925   2.561   4.791  0.6019  2.0880  0.6745
17227SOL    HW254314   6.803   2.548   4.880 -0.0729  0.5244 -0.4331
17228SOL     OW54315   4.230   0.179   9.334  0.1244  0.0165  0.0577
17228SOL    HW154316   4.229   0.269   9.366 -0.5232  0.0385 -0.0167
17228SOL    HW254317   4.147   0.142   9.365  0.4576 -0.6015  0.2250
17229SOL     OW54318   2.327  10.120   7.645 -0.1930  0.0185 -0.0675
17229SOL    HW154319   2.372  10.201   7.670  1.0206 -0.5151 -0.4245
17229SOL    HW254320   2.302  10.134   7.554 -1.0541  0.4285  0.2164
17230SOL     OW54321   7.878   3.951   2.846 -0.4341 -0.4050 -0.2216
17230SOL    HW154322   7.925   4.029   2.818 -0.3137  0.5670  2.4255
17230SOL    HW254323   7.936   3.909   2.910 -1.5384 -1.2808  0.2548
17231SOL     OW54324   4.930   9.672   7.204  0.4340 -0.3660  0.7684
17231SOL    HW154325   4.991   9.698   7.273  2.2574 -2.1439 -0.0588
17231SOL    HW254326   4.863   9.621   7.248  0.8541 -0.3714  1.4088
17232SOL     OW54327   9.241   5.907   4.947 -0.4988  0.1294 -0.8095
17232SOL    HW154328   9.201   5.974   5.002  0.7371  1.2073 -1.1784
17232SOL    HW254329   9.168   5.875   4.893 -1.0533  1.4581 -0.8957
17233SOL     OW54330   1.370   1.564   4.560 -0.4267  1.0385 -0.2848
17233SOL    HW154331   1.398   1.581   4.470 -0.1702 -3.2154 -1.2173
17233SOL    HW254332   1.277   1.589   4.562 -1.2499 -1.4279 -2.7159
17234SOL     OW54333   7.918   8.449   2.837 -0.2106  0.6418  0.1658
17234SOL    HW154334   7.987   8.485   2.780 -1.0815  0.2698 -1.1869
17234SOL    HW254335   7.926   8.499   2.918  0.4245  1.9470 -0.6502
17235SOL     OW54336   6.070   6.284   9.564 -0.5878 -0.3331  0.6096
17235SOL    HW154337   5.984   6.253   9.538 -0.2368 -0.8550  0.0486
17235SOL    HW254338   6.086   6.241   9.649 -0.4330 -1.0928  0.2037
17236SOL     OW54339   9.615   9.997   1.815  0.4034  0.2611 -0.0178
17236SOL    HW154340   9.646   9.934   1.751  0.2636 -0.1430  0.3116
17236SOL    HW254341   9.529  10.025   1.782  0.5449  0.4138 -0.2555
17237SOL     OW54342   6.318   6.963   6.573 -0.2341 -0.0156  0.0548
17237SOL    HW154343   6.299   6.899   6.505 -0.7879 -0.0403  0.2278
17237SOL    HW254344   6.283   6.924   6.653 -0.4211  0.4225  0.1927
17238SOL     OW54345   3.191   4.923   7.782  0.0754  0.0409 -0.0093
17238SOL    HW154346   3.117   4.913   7.721 -0.7216 -0.5370  1.0174
17238SOL    HW254347   3.260   4.867   7.745 -0.1014  0.3334 -0.8090
17239SOL     OW54348   1.874   4.884   0.655 -0.3927  0.0585  0.2386
17239SOL    HW154349   1.795   4.914   0.701 -0.7212  1.5335 -1.2159
17239SOL    HW254350   1.940   4.949   0.677 -0.5214  0.7136 -1.2307
17240SOL     OW54351   1.949   2.065   2.505  0.1415 -0.1970  0.1439
17240SOL    HW154352   1.873   2.105   2.548 -0.0510 -1.1823  0.7542
17240SOL    HW254353   2.019   2.069   2.570  0.6411  0.7554 -0.4364
17241SOL     OW54354   6.333   5.860   2.150  0.0832 -0.3548  0.0093
17241SOL    HW154355   6.256   5.806   2.170 -1.5815  1.3230 -1.4144
17241SOL    HW254356   6.344   5.850   2.055  1.5170 -0.3701  0.1621
17242SOL     OW54357   0.920   9.656   7.890 -0.0901  0.1449 -0.4068
17242SOL    HW154358   0.876   9.736   7.861  1.3981  0.9727 -0.4432
17242SOL    HW254359   1.004   9.656   7.845  0.6285 -0.5872  0.8623
17243SOL     OW54360   6.370   2.998   2.701 -0.0603 -0.3612 -0.0655
17243SOL    HW154361   6.439   3.064   2.689 -1.6761  1.3834 -0.2799
17243SOL    HW254362   6.391   2.958   2.786  2.0445 -0.9735 -0.8245
17244SOL     OW54363   7.731   1.999   7.935 -0.1751 -0.5107  0.4612
17244SOL    HW154364   7.747   1.915   7.978  2.2645 -0.4684 -0.2044
17244SOL    HW254365   7.747   1.982   7.842 -2.3108  0.1183 -0.0832
17245SOL     OW54366   5.989   0.922   4.273  0.4770 -0.1416  0.3675
17245SOL    HW154367   6.060   0.962   4.325  0.5168 -0.9456  0.9427
17245SOL    HW254368   5.911   0.932   4.327 -0.2714  2.3312 -0.9957
17246SOL     OW54369   2.778  10.077   3.419 -0.2826  0.1426 -0.1891
17246SOL    HW154370   2.780  10.036   3.332 -0.1545 -0.2139 -0.0217
17246SOL    HW254371   2.817  10.011   3.477 -0.2677  0.4220  0.1203
17247SOL     OW54372   7.763   8.232   2.899  0.9143  0.0223  0.0669
17247SOL    HW154373   7.789   8.301   2.838  1.7554 -0.2766  0.0720
17247SOL    HW254374   7.668   8.235   2.900  0.9445  1.3866  0.3021
17248SOL     OW54375   0.302  10.248   8.060  0.0504 -0.0011  0.1412
17248SOL    HW154376   0.386  10.232   8.017  0.0724 -0.3322  0.3064
17248SOL    HW254377   0.258  10.164   8.058  0.4871 -0.3073  1.7142
17249SOL     OW54378   9.410   2.817   0.431  0.0103  0.2056  0.2809
17249SOL    HW154379   9.492   2.789   0.392  0.0793  0.4059  0.2794
17249SOL    HW254380   9.428   2.822   0.525 -0.7018 -2.1959  0.6126
17250SOL     OW54381   3.462   8.908   1.005 -0.5684  0.7039  0.5867
17250SOL    HW154382   3.528   8.880   0.942 -0.5903 -0.7563  1.1673
17250SOL    HW254383   3.447   8.831   1.059 -1.2982  1.6137  1.7305
17251SOL     OW54384   9.559   0.529   9.804 -0.0829  0.5764 -0.0698
17251SOL    HW154385   9.607   0.467   9.859 -2.4675 -1.6647 -0.3182
17251SOL    HW254386   9.573   0.614   9.845  0.6817 -0.5791  2.2275
17252SOL     OW54387   1.885   8.782   6.481 -0.0621  0.2590  0.0700
17252SOL    HW154388   1.926   8.754   6.563 -0.2774 -2.9360 -0.7837
17252SOL    HW254389   1.794   8.755   6.489 -0.2888  0.6656 -0.9248
17253SOL     OW54390   0.752   7.697   8.565 -0.1614  0.0762  0.4552
17253SOL    HW154391   0.838   7.722   8.534 -0.9930  0.6126 -1.5377
17253SOL    HW254392   0.765   7.610   8.604  1.6568  1.0680  2.2530
17254SOL     OW54393   5.722   4.925   3.121  0.0045 -0.6517  0.6745
17254SOL    HW154394   5.749   4.833   3.128  1.0194 -0.4373 -0.2097
17254SOL    HW254395   5.713   4.940   3.027 -1.5616 -0.2192  0.8541
17255SOL     OW54396   0.395   5.104   9.502 -0.0733 -0.0195 -0.0705
17255SOL    HW154397   0.431   5.020   9.531 -1.0404 -0.2726  0.4290
17255SOL    HW254398   0.369   5.148   9.583  1.1929  1.1471 -0.2539
17256SOL     OW54399   7.981   9.032   8.177 -0.4569 -0.1963 -0.0319
17256SOL    HW154400   7.958   9.094   8.108  0.1419 -0.3724 -0.3948
17256SOL    HW254401   7.987   8.948   8.132  3.5153  0.1845 -0.5559
17257SOL     OW54402   3.823   5.428  10.325  0.2313 -0.0494 -0.0362
17257SOL    HW154403   3.734   5.449  10.353 -0.7022 -2.8177 -0.6109
17257SOL    HW254404   3.814   5.408  10.232  1.4537 -0.3144 -0.1087
17258SOL     OW54405   2.584   3.622   2.105 -0.6473  0.9230  0.1861
17258SOL    HW154406   2.536   3.678   2.044 -1.7942 -1.5901 -1.4152
17258SOL    HW254407   2.655   3.584   2.053  0.1811  0.9765  1.2423
17259SOL     OW54408   6.445   3.564   2.026  0.2835  0.8635 -0.7114
17259SOL    HW154409   6.396   3.618   1.965 -3.8063 -2.3559 -0.6612
17259SOL    HW254410   6.516   3.527   1.974 -0.4662  1.5850 -2.3176
17260SOL     OW54411   1.217   6.466   3.551  0.8616 -0.1774 -0.4101
17260SOL    HW154412   1.209   6.558   3.576  2.5328  0.0230 -0.4638
17260SOL    HW254413   1.283   6.466   3.482  2.1135 -1.5798  0.7199
17261SOL     OW54414   5.281   3.887   5.176  0.1750 -0.3026 -0.0839
17261SOL    HW154415   5.298   3.922   5.263  1.3144 -0.5955 -0.1737
17261SOL    HW254416   5.227   3.809   5.192  0.2892 -0.2956  0.3527
17262SOL     OW54417   0.271   0.428   8.155  0.0081 -0.1543  0.0759
17262SOL    HW154418   0.256   0.338   8.183 -0.7865 -0.0640 -0.0349
17262SOL    HW254419   0.352   0.424   8.104  0.3661 -0.6732  0.6700
17263SOL     OW54420   6.526   4.660   4.103  0.1273  0.5518 -0.4730
17263SOL    HW154421   6.443   4.704   4.120  0.1881  1.1146 -1.5347
17263SOL    HW254422   6.556   4.697   4.020  0.8172 -0.5614 -0.7471
17264SOL     OW54423   1.187   7.175  10.087  0.3500 -0.7573  0.0855
17264SOL    HW154424   1.215   7.153  10.176 -0.3435  2.2987  1.2033
17264SOL    HW254425   1.092   7.164  10.088  0.2802 -0.2021 -0.0967
17265SOL     OW54426   6.663   9.018   6.411  0.3086  0.7247  0.5259
17265SOL    HW154427   6.678   9.111   6.427 -2.8753  1.1552  1.9719
17265SOL    HW254428   6.618   9.015   6.327 -0.4899  0.6440  0.9440
17266SOL     OW54429   6.581   2.997   3.561  0.3346  0.2315  0.5124
17266SOL    HW154430   6.576   3.083   3.603 -0.2417  1.5704 -2.0973
17266SOL    HW254431   6.497   2.987   3.516  0.1766 -1.9807  1.2111
17267SOL     OW54432   4.069  10.067   1.448  0.5910 -0.1692 -0.2309
17267SOL    HW154433   4.005   9.999   1.471  1.9187 -0.8146  1.7942
17267SOL    HW254434   4.105  10.039   1.364 -0.3880 -0.8144 -0.4506
17268SOL     OW54435   5.607   0.909   1.783 -0.0175  0.2076 -1.0825
17268SOL    HW154436   5.544   0.840   1.801  0.3155  0.4761  1.4511
17268SOL    HW254437   5.689   0.863   1.765  0.1900 -0.1225  0.5324
17269SOL     OW54438   9.753   2.324   0.562  0.0971 -0.3201  0.5945
17269SOL    HW154439   9.714   2.398   0.609 -0.3925 -1.1835  1.6022
17269SOL    HW254440   9.836   2.308   0.607  0.3175 -0.2204  0.2213
17270SOL     OW54441   1.002   6.438   3.776  0.2520  0.0080  0.2563
17270SOL    HW154442   0.946   6.431   3.698 -0.3515  0.6759  0.6197
17270SOL    HW254443   1.086   6.403   3.748 -0.4771 -1.5132 -0.1632
17271SOL     OW54444   2.550   6.525   2.478  0.0660  0.1444  0.1907
17271SOL    HW154445   2.587   6.484   2.557 -1.0424  0.2354  0.7706
17271SOL    HW254446   2.474   6.472   2.457 -1.4668  1.9056  1.0037
17272SOL     OW54447   6.430   5.739   6.869 -0.4852 -0.2340 -0.6353
17272SOL    HW154448   6.490   5.804   6.904 -0.2855 -1.1551  0.8236
17272SOL    HW254449   6.425   5.758   6.775 -2.7126  3.7597  0.0640
17273SOL     OW54450   8.817  10.294   0.971 -0.1908 -0.0782 -0.2393
17273SOL    HW154451   8.817  10.248   0.888  0.2881 -1.0412  0.2829
17273SOL    HW254452   8.900  10.271   1.012 -1.5314 -1.8462  1.7005
17274SOL     OW54453   1.573   4.519   9.333  0.3829  0.1076 -0.2658
17274SOL    HW154454   1.612   4.528   9.246 -0.5782  0.7375 -0.6569
17274SOL    HW254455   1.533   4.605   9.349  0.4571 -0.0440  0.7521
17275SOL     OW54456   9.451   9.912   2.680 -0.1195 -0.5026  0.5432
17275SOL    HW154457   9.535   9.956   2.672 -0.5665  0.4158  0.7652
17275SOL    HW254458   9.394   9.957   2.618 -0.3878 -1.2811  0.2149
17276SOL     OW54459   0.310   1.237   2.621  0.1467  0.3776  0.7331
17276SOL    HW154460   0.392   1.277   2.592  0.3814 -1.5693 -1.5606
17276SOL    HW254461   0.325   1.215   2.713  1.6750  1.2767  0.7366
17277SOL     OW54462   8.393   1.549   8.753 -0.6165  0.6085 -0.4990
17277SOL    HW154463   8.311   1.500   8.765 -0.3054  0.5258  1.5842
17277SOL    HW254464   8.452   1.486   8.711 -0.3226 -0.7757  1.8474
17278SOL     OW54465  10.233   9.386   5.659 -0.3268  0.0594  0.0311
17278SOL    HW154466  10.319   9.342   5.663 -0.8715 -1.0236  0.2511
17278SOL    HW254467  10.174   9.327   5.705 -1.4808  0.0986 -1.3402
17279SOL     OW54468   5.118   6.450   7.999 -0.1058  0.0587  0.1947
17279SOL    HW154469   5.025   6.445   7.977 -0.4363  1.2330  1.2032
17279SOL    HW254470   5.155   6.511   7.935 -0.1873  0.1805  0.2637
17280SOL     OW54471   0.238   4.515   7.495 -0.6296  0.1402 -0.3202
17280SOL    HW154472   0.320   4.467   7.490  0.9682  2.7735 -1.4084
17280SOL    HW254473   0.190   4.490   7.416  0.4090  0.6972 -1.1444
17281SOL     OW54474   8.995   9.481   0.987  0.2109  0.2113  0.4260
17281SOL    HW154475   8.972   9.468   1.079 -0.0705  1.6299  0.5802
17281SOL    HW254476   8.925   9.536   0.952 -0.0891 -0.9371 -0.8536
17282SOL     OW54477   3.793   3.445   2.543  0.3823 -0.3736  0.1278
17282SOL    HW154478   3.831   3.359   2.525  0.6948  0.2765 -2.8592
17282SOL    HW254479   3.723   3.455   2.478  1.0164  1.9859 -0.3019
17283SOL     OW54480   6.592   0.465   5.027  0.2245  0.6984  0.5121
17283SOL    HW154481   6.612   0.558   5.022 -2.6762  1.3680 -0.2823
17283SOL    HW254482   6.507   0.456   4.984 -0.3234 -2.0808  1.9327
17284SOL     OW54483   5.049   5.207   3.933  0.4226 -0.2261 -0.6654
17284SOL    HW154484   5.029   5.300   3.937 -0.3785 -0.4213  0.5900
17284SOL    HW254485   5.024   5.181   3.844 -2.6836  0.0880  0.0121
17285SOL     OW54486   2.864   8.145   7.369 -0.1774  1.0139  0.0676
17285SOL    HW154487   2.803   8.216   7.390 -1.4687 -0.5115  1.8636
17285SOL    HW254488   2.904   8.121   7.453  0.9579  0.2514 -0.6533
17286SOL     OW54489   5.411   4.508   1.717 -0.0323  0.6689 -0.1304
17286SOL    HW154490   5.331   4.471   1.756 -0.6034  0.8497 -1.1059
17286SOL    HW254491   5.457   4.548   1.790 -0.5194  0.0056  0.5581
17287SOL     OW54492   1.196   6.252   7.354  0.1307 -0.7391  0.1320
17287SOL    HW154493   1.214   6.334   7.310 -3.1646  0.1315  0.1606
17287SOL    HW254494   1.270   6.241   7.415  1.2294  1.5585 -0.6556
17288SOL     OW54495   9.893   1.960   3.965 -0.2355  0.3125  0.1782
17288SOL    HW154496   9.820   1.920   3.917 -1.7033  0.8016  1.8814
17288SOL    HW254497   9.883   2.054   3.950 -1.6036  0.6200  2.4467
17289SOL     OW54498   5.899   1.729   1.192 -0.2804  0.3332  0.2132
17289SOL    HW154499   5.907   1.693   1.280  1.5984  1.6787  0.6373
17289SOL    HW254500   5.912   1.654   1.134  1.1482 -0.1307  1.0843
17290SOL     OW54501   1.167   3.345   1.196  0.2067 -0.1054  0.1060
17290SOL    HW154502   1.117   3.322   1.274  0.1618  0.5952  0.2938
17290SOL    HW254503   1.249   3.298   1.206  1.1762  1.7888  1.7808
17291SOL     OW54504   5.299   2.880   9.709  0.6311 -0.2141  0.0778
17291SOL    HW154505   5.275   2.965   9.746 -1.5092 -0.0590 -1.4488
17291SOL    HW254506   5.273   2.886   9.617 -1.1080 -2.9940  0.2597
17292SOL     OW54507   0.088   2.229   3.728 -0.1911  0.3045 -0.2734
17292SOL    HW154508   0.067   2.317   3.699 -1.1311  0.6217  1.2495
17292SOL    HW254509   0.066   2.229   3.821  0.2507 -1.3923 -0.1422
17293SOL     OW54510   3.470   5.195   6.090 -0.0388  0.4352  0.1744
17293SOL    HW154511   3.435   5.122   6.140  0.2542  1.4811  1.9787
17293SOL    HW254512   3.525   5.243   6.151 -0.7573  2.5719 -0.7245
17294SOL     OW54513   1.161   1.080   3.882 -0.2512  0.4347  0.6427
17294SOL    HW154514   1.181   1.118   3.967  0.3927 -1.2080  1.2757
17294SOL    HW254515   1.242   1.087   3.832 -0.1653  0.0169  0.7201
17295SOL     OW54516   0.156   8.035   1.582  0.9266 -0.2342 -0.0948
17295SOL    HW154517   0.131   7.988   1.661  1.3384  1.2649  0.9671
17295SOL    HW254518   0.228   7.985   1.545  0.1464 -1.4382 -0.0385
17296SOL     OW54519   6.247   4.762   3.155  0.6863  0.1323 -0.5712
17296SOL    HW154520   6.248   4.670   3.129  0.5169 -0.1752  0.4792
17296SOL    HW254521   6.162   4.794   3.125  1.8068  0.7315 -3.4592
17297SOL     OW54522   1.232   1.928   9.161  0.5416  0.1903 -0.7558
17297SOL    HW154523   1.177   1.989   9.210 -0.0577 -0.3959 -0.6925
17297SOL    HW254524   1.179   1.903   9.085  0.8238 -0.1653 -0.8421
17298SOL     OW54525   9.456   3.413   8.796 -0.1830 -0.3140  0.0947
17298SOL    HW154526   9.401   3.392   8.872 -0.4553 -0.4084 -0.1265
17298SOL    HW254527   9.537   3.445   8.834 -0.6652  0.5361  0.4262
17299SOL     OW54528   2.522   2.218   8.764 -0.6294 -0.0953 -0.2058
17299SOL    HW154529   2.553   2.308   8.774 -0.7880 -0.0413 -0.1876
17299SOL    HW254530   2.516   2.205   8.670  0.2074 -0.3732 -0.2265
17300SOL     OW54531   8.633   0.904   7.607 -0.3004 -0.3431 -0.4515
17300SOL    HW154532   8.649   0.949   7.690 -2.0369  1.5533 -1.0529
17300SOL    HW254533   8.696   0.943   7.546  1.9336 -2.7169  0.1841
17301SOL     OW54534   3.006   1.946   4.364  0.0858  0.7927  0.3040
17301SOL    HW154535   2.998   1.850   4.369  2.1504  0.6570  2.0227
17301SOL    HW254536   2.915   1.977   4.359 -0.8049 -1.1523  2.4852
17302SOL     OW54537   4.980   4.792   2.200 -0.4919 -0.6462 -0.1417
17302SOL    HW154538   5.022   4.857   2.256 -0.3306 -0.3556 -0.5928
17302SOL    HW254539   4.886   4.803   2.217 -0.4546 -0.4095 -0.0889
17303SOL     OW54540   7.874   8.355   5.577  0.1027  0.0051  0.0190
17303SOL    HW154541   7.944   8.381   5.517  0.7006  1.6389  1.3469
17303SOL    HW254542   7.812   8.307   5.522  0.9526  0.8257 -1.7431
17304SOL     OW54543   1.857   5.393   5.534  0.0166 -0.3022  0.2028
17304SOL    HW154544   1.807   5.321   5.494 -1.6532  0.4876  0.7445
17304SOL    HW254545   1.844   5.381   5.628 -0.1102  0.5880  0.3031
17305SOL     OW54546   5.115   7.430   3.584  0.1482  0.0070 -0.1759
17305SOL    HW154547   5.136   7.380   3.505  0.2280 -0.1187 -0.0742
17305SOL    HW254548   5.190   7.488   3.597  0.0688  0.1336 -0.2760
17306SOL     OW54549   2.159   3.052   4.926 -0.3959 -0.4651 -0.5276
17306SOL    HW154550   2.212   3.113   4.874  0.2394 -0.8268 -0.3077
17306SOL    HW254551   2.186   3.066   5.016 -0.9682 -0.3693 -0.3636
17307SOL     OW54552   3.259   7.529   6.413 -0.0053  0.7212  0.3056
17307SOL    HW154553   3.204   7.596   6.454 -0.6354  1.1073 -1.1056
17307SOL    HW254554   3.209   7.448   6.422 -0.5826  0.9745 -0.5008
17308SOL     OW54555   0.669   7.760   4.241  0.1416  0.0474 -0.0614
17308SOL    HW154556   0.626   7.793   4.162  0.8777  0.1138 -0.4469
17308SOL    HW254557   0.751   7.721   4.208 -0.7656 -2.3810  0.3162
17309SOL     OW54558   2.357   2.508   5.051 -0.7902 -0.3185 -0.4511
17309SOL    HW154559   2.372   2.426   5.004 -1.4153  0.0386 -1.2877
17309SOL    HW254560   2.268   2.533   5.027 -0.0296  1.4954 -1.5749
17310SOL     OW54561   2.983   8.071   4.414 -0.6987 -0.2060 -0.7911
17310SOL    HW154562   3.002   8.055   4.322 -0.9324 -2.2610 -0.5170
17310SOL    HW254563   3.062   8.114   4.448 -1.3492  2.4484 -2.3271
17311SOL     OW54564   0.022   0.046   1.169  0.0344 -0.3000 -0.5180
17311SOL    HW154565   0.052   0.078   1.254  0.6602  0.3357 -0.9661
17311SOL    HW254566   0.064  -0.039   1.159  1.6936  0.5342 -1.1012
17312SOL     OW54567   4.146   4.203   6.775 -0.3233 -0.0893 -0.4548
17312SOL    HW154568   4.114   4.125   6.820  0.6404  0.2496  0.8868
17312SOL    HW254569   4.169   4.173   6.687 -2.1978 -0.7891 -0.7693
17313SOL     OW54570   7.614   6.949   2.942  0.2880  0.2092  0.1658
17313SOL    HW154571   7.680   7.001   2.990  0.0617  0.9095 -0.2580
17313SOL    HW254572   7.612   6.865   2.987 -0.9177  1.2895  2.3002
17314SOL     OW54573  10.024   6.643   1.148  0.2247  0.2832 -0.3657
17314SOL    HW154574  10.096   6.647   1.085  0.5327  0.7696  0.0139
17314SOL    HW254575  10.065   6.656   1.233 -0.4174  1.5023 -0.2219
17315SOL     OW54576   1.763   2.489   5.640  0.5607  0.2664 -0.6039
17315SOL    HW154577   1.788   2.424   5.704  1.2921 -0.6307 -1.7563
17315SOL    HW254578   1.667   2.487   5.639  0.5796 -0.6997 -0.5382
17316SOL     OW54579   5.112   9.445  10.012 -0.2733 -0.0217  0.2877
17316SOL    HW154580   5.099   9.495   9.931 -0.8508 -1.6037 -0.6630
17316SOL    HW254581   5.027   9.402  10.027  0.1948 -0.7126  1.0394
17317SOL     OW54582   2.245   1.471   9.576 -0.0812 -0.2025 -0.0823
17317SOL    HW154583   2.232   1.424   9.494 -0.7618 -0.9297  0.4291
17317SOL    HW254584   2.180   1.542   9.573  0.1130 -0.0322 -0.3104
17318SOL     OW54585   6.963   0.848   8.780 -0.4438  0.5839 -0.0576
17318SOL    HW154586   6.875   0.848   8.743 -0.6496  0.1203  0.4155
17318SOL    HW254587   6.989   0.940   8.783 -1.5232  0.8578  1.2424
17319SOL     OW54588  10.044   3.112   5.732  0.1302  0.2677  0.1638
17319SOL    HW154589  10.055   3.205   5.710 -1.7951  0.2362 -1.1321
17319SOL    HW254590  10.080   3.066   5.657  2.3402 -0.1553  1.3763
17320SOL     OW54591   0.864   9.407   5.121  0.3087  0.0154 -0.7251
17320SOL    HW154592   0.848   9.390   5.028 -0.1479  0.2989 -0.7017
17320SOL    HW254593   0.828   9.495   5.136  0.3592 -0.0382 -0.2786
17321SOL     OW54594   2.063   3.464   6.038  1.1875 -0.4108  0.4909
17321SOL    HW154595   2.095   3.476   5.949 -0.1346 -1.1978 -0.1091
17321SOL    HW254596   1.990   3.403   6.030  0.7747 -0.1713  2.0658
17322SOL     OW54597   1.527   9.150   0.133 -0.1496 -0.3521 -0.7047
17322SOL    HW154598   1.477   9.129   0.054  0.0035  0.1801 -0.9483
17322SOL    HW254599   1.571   9.069   0.156 -0.2951 -0.5449 -1.0991
17323SOL     OW54600   5.789   1.229   6.978  1.0604 -0.0659 -0.1247
17323SOL    HW154601   5.873   1.275   6.982  0.5529  0.8217  1.1575
17323SOL    HW254602   5.742   1.259   7.056 -0.4952 -0.4497 -0.8738
17324SOL     OW54603   4.363   1.712   5.165  0.5081  0.4620  0.2654
17324SOL    HW154604   4.401   1.629   5.191  1.6783  0.6729 -0.6956
17324SOL    HW254605   4.363   1.764   5.245  0.3014 -0.2563  0.7409
17325SOL     OW54606   7.654   7.101   5.887  0.0048  1.1507  0.4977
17325SOL    HW154607   7.689   7.058   5.809  0.5573 -3.0447  2.7426
17325SOL    HW254608   7.559   7.094   5.879  0.0122  1.7608 -0.2445
17326SOL     OW54609   6.622   8.053   9.828 -0.2222  0.0041 -0.0206
17326SOL    HW154610   6.530   8.039   9.852 -0.3262  0.2625 -0.2592
17326SOL    HW254611   6.665   7.971   9.851 -0.7005 -0.4760 -0.7882
17327SOL     OW54612   4.548   3.102   3.523  0.4022 -0.3160  0.7156
17327SOL    HW154613   4.464   3.077   3.484 -0.4285 -1.0126  2.7921
17327SOL    HW254614   4.544   3.068   3.612  2.6265  0.2614  1.0987
17328SOL     OW54615   8.414   9.437   5.832 -0.4320 -0.3005  0.1235
17328SOL    HW154616   8.424   9.381   5.909  0.9713  1.5863  1.4107
17328SOL    HW254617   8.492   9.420   5.779  0.0332  0.4829  0.5541
17329SOL     OW54618   6.817   9.783   1.721 -0.0437 -0.1041 -0.1277
17329SOL    HW154619   6.870   9.850   1.679 -0.3265 -0.2293 -0.6938
17329SOL    HW254620   6.880   9.716   1.749  0.0483 -0.5750 -1.4011
17330SOL     OW54621   1.331   3.113   9.497 -0.1752 -0.5915  0.2729
17330SOL    HW154622   1.305   3.204   9.477  0.9285 -0.1703  0.7063
17330SOL    HW254623   1.378   3.085   9.419  0.7187 -0.2963  0.6993
17331SOL     OW54624   4.602   5.053   7.683 -0.6339 -0.1967  0.2864
17331SOL    HW154625   4.560   5.004   7.754 -0.0477 -1.0527  0.0441
17331SOL    HW254626   4.695   5.035   7.693 -0.5182 -0.0264 -0.4798
17332SOL     OW54627   7.708   5.363   9.933 -0.3013  0.0690  0.2685
17332SOL    HW154628   7.744   5.276   9.916 -0.5661  0.2874 -1.7263
17332SOL    HW254629   7.660   5.354  10.015 -0.6888 -1.7894 -0.1204
17333SOL     OW54630   3.142   3.742   2.947  0.3590 -0.3417 -0.1457
17333SOL    HW154631   3.059   3.768   2.987 -0.7554 -2.3911 -0.9798
17333SOL    HW254632   3.125   3.743   2.853  2.0939  1.6322 -0.5369
17334SOL     OW54633   3.649   3.682   4.590 -0.0808 -0.6053 -0.4534
17334SOL    HW154634   3.639   3.775   4.570  0.3114 -0.3148  0.6054
17334SOL    HW254635   3.643   3.638   4.506 -1.0810  0.3073 -0.8681
17335SOL     OW54636   0.759  10.269   4.104 -0.5998 -0.0911 -0.5085
17335SOL    HW154637   0.687  10.218   4.141 -1.5362  1.3801 -0.2038
17335SOL    HW254638   0.775  10.230   4.018 -1.4827 -0.6919 -0.4148
17336SOL     OW54639   5.682   9.213   1.235  0.3430  0.1020  0.3921
17336SOL    HW154640   5.708   9.304   1.247  1.0978 -0.1810  0.9832
17336SOL    HW254641   5.586   9.215   1.231  0.3941  1.0297 -0.6038
17337SOL     OW54642   9.949   9.532   6.552 -0.2948 -0.5242 -0.1831
17337SOL    HW154643   9.933   9.448   6.594 -1.0788 -1.1568 -1.6745
17337SOL    HW254644   9.866   9.555   6.511 -0.4593  1.6042  1.2056
17338SOL     OW54645   8.085   0.768   5.297  0.4215  0.2868 -0.1551
17338SOL    HW154646   8.135   0.705   5.245  1.6978  1.2163 -0.1135
17338SOL    HW254647   7.998   0.730   5.304  0.1054  0.1935 -3.1811
17339SOL     OW54648   4.867   9.360   5.667  0.3772  0.3085  0.5101
17339SOL    HW154649   4.775   9.384   5.678  0.5835  2.4508 -1.4754
17339SOL    HW254650   4.903   9.359   5.756 -1.4235 -0.0147  1.2686
17340SOL     OW54651   5.047   8.082   3.217 -0.1920 -0.3184  0.4428
17340SOL    HW154652   5.141   8.084   3.201  0.1699  0.8777  2.3549
17340SOL    HW254653   5.010   8.047   3.137  1.7019  1.2249 -1.2258
17341SOL     OW54654   0.452   1.929   8.300 -0.0994 -0.7192  0.0348
17341SOL    HW154655   0.520   1.938   8.234 -0.8966 -1.6881 -0.9611
17341SOL    HW254656   0.435   2.019   8.329  1.5463 -0.4534  0.2832
17342SOL     OW54657   6.249   2.492   8.960  0.5345 -0.4195  0.0120
17342SOL    HW154658   6.339   2.470   8.937  0.0864 -2.4623 -0.0331
17342SOL    HW254659   6.238   2.460   9.049  0.2011  1.0073  0.5107
17343SOL     OW54660   1.378   2.654   4.934 -0.0073  0.4344  0.0508
17343SOL    HW154661   1.358   2.702   5.014 -1.2512  0.8715 -0.5013
17343SOL    HW254662   1.411   2.721   4.874  0.4924  0.1857  0.0435
17344SOL     OW54663   7.702   9.934   5.484  0.0699 -0.0706 -0.2058
17344SOL    HW154664   7.753   9.858   5.511 -0.3511 -0.6968 -1.1063
17344SOL    HW254665   7.655   9.961   5.563 -0.0058 -0.9395  0.0537
17345SOL     OW54666   0.896   4.998   6.814  0.2587 -0.0917  0.2110
17345SOL    HW154667   0.980   5.036   6.838 -0.1143 -0.0375  1.4908
17345SOL    HW254668   0.886   4.923   6.872 -0.3451 -0.4161 -0.2964
17346SOL     OW54669   5.267   6.227   9.912 -0.4314  0.4041 -1.2742
17346SOL    HW154670   5.296   6.265   9.994 -3.0840  0.5622 -0.3116
17346SOL    HW254671   5.263   6.133   9.929 -1.3667  0.4729 -1.0523
17347SOL     OW54672   9.727   4.016  10.143  0.1004  0.0500  0.1037
17347SOL    HW154673   9.632   4.027  10.143  0.2966  2.3138 -0.5784
17347SOL    HW254674   9.753   4.031  10.234 -0.3148 -2.5406  0.7118
17348SOL     OW54675   3.283   5.776   7.125 -0.4066  0.3878 -0.5687
17348SOL    HW154676   3.290   5.777   7.029 -0.7809  0.8724 -0.5968
17348SOL    HW254677   3.346   5.710   7.153 -0.5267  0.0074 -1.1691
17349SOL     OW54678   3.556   7.227   6.522  0.9918  0.0302 -0.3576
17349SOL    HW154679   3.610   7.284   6.577  0.2608 -0.9111  1.4422
17349SOL    HW254680   3.554   7.144   6.570  0.5142 -0.9324 -1.9714
17350SOL     OW54681   9.371   5.754   8.405  0.3329 -0.1952  0.1698
17350SOL    HW154682   9.423   5.691   8.456 -0.0283 -0.6685 -0.0424
17350SOL    HW254683   9.284   5.715   8.400  0.1472  0.2460 -0.1073
17351SOL     OW54684   1.079   3.451   0.587 -0.2107  0.0826 -0.4316
17351SOL    HW154685   1.172   3.428   0.596 -0.1122  0.8612  0.7619
17351SOL    HW254686   1.034   3.367   0.593  0.2997 -0.1083  1.2414
17352SOL     OW54687   5.797   5.780   0.070 -0.1371 -0.0684 -0.3156
17352SOL    HW154688   5.853   5.839   0.020 -0.4046  0.1196 -0.3939
17352SOL    HW254689   5.830   5.787   0.160 -1.0727  1.3135 -0.0430
17353SOL     OW54690   5.213   3.951   0.594 -0.7207  0.4002 -0.0837
17353SOL    HW154691   5.118   3.942   0.586 -0.6768 -0.8529  0.6725
17353SOL    HW254692   5.227   4.046   0.604 -1.7235  0.7878 -1.9647
17354SOL     OW54693   3.414   2.443   1.795  0.2288 -0.3964 -0.4538
17354SOL    HW154694   3.378   2.355   1.810 -1.7806  0.0343 -2.3858
17354SOL    HW254695   3.444   2.470   1.882 -1.6347 -1.9069  0.7683
17355SOL     OW54696   3.463   7.003   8.755 -0.4184  0.1231 -0.9861
17355SOL    HW154697   3.374   6.973   8.771 -0.0017 -0.4026  0.5648
17355SOL    HW254698   3.511   6.923   8.731  0.5774 -0.5510  2.6306
17356SOL     OW54699   9.263   3.363   0.003 -0.1576 -0.2392  0.4105
17356SOL    HW154700   9.189   3.309  -0.023  0.0897 -0.8840  1.0192
17356SOL    HW254701   9.225   3.449   0.022 -0.5148 -0.0971 -0.8334
17357SOL     OW54702   4.335   5.576   7.649 -0.2360 -0.9714  0.2979
17357SOL    HW154703   4.402   5.528   7.699  1.3361  0.6921 -0.0974
17357SOL    HW254704   4.316   5.520   7.574  0.3227 -1.7121  0.6967
17358SOL     OW54705   7.773   0.855   5.216  0.3765  0.0538 -0.6255
17358SOL    HW154706   7.814   0.772   5.192 -0.5750 -0.3322 -0.9539
17358SOL    HW254707   7.715   0.832   5.289  1.2959  0.7356  0.3472
17359SOL     OW54708   5.511   9.612   9.266  0.0811 -0.0580  0.1013
17359SOL    HW154709   5.450   9.541   9.246  0.9106 -0.8593  0.3080
17359SOL    HW254710   5.532   9.600   9.359 -0.0875  0.7122  0.2440
17360SOL     OW54711   6.453   3.976   1.446  0.0178  0.3999 -0.6066
17360SOL    HW154712   6.366   3.990   1.485  0.1058  0.3934 -0.4047
17360SOL    HW254713   6.439   3.912   1.376  0.3313 -1.9955  1.3627
17361SOL     OW54714   3.086   3.535   2.424 -0.7070 -0.2393  0.5087
17361SOL    HW154715   3.025   3.488   2.366  0.0903 -1.1945  0.4115
17361SOL    HW254716   3.150   3.574   2.364  0.2368 -1.4002  0.7331
17362SOL     OW54717   2.415   3.750   0.175 -0.1235  0.7276 -0.3744
17362SOL    HW154718   2.399   3.707   0.090  1.7412  1.6427 -1.2553
17362SOL    HW254719   2.496   3.710   0.207  1.1775  2.8974 -0.8047
17363SOL     OW54720   4.362   8.534   2.494  0.0124  0.3426  0.0083
17363SOL    HW154721   4.377   8.606   2.556 -1.9322  0.2712  0.6269
17363SOL    HW254722   4.268   8.519   2.497  0.3389 -2.1651 -0.2199
17364SOL     OW54723   8.682   0.900   9.310 -0.1526  0.3403  0.1382
17364SOL    HW154724   8.701   0.858   9.226  0.3202  1.5265 -0.3702
17364SOL    HW254725   8.760   0.883   9.363 -0.5114 -0.5307  0.3921
17365SOL     OW54726   4.793   9.244   5.263  0.0432 -0.0296  0.5003
17365SOL    HW154727   4.808   9.259   5.169  1.0608 -0.7884  0.5372
17365SOL    HW254728   4.780   9.332   5.299  3.0367  0.6271  0.2141
17366SOL     OW54729   9.332   5.724   9.932 -0.4446 -1.1344 -0.1235
17366SOL    HW154730   9.370   5.639   9.950  1.3840 -0.0320  1.4878
17366SOL    HW254731   9.293   5.752  10.015  1.5248  0.7973  0.2296
17367SOL     OW54732   2.184   0.135   1.134 -0.3930 -0.3076  0.5275
17367SOL    HW154733   2.208   0.080   1.209 -0.1376  0.0823  0.7295
17367SOL    HW254734   2.196   0.077   1.058 -2.5981 -1.3574  0.9192
17368SOL     OW54735   8.004  10.132   0.747  0.2650 -0.1648  0.2929
17368SOL    HW154736   7.946  10.076   0.696 -0.4870  1.5213 -0.8236
17368SOL    HW254737   8.083  10.140   0.693  0.0324  0.5037  0.0450
17369SOL     OW54738   2.737   5.867   0.112 -0.5043  0.1759  0.5145
17369SOL    HW154739   2.699   5.937   0.165  1.7960  1.4310  0.6422
17369SOL    HW254740   2.759   5.799   0.176 -0.1037  0.5968  0.8413
17370SOL     OW54741   9.011   9.115   7.378  0.4333  0.7727  0.5333
17370SOL    HW154742   8.954   9.173   7.327 -1.2958 -1.0378  0.3125
17370SOL    HW254743   8.958   9.090   7.454  1.1435 -0.5086  0.6288
17371SOL     OW54744   4.747   1.518   3.191  0.6092  0.0011  0.4432
17371SOL    HW154745   4.793   1.434   3.191 -0.6621 -0.7103  0.3939
17371SOL    HW254746   4.689   1.514   3.267 -2.4198 -0.8582 -1.7557
17372SOL     OW54747   6.498   5.498   2.514 -0.0429  0.2456  0.1715
17372SOL    HW154748   6.515   5.571   2.454  1.3624  0.5434  0.8845
17372SOL    HW254749   6.584   5.456   2.525 -0.4897 -0.4370  1.1475
17373SOL     OW54750   7.488   1.172   2.000  0.5721  0.2059  0.4942
17373SOL    HW154751   7.563   1.129   1.959  0.9453 -0.2285  1.5964
17373SOL    HW254752   7.413   1.142   1.949  1.2818  2.7333 -2.3808
17374SOL     OW54753  10.011   9.890   9.261  0.2471  0.1697 -0.1604
17374SOL    HW154754  10.056   9.974   9.254 -0.7187  0.5685 -3.0254
17374SOL    HW254755  10.026   9.848   9.176 -1.3000 -1.4767  0.3208
17375SOL     OW54756   8.752   6.965   9.243  0.2560  0.4640  0.7520
17375SOL    HW154757   8.731   7.036   9.182  0.8512  0.3410  0.3993
17375SOL    HW254758   8.794   7.009   9.317 -0.9948  0.6862  1.3656
17376SOL     OW54759   0.098   6.390   8.476 -0.0886 -0.0679 -0.1855
17376SOL    HW154760   0.046   6.402   8.396 -1.9928 -1.4836  0.7653
17376SOL    HW254761   0.095   6.296   8.493  0.0343  0.2398  1.7026
17377SOL     OW54762   4.011   9.865   6.274  0.5905  0.3223  0.3289
17377SOL    HW154763   4.086   9.894   6.328  1.1027 -0.3251 -0.0207
17377SOL    HW254764   3.949   9.937   6.280  1.9645  1.6786 -0.8002
17378SOL     OW54765   1.894   1.794   0.470  0.1260 -0.5681  0.5351
17378SOL    HW154766   1.878   1.730   0.401  0.8343 -2.3388  1.9080
17378SOL    HW254767   1.860   1.752   0.549  1.6997  0.2302  1.6843
17379SOL     OW54768   4.792   7.571   8.022 -0.6865 -0.0270  0.3835
17379SOL    HW154769   4.704   7.592   7.991 -0.5976  0.8180  0.6826
17379SOL    HW254770   4.851   7.606   7.955 -0.5650 -0.5034  0.2316
17380SOL     OW54771   6.072   1.560   5.925 -0.2107  0.0246 -0.1884
17380SOL    HW154772   5.996   1.615   5.904  0.0391  0.9709  1.2668
17380SOL    HW254773   6.147   1.618   5.916  0.5046 -1.1241 -2.4840
17381SOL     OW54774   5.657   5.029   6.971  0.7933 -0.3656 -0.0548
17381SOL    HW154775   5.715   5.054   7.043  1.3509 -1.8193  0.0366
17381SOL    HW254776   5.716   5.008   6.899  0.4426 -2.0156  0.0824
17382SOL     OW54777   8.046   5.828   5.982 -0.8073 -0.6977 -0.0995
17382SOL    HW154778   8.032   5.923   5.989  1.4104 -0.3889  1.1793
17382SOL    HW254779   8.090   5.815   5.898  2.3197  0.0043  1.2807
17383SOL     OW54780  10.323   2.396   3.373  0.4069  0.3896 -0.6150
17383SOL    HW154781  10.268   2.434   3.442  0.6318  0.1495 -0.3042
17383SOL    HW254782  10.281   2.425   3.291  1.2647  2.3745 -0.4204
17384SOL     OW54783   0.295   8.092   0.172 -0.3627  0.4487 -0.2483
17384SOL    HW154784   0.328   8.046   0.250 -0.1142 -0.0698 -0.6524
17384SOL    HW254785   0.275   8.180   0.203 -0.2783  0.2445  0.4084
17385SOL     OW54786   0.136   4.071   2.001 -0.3075 -0.0493  0.4353
17385SOL    HW154787   0.175   4.156   2.023 -0.6320 -0.1326  1.3759
17385SOL    HW254788   0.210   4.016   1.975 -0.1419  0.6468 -0.6443
17386SOL     OW54789   3.774   5.078   1.092  0.1485 -0.1352 -0.2512
17386SOL    HW154790   3.839   5.054   1.158  0.8469 -0.6982 -1.1249
17386SOL    HW254791   3.704   5.014   1.102  1.5388 -2.0229 -1.8992
17387SOL     OW54792   1.858   1.853   9.838 -0.1870  0.1361 -0.3331
17387SOL    HW154793   1.841   1.933   9.888 -2.1353 -0.8843  0.7857
17387SOL    HW254794   1.818   1.870   9.753  0.6996  0.8648 -0.6200
17388SOL     OW54795   3.832   6.652   6.085 -0.2729 -0.5575 -0.4784
17388SOL    HW154796   3.881   6.647   6.003  1.0302 -1.0419  0.3023
17388SOL    HW254797   3.800   6.742   6.088  2.4029  0.4756 -0.0339
17389SOL     OW54798   8.905   4.885   7.327 -0.4238  0.0525  0.4313
17389SOL    HW154799   8.889   4.972   7.290 -1.8861 -0.2529  0.2900
17389SOL    HW254800   8.892   4.825   7.254 -0.0162 -0.3391  0.6750
17390SOL     OW54801   5.510   1.261   8.114 -0.0698  0.1434  0.2227
17390SOL    HW154802   5.454   1.269   8.191  0.9936  1.7279  0.8920
17390SOL    HW254803   5.454   1.223   8.047 -0.9254 -1.6102  1.8531
17391SOL     OW54804   8.689   1.417   9.998  0.0575 -0.0785 -0.4132
17391SOL    HW154805   8.609   1.464  10.021 -0.9090 -1.9359  0.1410
17391SOL    HW254806   8.676   1.390   9.907  0.1843 -0.1410 -0.4129
17392SOL     OW54807   4.474   7.998   8.917  0.7456  0.3569  0.1349
17392SOL    HW154808   4.379   8.004   8.910  0.1059 -5.3254 -1.6229
17392SOL    HW254809   4.504   7.986   8.827  2.4141 -2.3014  0.9307
17393SOL     OW54810   2.937   7.640   1.166 -0.6355 -0.0275 -0.2956
17393SOL    HW154811   2.968   7.575   1.229  2.2869  0.6440 -0.9119
17393SOL    HW254812   2.930   7.721   1.217 -1.5970 -0.1827 -0.1478
17394SOL     OW54813   1.109   2.474   7.844  0.2365  0.3690  0.1303
17394SOL    HW154814   1.053   2.451   7.769  1.5795 -1.8520 -0.2633
17394SOL    HW254815   1.117   2.393   7.894  0.8333  1.3755  1.7274
17395SOL     OW54816   0.846  10.284   3.110 -0.4760  0.2931 -0.0327
17395SOL    HW154817   0.853  10.377   3.089 -1.1249  0.5810  0.9815
17395SOL    HW254818   0.792  10.248   3.040 -1.1579  0.8971  0.1780
17396SOL     OW54819   3.095   7.174   7.950  0.1384 -0.4277  0.8529
17396SOL    HW154820   3.148   7.166   7.870  1.7270  0.2996  1.7817
17396SOL    HW254821   3.092   7.268   7.967 -1.5772 -0.4464  0.7879
17397SOL     OW54822   8.881   0.895   8.456 -0.0015 -0.2186  1.1766
17397SOL    HW154823   8.832   0.976   8.471  1.8249  0.6799  2.5739
17397SOL    HW254824   8.960   0.923   8.409 -1.3534 -1.8299 -2.4930
17398SOL     OW54825   0.310   1.528   4.705  0.9279 -0.4764 -0.2956
17398SOL    HW154826   0.237   1.489   4.658  1.3665 -1.4660 -0.1696
17398SOL    HW254827   0.270   1.595   4.760  0.0971 -1.1207 -0.0994
17399SOL     OW54828   7.584   7.763   8.279  0.1365 -0.2039  0.0132
17399SOL    HW154829   7.583   7.677   8.236  1.5671  0.0537 -0.5893
17399SOL    HW254830   7.590   7.825   8.206  0.5212  0.3430  0.5067
17400SOL     OW54831   8.808   3.056   2.447 -0.7830  0.2816  0.3518
17400SOL    HW154832   8.746   2.999   2.401 -1.1723 -0.0095  1.2026
17400SOL    HW254833   8.758   3.090   2.522  0.1030 -0.0440  1.1133
17401SOL     OW54834   0.503   6.402   7.516  0.1425  0.3799 -0.2110
17401SOL    HW154835   0.488   6.312   7.485  1.7637  0.2314 -0.6699
17401SOL    HW254836   0.457   6.457   7.453  0.3860 -0.0882 -0.8103
17402SOL     OW54837   5.213   9.265   5.324 -0.2614 -0.2396 -0.2889
17402SOL    HW154838   5.129   9.306   5.344  0.5304  1.3006  0.0588
17402SOL    HW254839   5.248   9.316   5.251  2.0778  1.7786  2.0194
17403SOL     OW54840   7.297   5.064   5.958  0.0456 -0.1857  0.3602
17403SOL    HW154841   7.344   5.128   5.904  1.6959 -0.6991  1.1310
17403SOL    HW254842   7.263   5.000   5.895 -3.7101  2.5253 -0.7346
17404SOL     OW54843   4.828   0.400   4.675 -0.4804 -0.1760  0.8630
17404SOL    HW154844   4.838   0.305   4.672  0.9630 -0.0167 -0.4780
17404SOL    HW254845   4.917   0.434   4.662 -0.8758  1.3679  1.8901
17405SOL     OW54846   0.765   5.151   9.406  0.3572  0.3129  0.2623
17405SOL    HW154847   0.776   5.166   9.500 -2.2171  0.5017  0.6019
17405SOL    HW254848   0.722   5.066   9.400  0.8300  0.1283 -0.7968
17406SOL     OW54849   3.612   3.689   7.700  0.6297  0.7026 -0.1450
17406SOL    HW154850   3.705   3.683   7.676  0.5022  0.4029 -0.5643
17406SOL    HW254851   3.613   3.700   7.795  1.2736  4.7203 -0.4306
17407SOL     OW54852   2.481   1.191   5.839 -0.3799 -0.4154  0.2092
17407SOL    HW154853   2.481   1.135   5.762 -1.4062 -1.9482  1.2698
17407SOL    HW254854   2.413   1.256   5.821  0.6455  0.3913 -0.9227
17408SOL     OW54855   6.349   9.148   3.367  0.7851 -0.2095  0.3484
17408SOL    HW154856   6.322   9.239   3.356  3.3147  0.5856  0.1661
17408SOL    HW254857   6.355   9.136   3.462  0.3580 -0.2138  0.3748
17409SOL     OW54858   8.397   9.514   0.499 -0.6254 -0.2092 -0.5249
17409SOL    HW154859   8.490   9.493   0.510 -0.5048  0.9572  0.9889
17409SOL    HW254860   8.351   9.450   0.554 -0.4393  1.4252  1.6751
17410SOL     OW54861   2.535   8.422   2.449 -0.2022  0.0563  0.2176
17410SOL    HW154862   2.597   8.418   2.523  1.8663 -2.1753 -1.4756
17410SOL    HW254863   2.530   8.515   2.428  1.6490  0.4370  1.2105
17411SOL     OW54864   1.458   3.427   1.236  0.5927 -0.5843  0.3430
17411SOL    HW154865   1.425   3.499   1.182 -0.0145 -1.4401 -0.4673
17411SOL    HW254866   1.502   3.369   1.174  1.1089 -0.8892  0.9867
17412SOL     OW54867   9.928   8.732   8.460 -0.1842 -0.5000  0.2231
17412SOL    HW154868   9.909   8.755   8.551  0.0767  1.0039 -0.0691
17412SOL    HW254869  10.014   8.691   8.462  0.6139  1.1070  0.4814
17413SOL     OW54870   6.040   8.159   2.011 -0.9480  0.3125  0.4070
17413SOL    HW154871   5.991   8.209   1.945 -0.3510 -2.0098 -1.9798
17413SOL    HW254872   5.990   8.078   2.021 -0.5392  0.2383  2.2162
17414SOL     OW54873   0.953   6.002   8.190 -0.2703  0.3405  0.0513
17414SOL    HW154874   0.981   5.963   8.272 -0.3026  1.6953  0.7320
17414SOL    HW254875   0.922   5.928   8.138  0.5040 -0.6408  0.9323
17415SOL     OW54876   0.727   3.076   2.531 -0.2121 -0.3074  0.1353
17415SOL    HW154877   0.817   3.050   2.513 -0.3729  0.4786 -2.2179
17415SOL    HW254878   0.674   3.017   2.478 -0.8339  1.4293 -1.2979
17416SOL     OW54879   8.484   3.750   6.787  0.0280 -0.1039  0.2453
17416SOL    HW154880   8.527   3.763   6.702 -0.3560  1.3415  0.2442
17416SOL    HW254881   8.417   3.684   6.770 -1.3659  1.5404 -1.1143
17417SOL     OW54882   6.023   2.950   6.484 -0.8654 -0.5869 -0.3889
17417SOL    HW154883   5.948   2.981   6.534  0.0281  0.7004  0.2040
17417SOL    HW254884   6.031   2.857   6.508 -0.0822  0.1194  2.4146
17418SOL     OW54885   0.912   1.527   0.870  0.0107  0.2812 -0.2025
17418SOL    HW154886   0.985   1.486   0.824  1.2326  2.0960  0.0407
17418SOL    HW254887   0.893   1.468   0.943  0.9732 -0.3989 -0.4839
17419SOL     OW54888   1.792  10.214   9.613 -0.2658 -0.4266 -0.2788
17419SOL    HW154889   1.840  10.264   9.548 -0.7262 -1.1221 -1.1761
17419SOL    HW254890   1.854  10.201   9.685  0.1136  0.7006 -0.3878
17420SOL     OW54891   6.695   1.904   0.420 -0.1855 -0.0548 -0.0557
17420SOL    HW154892   6.693   1.851   0.500  1.2394  1.0124  0.7360
17420SOL    HW254893   6.766   1.967   0.434 -0.7253  0.9873 -1.6538
17421SOL     OW54894   9.434   6.047   4.836  0.0077  0.0404  0.2661
17421SOL    HW154895   9.354   6.001   4.863 -0.4040  0.9224  0.5845
17421SOL    HW254896   9.442   6.119   4.898 -0.6692  1.8374 -1.6179
17422SOL     OW54897   6.557   6.374   1.792 -0.2583  0.4405 -0.1486
17422SOL    HW154898   6.491   6.304   1.791 -2.2385  2.1737  1.4806
17422SOL    HW254899   6.555   6.410   1.703  0.4255 -1.1592 -0.8623
17423SOL     OW54900   6.140   4.669   0.148  0.0733 -0.2768  0.0255
17423SOL    HW154901   6.235   4.662   0.141 -0.0115 -0.0079 -1.9992
17423SOL    HW254902   6.124   4.762   0.166  0.1760 -0.3415  0.4743
17424SOL     OW54903   5.310   8.155   3.429  0.3452 -0.9673  0.0645
17424SOL    HW154904   5.340   8.206   3.505  0.6904 -0.3252 -0.4843
17424SOL    HW254905   5.238   8.101   3.463  1.0379 -1.3125  1.0315
17425SOL     OW54906   8.592   1.163   6.423  0.1050 -0.1159 -0.3962
17425SOL    HW154907   8.548   1.235   6.379 -0.6613  0.6757  1.5602
17425SOL    HW254908   8.645   1.205   6.491  2.4354 -1.1768 -1.4307
17426SOL     OW54909   6.368   4.629   8.442  0.8966 -0.3612  0.4247
17426SOL    HW154910   6.285   4.589   8.417 -0.9255  2.1251  2.0457
17426SOL    HW254911   6.398   4.577   8.517  0.7645 -1.1477 -0.0466
17427SOL     OW54912   6.574   6.898   8.189  0.2099 -0.9365  0.3082
17427SOL    HW154913   6.631   6.921   8.116  1.2894 -1.3519  0.9889
17427SOL    HW254914   6.504   6.963   8.186  1.4607  0.4790  0.2614
17428SOL     OW54915   0.827   6.441   0.852 -0.1807 -0.3291  1.0423
17428SOL    HW154916   0.912   6.468   0.886 -1.3151  1.1326  2.8924
17428SOL    HW254917   0.830   6.465   0.759  0.9326  0.9798  1.3812
17429SOL     OW54918   9.019   9.951   1.104 -0.2739 -0.3580 -0.7554
17429SOL    HW154919   8.926   9.952   1.080 -0.6824 -1.0533  0.7014
17429SOL    HW254920   9.063   9.917   1.027 -1.4295 -1.6291 -0.8882
17430SOL     OW54921   3.032   5.141   4.956 -0.8057  0.5352  0.3387
17430SOL    HW154922   3.003   5.204   5.023 -0.2857 -0.4703  1.5568
17430SOL    HW254923   3.122   5.120   4.982 -1.0713 -0.9315  0.1293
17431SOL     OW54924   1.870   3.836   0.480 -0.0427 -0.4484  0.5777
17431SOL    HW154925   1.961   3.855   0.457  0.0869 -1.1747  0.4627
17431SOL    HW254926   1.819   3.877   0.411  0.1933  0.0218  0.6806
17432SOL     OW54927   6.950   8.372   4.921 -0.0986  0.3311 -0.6942
17432SOL    HW154928   6.962   8.466   4.930  2.1430  0.0426 -0.0542
17432SOL    HW254929   6.937   8.358   4.827  0.7006  1.1895 -0.9485
17433SOL     OW54930   0.239   7.929   9.481 -0.6564  0.2143  0.5935
17433SOL    HW154931   0.316   7.984   9.497  0.0451 -0.3853 -0.6291
17433SOL    HW254932   0.211   7.902   9.568 -0.1871  1.3815  1.1300
17434SOL     OW54933   0.105   7.370   2.546 -0.1509  0.2992 -0.0107
17434SOL    HW154934   0.111   7.445   2.606  0.0390 -0.4981  0.9914
17434SOL    HW254935   0.195   7.339   2.538  0.0472  1.2201 -1.8251
17435SOL     OW54936   3.250   8.211   4.822  0.1977  0.3713  0.2330
17435SOL    HW154937   3.324   8.271   4.826  0.6642 -0.1731 -0.0669
17435SOL    HW254938   3.252   8.177   4.733 -0.7078  0.7121  0.0745
17436SOL     OW54939   1.337   4.353   9.314  0.0942  0.2225  0.1080
17436SOL    HW154940   1.283   4.385   9.241  0.7202  1.5887  0.2106
17436SOL    HW254941   1.418   4.403   9.307  1.2389 -1.5639  0.1516
17437SOL     OW54942   6.408   1.373   2.724  0.1833  0.2771  0.4061
17437SOL    HW154943   6.419   1.379   2.819 -1.9195  1.1643  0.6637
17437SOL    HW254944   6.344   1.442   2.703 -0.8971 -1.1507 -1.3595
17438SOL     OW54945   8.764  10.036   0.308  0.1542  0.5161 -0.2499
17438SOL    HW154946   8.773   9.950   0.267  0.5597  0.0475  0.7950
17438SOL    HW254947   8.846  10.081   0.287 -0.4382  1.0394 -1.6137
17439SOL     OW54948   9.812   1.681   6.154 -0.2553 -0.3042 -0.1804
17439SOL    HW154949   9.854   1.766   6.161 -0.7954  0.1021 -1.5271
17439SOL    HW254950   9.807   1.664   6.060 -0.5802 -1.6048  0.0500
17440SOL     OW54951   1.112   7.323   9.310  0.2544  0.4698 -0.3113
17440SOL    HW154952   1.177   7.329   9.239  0.5089 -2.6868 -0.4780
17440SOL    HW254953   1.143   7.251   9.365 -1.4419  1.0005  1.4297
17441SOL     OW54954   5.867   5.189   9.173  0.3777 -0.3546  0.3092
17441SOL    HW154955   5.933   5.257   9.182  0.6756 -0.5587 -0.2473
17441SOL    HW254956   5.912   5.118   9.126 -0.0405 -0.7685  0.5232
17442SOL     OW54957   3.666   5.171   9.637  0.0301 -0.2823 -0.6534
17442SOL    HW154958   3.675   5.076   9.646 -0.8943 -0.3361 -0.2108
17442SOL    HW254959   3.611   5.197   9.711 -0.0406  0.5492 -0.9887
17443SOL     OW54960   7.972   9.724   2.327 -0.4852 -0.4151  0.2467
17443SOL    HW154961   7.960   9.642   2.375  1.3494 -0.4827  0.6427
17443SOL    HW254962   8.009   9.785   2.391 -0.5875  0.3238 -0.3792
17444SOL     OW54963   1.760   2.724   0.240  0.1655  0.6141  0.5096
17444SOL    HW154964   1.698   2.652   0.250  1.2854 -0.5035 -0.2779
17444SOL    HW254965   1.707   2.798   0.210 -0.6291 -0.6236 -1.2517
17445SOL     OW54966   5.321   6.517   6.829  0.1775 -0.0792  0.1257
17445SOL    HW154967   5.271   6.436   6.835  0.1976 -0.0651  0.4558
17445SOL    HW254968   5.408   6.496   6.861  0.9743 -0.5853 -2.1869
17446SOL     OW54969   3.056   7.110   7.020 -0.1713 -0.1459 -0.0114
17446SOL    HW154970   2.990   7.054   6.978 -1.1507  1.7764 -1.2082
17446SOL    HW254971   3.009   7.150   7.093  0.5205 -0.8369  0.8336
17447SOL     OW54972   2.540   5.120   2.805  0.0321 -0.8693  0.4281
17447SOL    HW154973   2.452   5.153   2.789  0.7354  0.3556 -1.2310
17447SOL    HW254974   2.528   5.026   2.823 -1.6485 -0.5798  0.9639
17448SOL     OW54975   8.650   0.818   1.209 -0.1228 -0.5418 -0.3835
17448SOL    HW154976   8.570   0.820   1.261  0.9799 -0.0919  1.3860
17448SOL    HW254977   8.688   0.732   1.228  0.2556 -0.4053 -0.5234
17449SOL     OW54978   4.686   9.416   9.654 -0.3050 -0.4913  0.2698
17449SOL    HW154979   4.719   9.340   9.606  0.4257 -0.3683  0.5670
17449SOL    HW254980   4.665   9.480   9.587 -2.8027 -1.6337 -0.1504
17450SOL     OW54981   4.089   1.035   4.622  0.3092  0.0502 -0.1092
17450SOL    HW154982   4.008   1.064   4.580  0.6363  2.0273  0.5473
17450SOL    HW254983   4.145   1.008   4.549  0.3149  1.9822 -0.8720
17451SOL     OW54984   9.860   8.369   6.010  0.2596 -0.6558 -0.5754
17451SOL    HW154985   9.836   8.319   5.932 -1.5356  0.2007 -0.6171
17451SOL    HW254986   9.779   8.374   6.061  0.9387  0.3935  0.4435
17452SOL     OW54987  10.027   1.266   2.318 -1.0485  0.3023  0.7604
17452SOL    HW154988  10.036   1.356   2.350  0.3384 -0.5624  3.0419
17452SOL    HW254989  10.048   1.212   2.393 -1.6339 -1.9677 -0.6198
17453SOL     OW54990   0.619   5.694   7.687 -0.0035  1.1570  0.1963
17453SOL    HW154991   0.600   5.630   7.756  1.6901 -0.9322 -1.1639
17453SOL    HW254992   0.534   5.712   7.647 -0.4562 -0.7198  0.2416
17454SOL     OW54993  10.118   7.369   6.538  0.1925  0.3579  0.4579
17454SOL    HW154994  10.174   7.335   6.469 -0.3879  1.6887 -0.7014
17454SOL    HW254995  10.170   7.358   6.618  2.1815  1.6307 -0.5712
17455SOL     OW54996   6.783   3.063   0.088 -0.4644 -0.2225  0.1581
17455SOL    HW154997   6.750   3.125   0.153  0.5577 -0.4453  0.9139
17455SOL    HW254998   6.747   2.979   0.115 -0.9710 -0.1415 -0.2433
17456SOL     OW54999   5.030   5.277   0.768  0.0242  0.1433  0.0912
17456SOL    HW155000   5.054   5.361   0.807  1.6096 -0.1452 -0.2194
17456SOL    HW255001   5.108   5.224   0.776 -0.8569 -1.2075 -0.0286
17457SOL     OW55002   5.115   3.964   1.056  0.6345 -0.3326  0.6097
17457SOL    HW155003   5.177   4.006   1.116  1.5038 -0.0910 -0.4469
17457SOL    HW255004   5.164   3.949   0.976 -0.9611  0.8820 -0.6722
17458SOL     OW55005   3.642   6.226   9.449  0.2800 -0.0087  0.3634
17458SOL    HW155006   3.674   6.151   9.500  2.0758  1.0171  0.8347
17458SOL    HW255007   3.694   6.223   9.369  0.6561  0.9375  0.5597
17459SOL     OW55008   1.902   5.191   4.858  0.5085  0.5783  0.0320
17459SOL    HW155009   1.855   5.148   4.930  0.9992  0.5528  0.3422
17459SOL    HW255010   1.858   5.275   4.848 -0.9977 -0.2906 -1.1269
17460SOL     OW55011   4.848   8.270   2.268 -0.4981  0.0414  0.0343
17460SOL    HW155012   4.915   8.228   2.321 -1.6784 -0.9183  0.8128
17460SOL    HW255013   4.871   8.249   2.178  0.2589 -0.2356  0.2883
17461SOL     OW55014   0.584   8.175   1.372  0.3324  0.7290  0.4674
17461SOL    HW155015   0.536   8.255   1.348 -0.8254 -0.3157 -0.8262
17461SOL    HW255016   0.516   8.116   1.405  0.9049 -0.3258 -0.1933
17462SOL     OW55017   7.633   0.970   8.393  0.0101  0.3879 -0.0156
17462SOL    HW155018   7.716   0.947   8.436  0.2342 -1.0390 -1.1056
17462SOL    HW255019   7.581   1.012   8.461  1.8251  1.8614  0.5504
17463SOL     OW55020   5.531   2.448   4.136  0.0504  0.1473  0.0320
17463SOL    HW155021   5.504   2.474   4.224  1.5813 -1.4351  1.0209
17463SOL    HW255022   5.540   2.531   4.089 -0.3730  1.0520  1.4778
17464SOL     OW55023   8.202   0.820   8.647 -0.6002  0.3747  0.0122
17464SOL    HW155024   8.248   0.861   8.720 -0.4782  0.6417 -0.2116
17464SOL    HW255025   8.231   0.869   8.570  0.9356 -1.2467 -0.5133
17465SOL     OW55026   3.622   2.869   4.628 -0.8330  0.4297 -0.3769
17465SOL    HW155027   3.615   2.830   4.715  0.2109  1.3319  0.1425
17465SOL    HW255028   3.622   2.795   4.568  2.4019 -0.5541  0.6328
17466SOL     OW55029   0.535   5.773   1.046 -0.4504 -0.4141 -0.4959
17466SOL    HW155030   0.451   5.757   1.003 -0.4534  0.4550 -0.8382
17466SOL    HW255031   0.511   5.796   1.136 -0.6548  0.7327 -0.8287
17467SOL     OW55032   2.552   0.013   7.381  0.2972  0.7598 -0.2981
17467SOL    HW155033   2.495   0.043   7.310  0.9936 -0.1121 -1.2482
17467SOL    HW255034   2.507   0.042   7.461 -1.4230  0.2076 -1.0052
17468SOL     OW55035   3.519   3.914   8.201  0.4421 -0.1511  0.4152
17468SOL    HW155036   3.565   3.830   8.197  1.9209  0.6524 -0.3300
17468SOL    HW255037   3.439   3.900   8.150  1.4057 -0.7073 -1.0142
17469SOL     OW55038   2.955   5.835   3.891  0.1649 -0.2700 -0.3092
17469SOL    HW155039   2.960   5.739   3.893 -3.2025 -0.6717 -2.6300
17469SOL    HW255040   2.965   5.857   3.798 -0.3679  1.4974  0.0210
17470SOL     OW55041   4.731   5.968   5.830 -0.0632  0.9724 -0.1691
17470SOL    HW155042   4.718   5.957   5.925 -1.1675 -1.0230 -0.4979
17470SOL    HW255043   4.734   5.878   5.796 -0.6696  1.6597 -2.1461
17471SOL     OW55044   2.272   1.221   9.386 -0.1268  0.3707  0.0149
17471SOL    HW155045   2.366   1.210   9.375 -0.3395  0.1847 -2.1637
17471SOL    HW255046   2.247   1.282   9.315 -1.6241  0.4771  0.5929
17472SOL     OW55047   9.934   5.503   2.368 -0.5891  0.5671  0.3177
17472SOL    HW155048   9.962   5.417   2.400 -1.8620 -0.3187 -0.8166
17472SOL    HW255049   9.977   5.565   2.426  1.4645 -0.7633  0.3466
17473SOL     OW55050   3.420   0.307   4.673 -0.2560  0.0588 -0.4385
17473SOL    HW155051   3.402   0.246   4.745  0.1425 -2.1994 -2.1256
17473SOL    HW255052   3.514   0.324   4.678 -0.2906  0.1859 -0.2210
17474SOL     OW55053  10.173   7.480   1.198  0.1067  0.4730 -0.2015
17474SOL    HW155054  10.193   7.451   1.109 -1.2138  0.1037 -0.4028
17474SOL    HW255055  10.226   7.424   1.254 -0.1605 -0.3024 -0.7060
17475SOL     OW55056   2.086   6.331   2.243 -0.4701  0.1904  0.0789
17475SOL    HW155057   2.152   6.399   2.255 -0.1190 -0.5710  3.2719
17475SOL    HW255058   2.003   6.377   2.245 -0.1721  0.8717 -1.5006
17476SOL     OW55059   7.551   8.187   9.748 -0.2227  0.6781  0.2554
17476SOL    HW155060   7.551   8.282   9.755 -0.1124  0.6798  0.2276
17476SOL    HW255061   7.525   8.156   9.835 -0.8145  0.7480  0.1082
17477SOL     OW55062   1.131   4.975   1.130  0.4522  0.0446  0.1858
17477SOL    HW155063   1.212   4.990   1.082  0.7132  1.4211  0.9847
17477SOL    HW255064   1.065   5.025   1.082 -0.6573 -3.2950 -2.1320
17478SOL     OW55065   4.266   8.959   9.598  0.2022  0.1085  0.4740
17478SOL    HW155066   4.257   8.919   9.685 -1.0241  2.7438  1.6946
17478SOL    HW255067   4.178   8.952   9.560  0.2459  0.6314  0.2741
17479SOL     OW55068   0.006   9.448   8.442  0.0851 -0.0961 -0.0451
17479SOL    HW155069   0.006   9.477   8.351 -1.5299  0.7897  0.1838
17479SOL    HW255070  -0.078   9.402   8.453  0.9826 -1.6748  0.5851
17480SOL     OW55071   7.532   4.810   5.248  0.2156 -0.6879 -0.4552
17480SOL    HW155072   7.479   4.880   5.285 -0.7428 -1.9630  0.6557
17480SOL    HW255073   7.470   4.740   5.229  1.1162 -1.1768 -1.7608
17481SOL     OW55074   7.651   5.381   5.797  0.2519 -0.2557  0.2296
17481SOL    HW155075   7.646   5.449   5.729  2.6394 -0.5060 -0.3047
17481SOL    HW255076   7.690   5.425   5.872 -1.2387 -0.2865  1.0596
17482SOL     OW55077   5.585   7.410   5.046  0.5157 -0.7130 -0.0715
17482SOL    HW155078   5.559   7.399   5.138 -3.1171  1.3258 -0.6609
17482SOL    HW255079   5.540   7.340   5.000  0.7618 -0.5863 -0.5091
17483SOL     OW55080   6.585   5.039   8.733  0.0944 -0.1376 -0.3209
17483SOL    HW155081   6.622   4.977   8.669  1.3268  1.8997 -1.7223
17483SOL    HW255082   6.492   5.017   8.737  0.4528 -1.9190 -0.9160
17484SOL     OW55083   7.240   0.279   2.219  0.0548  0.7383  0.0208
17484SOL    HW155084   7.233   0.303   2.126 -2.5231 -0.7074 -0.2570
17484SOL    HW255085   7.163   0.320   2.259  0.9485  1.0425  1.4812
17485SOL     OW55086   0.928   8.166   2.633  0.3045 -0.3175 -0.4124
17485SOL    HW155087   0.846   8.167   2.583 -0.2607 -1.8468  0.3896
17485SOL    HW255088   0.901   8.148   2.723  1.5260 -0.9872 -0.1526
17486SOL     OW55089   6.746   8.882   1.182 -0.3444  0.6222  0.1230
17486SOL    HW155090   6.680   8.935   1.137  0.6760  0.5855 -1.4785
17486SOL    HW255091   6.829   8.924   1.162  0.1069  1.2569  2.9455
17487SOL     OW55092   5.876   7.927   0.181 -0.5522  0.3095  0.1565
17487SOL    HW155093   5.917   7.979   0.250 -0.8041  0.0996  0.4692
17487SOL    HW255094   5.893   7.836   0.207 -1.6856  0.2116  0.5859
17488SOL     OW55095   5.878   8.638   5.856  0.4549 -0.7746  0.4852
17488SOL    HW155096   5.817   8.704   5.824  0.5736 -0.0619  1.6576
17488SOL    HW255097   5.831   8.593   5.926  0.8171 -1.0974  0.5245
17489SOL     OW55098   1.184   3.625   1.568  0.0370 -0.0419 -0.7579
17489SOL    HW155099   1.193   3.670   1.652 -2.0344 -0.3013 -0.3326
17489SOL    HW255100   1.169   3.534   1.591 -2.8298  0.2134 -1.1963
17490SOL     OW55101  10.184   2.856   0.198 -0.1436 -0.2667  0.0470
17490SOL    HW155102  10.223   2.942   0.210  0.8635 -0.8492  1.2287
17490SOL    HW255103  10.178   2.844   0.104  0.9142  0.5662 -0.1384
17491SOL     OW55104   0.329   7.998   2.894  0.2651  0.1396  0.2302
17491SOL    HW155105   0.292   7.963   2.975 -0.7053  0.5990 -0.0048
17491SOL    HW255106   0.354   7.920   2.844 -2.3819 -0.3011 -0.5243
17492SOL     OW55107   7.130   4.610   2.815 -0.0531 -0.4024  0.0746
17492SOL    HW155108   7.135   4.635   2.907  0.0070  0.3324 -0.1274
17492SOL    HW255109   7.221   4.596   2.788 -0.1299 -1.9230  0.4629
17493SOL     OW55110   2.477   8.806   8.143  0.0632  0.1370  0.0392
17493SOL    HW155111   2.551   8.866   8.151 -0.1764  0.5789 -0.8906
17493SOL    HW255112   2.431   8.813   8.226  1.4138 -0.6219  0.8799
17494SOL     OW55113   6.372   2.059   4.863  0.4468  0.0461  0.2032
17494SOL    HW155114   6.363   1.988   4.927 -1.9633 -0.7822 -0.9291
17494SOL    HW255115   6.424   2.125   4.909  0.3130 -1.2248  2.3657
17495SOL     OW55116   3.989   6.936   0.303  0.2503  0.0110  0.0227
17495SOL    HW155117   3.944   7.011   0.264  0.1275  0.1180  0.3670
17495SOL    HW255118   3.923   6.896   0.359  0.1314 -0.7068 -0.6078
17496SOL     OW55119   7.892   1.201   7.690  0.3628  0.1246 -0.4833
17496SOL    HW155120   7.845   1.243   7.618  1.3810 -0.1934 -1.3549
17496SOL    HW255121   7.869   1.108   7.683 -2.4002  0.4989  1.8297
17497SOL     OW55122   9.195   8.058   3.107 -0.2399 -0.2597 -0.7338
17497SOL    HW155123   9.125   8.093   3.051 -0.4659  0.2149 -0.1611
17497SOL    HW255124   9.276   8.091   3.067 -0.2777 -1.3430 -1.7790
17498SOL     OW55125   9.068   2.837   9.130  0.2187  0.7274 -0.4609
17498SOL    HW155126   9.019   2.845   9.211 -1.3783  0.8243 -1.3872
17498SOL    HW255127   9.135   2.772   9.148  0.1429  1.0306  1.0302
17499SOL     OW55128   2.327   2.506   3.413 -0.1031  0.3837  0.0388
17499SOL    HW155129   2.360   2.516   3.502  2.4233 -0.9355 -0.6391
17499SOL    HW255130   2.279   2.423   3.415  0.2646  0.1694  0.1064
17500SOL     OW55131   2.174   5.472   4.997  0.4042  0.2015  0.2223
17500SOL    HW155132   2.101   5.515   5.043  1.0326  0.6839  0.7995
17500SOL    HW255133   2.164   5.379   5.019 -1.4625 -0.1528 -1.7218
17501SOL     OW55134   8.652   9.321   0.419 -0.4533  0.5086 -0.2112
17501SOL    HW155135   8.633   9.323   0.512  0.4458 -0.1329 -0.0015
17501SOL    HW255136   8.629   9.408   0.387  0.3044  1.1077  0.8329
17502SOL     OW55137   8.945   9.787   8.164  0.3546 -0.4291 -0.2154
17502SOL    HW155138   8.888   9.755   8.234  0.2853 -0.2326 -0.1825
17502SOL    HW255139   8.982   9.868   8.198  0.8081 -0.6561 -0.1561
17503SOL     OW55140   7.535   7.568   5.992  0.2963  0.0542 -0.2977
17503SOL    HW155141   7.594   7.637   5.961  0.5147 -0.1590 -0.3589
17503SOL    HW255142   7.577   7.487   5.964  1.8041 -0.3199  2.5629
17504SOL     OW55143   4.968   1.601   1.026 -0.0650 -0.4307  0.2298
17504SOL    HW155144   5.024   1.670   1.062 -1.1550  1.3822 -1.3784
17504SOL    HW255145   5.002   1.586   0.937  0.7842 -2.7783  0.8476
17505SOL     OW55146  10.140   6.640   7.683  0.0090 -0.1314 -0.1277
17505SOL    HW155147  10.118   6.729   7.656 -0.5441 -0.4206 -0.6395
17505SOL    HW255148  10.234   6.645   7.704  0.0172  0.5383 -0.2842
17506SOL     OW55149   6.112   2.575   7.509 -0.6078 -0.2670  0.3464
17506SOL    HW155150   6.087   2.484   7.524 -0.9554 -0.2013  0.1617
17506SOL    HW255151   6.202   2.570   7.477 -0.3352 -0.4976  1.1265
17507SOL     OW55152   6.814   9.431   7.997 -0.2978  0.2922  0.1198
17507SOL    HW155153   6.900   9.463   7.968 -0.6008  0.6868 -0.3516
17507SOL    HW255154   6.831   9.342   8.028  0.0204 -0.1805 -1.3514
17508SOL     OW55155   4.225   0.487   2.498 -0.0543 -0.5720 -0.0093
17508SOL    HW155156   4.246   0.395   2.514  3.1592 -0.1958 -1.2689
17508SOL    HW255157   4.309   0.532   2.505 -1.3718  2.1522 -0.3715
17509SOL     OW55158   4.603   7.695   6.949 -0.0866  0.2982 -0.0780
17509SOL    HW155159   4.518   7.732   6.973 -0.0488  0.5272 -0.2937
17509SOL    HW255160   4.665   7.737   7.009 -0.2502 -0.6204  0.7654
17510SOL     OW55161   0.701   2.136   9.472 -0.4714  0.1429 -0.2565
17510SOL    HW155162   0.699   2.223   9.431  0.7533  0.5905  0.5759
17510SOL    HW255163   0.618   2.096   9.447 -0.6672  1.2017 -1.4216
17511SOL     OW55164   6.926   6.190   9.187  0.6777 -0.1942 -0.0402
17511SOL    HW155165   6.927   6.096   9.166  0.9574 -0.0626 -0.6211
17511SOL    HW255166   6.850   6.224   9.140  0.3067 -0.2056  0.5363
17512SOL     OW55167   2.562   3.243   2.755  0.1773 -0.3449  0.3893
17512SOL    HW155168   2.553   3.215   2.664 -1.3570 -0.7181  0.6363
17512SOL    HW255169   2.530   3.334   2.755  0.4519 -0.2469  0.5045
17513SOL     OW55170   4.154   5.434   9.779 -1.0483  0.1897  0.3873
17513SOL    HW155171   4.095   5.509   9.771 -1.3203 -0.1943 -1.7903
17513SOL    HW255172   4.236   5.473   9.811 -1.2313  1.4227 -0.5425
17514SOL     OW55173   7.660   6.111   7.085  0.2754 -0.3504 -0.0109
17514SOL    HW155174   7.705   6.030   7.111 -0.9964 -0.9469  0.4565
17514SOL    HW255175   7.628   6.148   7.168  2.2622  1.5680 -0.0180
17515SOL     OW55176   7.469   3.125   4.788 -0.2560  0.7367  0.1595
17515SOL    HW155177   7.478   3.048   4.845 -1.3782  1.9032  2.0379
17515SOL    HW255178   7.528   3.190   4.828  1.0970  0.7440 -1.7172
17516SOL     OW55179   0.265  10.220   6.447 -0.2159  0.4265  0.3502
17516SOL    HW155180   0.246  10.289   6.511  0.1886  0.6413  0.2366
17516SOL    HW255181   0.310  10.264   6.376  1.8526 -0.2796  1.1656
17517SOL     OW55182   1.922   7.787   3.605  0.0629 -0.2107 -0.2074
17517SOL    HW155183   1.887   7.868   3.568 -1.3137 -0.3865  0.6358
17517SOL    HW255184   1.922   7.725   3.532  1.0183  0.4970 -0.8304
17518SOL     OW55185   7.609   6.481   7.232  0.3508  0.0631 -0.4247
17518SOL    HW155186   7.517   6.479   7.258  1.0882 -2.2412  2.5439
17518SOL    HW255187   7.607   6.497   7.138 -3.0485  0.4735 -0.3836
17519SOL     OW55188   1.328   6.445   9.937 -0.4690  0.5021  0.0103
17519SOL    HW155189   1.309   6.459  10.030  0.7305  0.9119  0.2150
17519SOL    HW255190   1.328   6.350   9.927 -0.3767  0.4487  0.4843
17520SOL     OW55191   6.733   6.407   0.661 -0.1024 -0.2838  0.2669
17520SOL    HW155192   6.706   6.323   0.697  0.1828 -0.0987  0.9251
17520SOL    HW255193   6.825   6.395   0.636 -0.1299 -0.2357  0.1387
17521SOL     OW55194   4.713  10.111   1.543  0.7553 -0.3212  0.3681
17521SOL    HW155195   4.626  10.138   1.513  0.6014  0.6609  1.6081
17521SOL    HW255196   4.717  10.017   1.524 -0.4586 -0.3163  0.0242
17522SOL     OW55197   5.195   5.017   5.722  0.0496  0.2854 -0.2730
17522SOL    HW155198   5.186   4.930   5.683 -0.3644  0.2241 -0.0482
17522SOL    HW255199   5.106   5.040   5.750  0.1470  0.7999 -0.3685
17523SOL     OW55200   4.185   0.533   1.001 -0.1565  0.3614  0.1307
17523SOL    HW155201   4.226   0.460   1.047  0.3889  0.2423 -0.5314
17523SOL    HW255202   4.105   0.497   0.963 -0.0098  0.1658  0.0071
17524SOL     OW55203   5.705   2.220   7.605  0.0936 -0.9071  0.0885
17524SOL    HW155204   5.731   2.129   7.612  0.7649 -0.6241  1.8332
17524SOL    HW255205   5.727   2.258   7.691 -0.0191  0.9252 -0.6468
17525SOL     OW55206   5.167   6.426   8.519  0.2483 -0.4351  0.2039
17525SOL    HW155207   5.248   6.391   8.557 -0.4411 -0.5076  1.6761
17525SOL    HW255208   5.117   6.457   8.594 -0.9682 -0.1201 -0.7106
17526SOL     OW55209   4.696   4.897   8.177  0.0666  0.2373 -0.3317
17526SOL    HW155210   4.607   4.916   8.147  0.0089 -0.1676 -0.4241
17526SOL    HW255211   4.752   4.923   8.103 -0.0879 -0.8955 -0.8630
17527SOL     OW55212   9.312   5.505   6.920 -0.2988 -0.4749  0.1373
17527SOL    HW155213   9.362   5.507   6.838 -2.2605 -1.2574 -1.1505
17527SOL    HW255214   9.228   5.546   6.898 -0.7096 -0.2666  1.9062
17528SOL     OW55215   0.047   5.974   6.103 -0.4670 -0.0268 -0.0188
17528SOL    HW155216  -0.008   6.043   6.065  1.5780  0.9241 -1.4665
17528SOL    HW255217   0.069   5.918   6.029 -0.1433 -0.8642  0.6929
17529SOL     OW55218   4.206   7.231   6.737 -0.5081  0.0890 -0.6001
17529SOL    HW155219   4.229   7.313   6.695  1.0806  1.0043  1.8022
17529SOL    HW255220   4.288   7.180   6.737  0.6280  1.4189  3.8625
17530SOL     OW55221   1.672   6.494  10.093 -0.2505 -0.3692  0.7657
17530SOL    HW155222   1.600   6.447  10.135 -0.8986  0.1353  0.2332
17530SOL    HW255223   1.697   6.561  10.156 -1.2264  0.3894  0.3610
17531SOL     OW55224   6.271   2.728   9.303 -0.4996 -0.1914  0.0903
17531SOL    HW155225   6.221   2.715   9.384  0.3093  0.4427  0.7202
17531SOL    HW255226   6.214   2.781   9.248 -1.9125 -2.3395 -0.6254
17532SOL     OW55227   2.634   2.752   1.949  0.4058  0.0831 -0.2597
17532SOL    HW155228   2.539   2.750   1.947  0.3842 -0.8198 -3.4055
17532SOL    HW255229   2.655   2.826   2.006 -2.1230 -0.1070  1.0469
17533SOL     OW55230  10.300   7.108   9.263  0.4633  0.1987  0.5667
17533SOL    HW155231  10.274   7.110   9.355 -2.3034 -1.1926 -0.0694
17533SOL    HW255232  10.273   7.021   9.232  1.0086  0.7477 -1.6341
17534SOL     OW55233   5.710   2.889   4.287  0.5393  0.6123 -0.7541
17534SOL    HW155234   5.769   2.959   4.256  0.7486  1.3609  1.1969
17534SOL    HW255235   5.769   2.820   4.317  0.4372  0.9799  0.3412
17535SOL     OW55236   8.250  10.284   7.773  0.0561 -0.1035 -0.1312
17535SOL    HW155237   8.230  10.222   7.703  3.6927  0.1022 -1.5472
17535SOL    HW255238   8.300  10.233   7.837 -0.5397  0.4462  0.7985
17536SOL     OW55239   2.903   8.078   6.851 -0.3983 -0.1972  0.2055
17536SOL    HW155240   2.931   8.036   6.769  3.3930  2.1091  0.0915
17536SOL    HW255241   2.821   8.122   6.828 -0.1289 -0.7051 -1.9879
17537SOL     OW55242   2.499   4.008   6.905  0.6493 -0.1555  0.1268
17537SOL    HW155243   2.404   3.999   6.902  0.6410 -1.6458  2.3817
17537SOL    HW255244   2.520   4.065   6.831 -1.8238 -1.0221 -1.3683
17538SOL     OW55245   2.101   4.446   8.837 -0.0350 -0.4045  0.2417
17538SOL    HW155246   2.145   4.526   8.866  1.0006 -0.5486 -0.8564
17538SOL    HW255247   2.020   4.477   8.796  0.3088  0.0751 -0.0814
17539SOL     OW55248   4.530   7.022   3.413  0.0368 -0.0869  0.3175
17539SOL    HW155249   4.604   6.965   3.435  0.6474  1.1284  1.5673
17539SOL    HW255250   4.456   6.985   3.462 -0.0997 -1.0125 -0.5449
17540SOL     OW55251   6.694   9.175   6.836 -0.3457 -0.2993  0.0151
17540SOL    HW155252   6.621   9.157   6.895 -1.4725 -0.1776 -1.2949
17540SOL    HW255253   6.683   9.113   6.763  0.1115  0.5609 -0.8147
17541SOL     OW55254   4.491   6.638   2.766  0.4524 -0.1021  0.3369
17541SOL    HW155255   4.406   6.674   2.792  1.1368  2.4569 -0.6817
17541SOL    HW255256   4.490   6.640   2.671  1.9559  0.8405  0.3075
17542SOL     OW55257   5.310   1.650   1.730 -0.0314  0.3383  0.1631
17542SOL    HW155258   5.243   1.711   1.761  0.3618  1.2332 -0.6847
17542SOL    HW255259   5.393   1.688   1.759  0.2477  0.4455 -0.7535
17543SOL     OW55260   2.949   4.361   2.177  0.0836 -0.6905 -0.7717
17543SOL    HW155261   2.894   4.425   2.221  0.0557 -1.4242  0.3073
17543SOL    HW255262   3.035   4.403   2.171  0.1685 -0.6880  0.2863
17544SOL     OW55263   8.427   0.671   4.956 -0.0446 -0.4138 -0.6509
17544SOL    HW155264   8.431   0.576   4.967 -0.0383 -0.1171  3.2474
17544SOL    HW255265   8.493   0.705   5.017 -1.0645  2.1358 -0.8325
17545SOL     OW55266   2.243   7.216   4.912 -0.0670 -0.0423 -0.4921
17545SOL    HW155267   2.249   7.128   4.874 -2.2301  0.1616 -1.4333
17545SOL    HW255268   2.279   7.205   5.001  1.4321 -1.4164 -1.2148
17546SOL     OW55269   3.265   9.523   8.640  0.1214 -0.4751 -0.5088
17546SOL    HW155270   3.347   9.569   8.621 -0.7824  1.4261 -0.1081
17546SOL    HW255271   3.289   9.431   8.643  2.0067 -0.0754 -1.6094
17547SOL     OW55272   7.939   6.188   7.972  0.5156  0.3920  0.2368
17547SOL    HW155273   7.855   6.230   7.989  0.2081 -0.1332  0.0358
17547SOL    HW255274   7.918   6.112   7.919  0.9185 -0.6947  1.5656
17548SOL     OW55275  10.138  10.143   0.168 -0.1695 -0.0511 -0.9195
17548SOL    HW155276  10.051  10.105   0.176 -0.6855  0.9789 -1.4640
17548SOL    HW255277  10.139  10.184   0.081  1.0894 -0.6281 -1.1991
17549SOL     OW55278   5.512   5.259   1.238 -0.1736 -0.4482  0.3886
17549SOL    HW155279   5.599   5.296   1.250 -0.9824  1.5799  0.4118
17549SOL    HW255280   5.487   5.285   1.149 -0.8063 -0.8932  0.4270
17550SOL     OW55281   7.834   8.602   6.429  0.5403  0.0629 -0.5312
17550SOL    HW155282   7.760   8.644   6.385  0.7011  0.3965 -0.4910
17550SOL    HW255283   7.878   8.674   6.474  1.7918  0.1540 -1.8299
17551SOL     OW55284   5.778   2.495   7.663 -0.0343 -0.9449 -0.1471
17551SOL    HW155285   5.824   2.451   7.591 -0.2401 -0.1879 -0.7621
17551SOL    HW255286   5.688   2.504   7.631 -0.2907 -1.2232  0.4961
17552SOL     OW55287   3.206   3.267   0.675  0.0041  0.2706 -0.0509
17552SOL    HW155288   3.299   3.255   0.695 -0.3782 -0.0818  1.7313
17552SOL    HW255289   3.164   3.271   0.761 -1.5874  0.8325 -0.8217
17553SOL     OW55290   3.886   2.220   5.383 -0.4170 -0.2077  0.6828
17553SOL    HW155291   3.908   2.262   5.300 -0.7254  0.7646  1.0712
17553SOL    HW255292   3.970   2.203   5.424 -0.2118 -1.7632 -0.3152
17554SOL     OW55293   3.709   4.780   6.237 -0.0611 -0.3538  0.2536
17554SOL    HW155294   3.739   4.736   6.157  0.7827  0.3635  0.1473
17554SOL    HW255295   3.760   4.861   6.239  0.8104 -0.8907  2.1385
17555SOL     OW55296   3.791   6.058   3.321 -0.2697  0.2032  0.3585
17555SOL    HW155297   3.864   6.118   3.306  0.3323 -0.1672  1.6616
17555SOL    HW255298   3.820   6.003   3.394 -0.9843 -1.3970 -0.5141
17556SOL     OW55299   1.458   9.221   3.992 -0.3711  0.3977  0.1935
17556SOL    HW155300   1.511   9.184   4.063 -0.0133  0.2548 -0.1407
17556SOL    HW255301   1.520   9.232   3.920 -0.4073  1.9046  0.3634
17557SOL     OW55302   8.137   7.350   6.793  0.1988  0.1752 -0.2314
17557SOL    HW155303   8.156   7.256   6.797 -1.6543 -0.3524 -2.0490
17557SOL    HW255304   8.042   7.355   6.782  0.0680  2.3554  1.2621
17558SOL     OW55305   6.582   5.100   4.331 -0.1121  0.3742 -0.4314
17558SOL    HW155306   6.634   5.136   4.259  1.2642  0.7042  0.6805
17558SOL    HW255307   6.593   5.006   4.324 -0.7909  0.3390 -1.2115
17559SOL     OW55308   6.757   5.831   1.665 -0.4136  0.9087  0.9864
17559SOL    HW155309   6.665   5.853   1.677 -0.3148  1.6856  0.3476
17559SOL    HW255310   6.758   5.736   1.652 -1.2073  1.0079  0.1641
17560SOL     OW55311   4.664   2.368   2.291  0.0503  0.2636  0.2314
17560SOL    HW155312   4.737   2.359   2.353  0.7125 -1.3664 -0.7195
17560SOL    HW255313   4.591   2.323   2.332 -0.1531  1.0710  0.7675
17561SOL     OW55314   7.940   8.401   7.615 -0.0233  0.0006 -0.4984
17561SOL    HW155315   7.958   8.361   7.531 -0.0689  0.6464 -0.8203
17561SOL    HW255316   7.873   8.467   7.597 -1.6421 -1.3219  0.4115
17562SOL     OW55317   3.816   1.610   7.580 -0.2829 -0.3980  0.3325
17562SOL    HW155318   3.805   1.693   7.627  1.8965 -0.1535  0.5544
17562SOL    HW255319   3.734   1.597   7.533 -1.2753  1.0625  1.5674
17563SOL     OW55320   1.595   6.067   8.935 -0.1151 -0.4439  0.1512
17563SOL    HW155321   1.654   6.043   9.007  0.5313  1.8711  0.4873
17563SOL    HW255322   1.540   6.135   8.972 -0.6459 -0.1167 -1.1908
17564SOL     OW55323   4.734   0.063   4.591  0.3438  0.4152 -0.3039
17564SOL    HW155324   4.769  -0.007   4.535  3.1736  1.0797  0.4728
17564SOL    HW255325   4.807   0.087   4.648 -1.8261  1.0966  2.4145
17565SOL     OW55326   9.522   9.567   1.478 -0.0487 -0.1943 -0.5400
17565SOL    HW155327   9.512   9.475   1.503 -3.3651 -0.0680 -0.9565
17565SOL    HW255328   9.500   9.569   1.385 -0.1702  1.0110 -0.5029
17566SOL     OW55329   3.459   3.474   2.031  0.1625  0.2785 -0.1498
17566SOL    HW155330   3.485   3.383   2.048  1.7124  0.9802  1.7644
17566SOL    HW255331   3.513   3.501   1.957  2.2905  0.5563  1.3885
17567SOL     OW55332   1.715   8.189   7.483 -0.1221 -0.7092  0.1831
17567SOL    HW155333   1.794   8.241   7.492 -0.4536  0.1280 -1.4325
17567SOL    HW255334   1.673   8.194   7.570 -0.1982  1.8381  0.0860
17568SOL     OW55335   9.712   3.244   8.120  0.2363  0.1927  0.0018
17568SOL    HW155336   9.642   3.179   8.129  0.1342  0.2225 -0.5791
17568SOL    HW255337   9.781   3.199   8.071 -0.4982  1.0185 -1.8827
17569SOL     OW55338   8.603   3.498   9.652  0.0262  0.2804 -0.0301
17569SOL    HW155339   8.526   3.523   9.703  0.5692 -1.6306  1.8916
17569SOL    HW255340   8.584   3.527   9.563 -2.5681  0.5448  0.5338
17570SOL     OW55341   6.792   7.217   4.991  0.1186 -0.0807  0.0069
17570SOL    HW155342   6.837   7.174   5.063 -1.4074  0.3995  1.2934
17570SOL    HW255343   6.823   7.307   4.993 -0.4896  0.1225  0.5687
17571SOL     OW55344   6.083   4.843   8.487 -0.2735  1.0447  0.0551
17571SOL    HW155345   6.030   4.777   8.442  0.7989  0.2270 -0.0502
17571SOL    HW255346   6.064   4.828   8.580  0.0951  0.4597  0.0419
17572SOL     OW55347   8.454   5.548   4.567 -0.0944 -0.5382  0.2643
17572SOL    HW155348   8.549   5.559   4.568 -0.0765 -0.5982 -0.1946
17572SOL    HW255349   8.435   5.517   4.478 -0.6845  0.7211 -0.0629
17573SOL     OW55350   2.402   3.759   9.810 -0.1405 -0.1130 -0.2445
17573SOL    HW155351   2.367   3.671   9.806  0.0595 -0.1579 -1.1671
17573SOL    HW255352   2.333   3.811   9.851 -0.0325 -0.7939  0.8472
17574SOL     OW55353  10.239   9.993   4.072  0.2093  0.0900 -0.0441
17574SOL    HW155354  10.157   9.946   4.090  1.3001 -1.9921 -0.2771
17574SOL    HW255355  10.234  10.015   3.979  0.3599 -1.0334 -0.3380
17575SOL     OW55356   5.825   6.606   2.964  0.3202 -0.4197 -0.0317
17575SOL    HW155357   5.747   6.551   2.966  0.5818 -0.8119  1.8480
17575SOL    HW255358   5.804   6.677   2.904 -0.6405 -1.6836 -1.2348
17576SOL     OW55359   6.677   4.874   0.867 -0.0706 -0.2186  0.2936
17576SOL    HW155360   6.633   4.955   0.845  1.1928  0.2842 -0.4712
17576SOL    HW255361   6.725   4.850   0.788  1.3140 -0.5377  1.1865
17577SOL     OW55362   7.911   8.117   9.028  0.3638 -0.6016  0.1182
17577SOL    HW155363   7.908   8.180   8.955 -1.2941  0.9374  1.4318
17577SOL    HW255364   7.844   8.052   9.006  0.6723 -0.7894 -0.2752
17578SOL     OW55365   1.769   1.488   6.566  0.1054 -0.1098 -0.0747
17578SOL    HW155366   1.787   1.581   6.573  0.3322 -0.2452  1.5064
17578SOL    HW255367   1.770   1.470   6.472  1.4503  1.1904 -0.3334
17579SOL     OW55368   4.849   2.307   4.774  0.0585 -0.0568  0.2847
17579SOL    HW155369   4.807   2.320   4.689  0.2741  1.7475  0.4130
17579SOL    HW255370   4.782   2.330   4.838  0.4615  0.3736  0.5552
17580SOL     OW55371   1.420   8.394   9.947  0.4696 -0.0349  0.6334
17580SOL    HW155372   1.515   8.408   9.955  0.4118  0.2365  0.8588
17580SOL    HW255373   1.401   8.412   9.855  0.3451  1.7607  0.9711
17581SOL     OW55374   3.528   9.713   0.238  0.1591  0.4641  0.3192
17581SOL    HW155375   3.475   9.752   0.169 -0.4185  3.0941  2.1246
17581SOL    HW255376   3.602   9.772   0.249  0.3629 -0.0120  1.7807
17582SOL     OW55377   7.658   8.963   8.475 -0.3543  0.6570 -0.0745
17582SOL    HW155378   7.600   8.902   8.520  0.0156  0.4000  0.0622
17582SOL    HW255379   7.721   8.906   8.431 -0.9406  0.8869 -1.2430
17583SOL     OW55380   5.610   2.156   5.637  0.2039 -0.6590 -0.1637
17583SOL    HW155381   5.542   2.139   5.702 -0.0830 -1.3774 -0.6388
17583SOL    HW255382   5.565   2.150   5.553  0.9640 -1.6939 -0.5078
17584SOL     OW55383   2.877   8.144   1.038 -0.2834 -0.2882  0.0355
17584SOL    HW155384   2.933   8.067   1.048  1.7529  1.0339 -0.4589
17584SOL    HW255385   2.914   8.208   1.100 -1.3529  0.6001 -0.2203
17585SOL     OW55386   3.687   5.493   1.070 -0.1810 -0.1060 -1.0014
17585SOL    HW155387   3.708   5.572   1.121 -0.0069 -1.1988  0.6973
17585SOL    HW255388   3.626   5.524   1.003 -2.4863  1.0206  1.4346
17586SOL     OW55389   1.255   4.917   7.718 -0.0591 -0.1988 -0.6746
17586SOL    HW155390   1.280   4.981   7.652  1.6650  0.6809  0.7410
17586SOL    HW255391   1.334   4.865   7.732 -0.0063  0.3275  1.3889
17587SOL     OW55392   7.693   6.658   0.411  0.2978 -0.3676  0.5057
17587SOL    HW155393   7.699   6.708   0.492 -1.0874 -0.7783  0.8971
17587SOL    HW255394   7.639   6.582   0.434 -0.8099 -0.0697 -0.9698
17588SOL     OW55395   0.020   5.986   0.490 -0.0277 -0.5400  0.3647
17588SOL    HW155396   0.008   6.023   0.577 -0.7921  0.2409 -0.0679
17588SOL    HW255397   0.052   6.059   0.436 -1.0552 -0.6163 -0.3762
17589SOL     OW55398   1.475   5.783   6.673  0.4376 -0.1826 -0.1291
17589SOL    HW155399   1.536   5.812   6.741  0.5188  0.2798 -0.3959
17589SOL    HW255400   1.401   5.748   6.721  0.5431  0.0409  0.2016
17590SOL     OW55401   1.886   7.822   2.765 -0.6635  0.5605  0.1076
17590SOL    HW155402   1.893   7.914   2.741  0.4198 -0.1145 -2.4302
17590SOL    HW255403   1.976   7.792   2.772 -0.9860 -0.7685 -1.0854
17591SOL     OW55404   3.771   7.734   2.339  0.2596  0.3516  0.4708
17591SOL    HW155405   3.856   7.745   2.297 -0.4319  1.8015 -0.6651
17591SOL    HW255406   3.737   7.652   2.304  0.7771  0.2686  0.1606
17592SOL     OW55407   0.253   2.447   9.932 -0.6809  0.0262 -0.5294
17592SOL    HW155408   0.293   2.475   9.850 -1.9711  0.5463 -0.9926
17592SOL    HW255409   0.328   2.420   9.986  0.3171  1.1540 -1.2889
17593SOL     OW55410   7.153   7.860   3.237  0.0349  0.1268 -0.0707
17593SOL    HW155411   7.233   7.879   3.187  0.7611 -2.2295  0.0756
17593SOL    HW255412   7.098   7.811   3.176  0.3079 -1.5036  0.9400
17594SOL     OW55413   1.510   2.406   5.195  0.0434 -0.7486 -0.2289
17594SOL    HW155414   1.514   2.501   5.194  0.1853 -0.7539 -1.2947
17594SOL    HW255415   1.555   2.380   5.276  0.0829  0.0735  0.0190
17595SOL     OW55416   1.217   1.014   4.542 -0.3036  0.2044  0.6068
17595SOL    HW155417   1.205   0.920   4.527  0.1632  0.2228  0.0681
17595SOL    HW255418   1.130   1.052   4.527  0.0038  0.1654 -1.7980
17596SOL     OW55419   4.633   6.338   1.387 -0.0500  0.2689  0.6831
17596SOL    HW155420   4.631   6.411   1.448  1.2116  0.3695  0.6475
17596SOL    HW255421   4.625   6.260   1.442 -0.6799  0.4090  0.7929
17597SOL     OW55422   7.187   1.233   1.967  0.2924  0.2815  0.1628
17597SOL    HW155423   7.132   1.250   1.890  0.1230  0.4765  0.3236
17597SOL    HW255424   7.189   1.317   2.014 -1.0314 -0.2700  1.2779
17598SOL     OW55425   3.735   6.908   9.973 -0.0749  0.9529 -0.2415
17598SOL    HW155426   3.781   6.989   9.952 -0.6507  1.3599  0.0502
17598SOL    HW255427   3.805   6.844   9.989  0.3914  0.8910 -2.3227
17599SOL     OW55428   3.127   4.555  10.261  0.2488 -0.0017  0.4014
17599SOL    HW155429   3.063   4.573  10.192  1.1657 -0.1164 -0.5029
17599SOL    HW255430   3.190   4.496  10.221 -0.0433 -1.3499  1.8428
17600SOL     OW55431   1.128   4.980   3.974  0.4957  0.0535 -0.3213
17600SOL    HW155432   1.078   5.047   3.928 -1.7209 -0.2251  1.5179
17600SOL    HW255433   1.100   4.898   3.935 -0.7692 -0.1208  0.8678
17601SOL     OW55434   2.639   5.761   9.115  0.2913 -0.4344  0.7492
17601SOL    HW155435   2.610   5.673   9.140  1.5569 -1.4005 -0.9593
17601SOL    HW255436   2.569   5.796   9.061 -0.0762 -0.5213  1.1660
17602SOL     OW55437   7.845   2.252   6.062  0.4292 -0.0452  0.0631
17602SOL    HW155438   7.886   2.330   6.100 -0.3584  0.1000  0.6518
17602SOL    HW255439   7.856   2.263   5.968  0.0260  0.9707  0.1113
17603SOL     OW55440   3.247   8.506   4.933 -0.4810  1.1197  0.3563
17603SOL    HW155441   3.223   8.436   4.994  0.4823 -0.4496 -0.9868
17603SOL    HW255442   3.304   8.563   4.983 -0.7654  0.5947  1.3080
17604SOL     OW55443   1.584   1.536   0.706 -0.1723  0.3378 -0.5377
17604SOL    HW155444   1.513   1.574   0.758  0.6056  0.5119  0.4214
17604SOL    HW255445   1.596   1.448   0.742  2.0179  1.2946  1.3405
17605SOL     OW55446   7.623   3.483   3.604 -0.1466 -0.0960 -0.5391
17605SOL    HW155447   7.710   3.465   3.641  0.1271  0.6688 -0.7905
17605SOL    HW255448   7.586   3.397   3.588  0.5255 -0.4345 -0.3222
17606SOL     OW55449   7.184   1.191   7.651 -0.9534 -0.0331  0.4901
17606SOL    HW155450   7.090   1.185   7.665 -0.9305  1.2036  1.3448
17606SOL    HW255451   7.207   1.111   7.604 -2.3454 -0.5726  0.6975
17607SOL     OW55452   1.531   5.494   5.522  0.2015 -0.3121  0.6158
17607SOL    HW155453   1.548   5.401   5.510 -0.0170 -0.3340  0.4672
17607SOL    HW255454   1.497   5.501   5.611 -2.6381 -0.8003 -0.3193
17608SOL     OW55455   2.514   5.658   8.457 -0.3749 -0.6370 -0.1197
17608SOL    HW155456   2.477   5.594   8.517  1.1621 -0.1647  1.4253
17608SOL    HW255457   2.522   5.611   8.373 -0.0454 -2.2228  0.7577
17609SOL     OW55458   8.652   5.086   7.699  0.2799 -0.1526 -0.3920
17609SOL    HW155459   8.683   5.004   7.661  0.8362  0.2696 -0.8725
17609SOL    HW255460   8.680   5.153   7.636 -0.8534  0.3256 -0.3992
17610SOL     OW55461   0.317   4.622   2.389  0.5551  0.4363  0.2768
17610SOL    HW155462   0.340   4.539   2.433  0.8096 -1.7937 -3.6113
17610SOL    HW255463   0.399   4.670   2.384  1.0561 -0.4256  0.0356
17611SOL     OW55464   8.201   2.943   3.843 -0.4002  0.4991  0.4359
17611SOL    HW155465   8.240   2.879   3.783 -1.0312  1.1589 -0.7053
17611SOL    HW255466   8.187   3.021   3.789 -1.0445  1.0880  1.4304
17612SOL     OW55467   1.186  10.087   0.340 -0.5748  0.0374  0.1673
17612SOL    HW155468   1.217  10.063   0.427 -0.7105 -1.5708 -0.1976
17612SOL    HW255469   1.175  10.003   0.294 -1.0591  0.8174 -1.2060
17613SOL     OW55470   5.486   7.983   3.895 -0.0490  0.7687  0.0783
17613SOL    HW155471   5.542   7.917   3.936  0.0522  1.1673  0.5935
17613SOL    HW255472   5.397   7.949   3.908 -0.0286  0.9445  0.7503
17614SOL     OW55473   8.379   8.462   2.743  0.5304 -0.2801  0.5363
17614SOL    HW155474   8.339   8.489   2.826  0.4373  0.2835  0.3149
17614SOL    HW255475   8.321   8.499   2.676  0.5658 -0.7917  0.2182
17615SOL     OW55476   0.957   9.293   0.257  0.5606  0.1655  0.3639
17615SOL    HW155477   0.971   9.212   0.305 -1.5663 -0.1391  0.5915
17615SOL    HW255478   0.891   9.340   0.307  0.8058  1.4418 -0.4535
17616SOL     OW55479   2.591   1.998   6.944 -0.5052 -0.4245  0.1054
17616SOL    HW155480   2.546   1.950   7.013 -0.6241  0.3863  0.6072
17616SOL    HW255481   2.522   2.021   6.882 -0.4564 -0.8529 -0.1106
17617SOL     OW55482   8.902   3.118   5.047 -0.2789 -0.2180  0.2109
17617SOL    HW155483   8.839   3.128   4.976 -0.4952  1.3720  0.5867
17617SOL    HW255484   8.907   3.024   5.062 -0.7920 -0.5325 -1.3980
17618SOL     OW55485   9.190   8.395   5.849  0.2881  0.0781 -0.6712
17618SOL    HW155486   9.097   8.407   5.869  0.7084  0.9790  1.0084
17618SOL    HW255487   9.216   8.478   5.810  0.7557  0.5570  0.5868
17619SOL     OW55488   6.830   3.521   4.562 -0.0924 -0.5697  0.3809
17619SOL    HW155489   6.802   3.546   4.651  2.4464  1.6162  0.6833
17619SOL    HW255490   6.808   3.597   4.508  1.1895 -0.5919 -0.2078
17620SOL     OW55491   5.481   9.703   2.459  0.1379 -0.9186  0.4614
17620SOL    HW155492   5.415   9.639   2.485 -2.3857  0.8108 -1.2159
17620SOL    HW255493   5.484   9.765   2.532 -0.4372 -0.7749  0.3700
17621SOL     OW55494   1.742   8.875   0.500 -0.4661  0.4671  0.1928
17621SOL    HW155495   1.757   8.796   0.551 -0.8326 -0.5420 -1.1907
17621SOL    HW255496   1.712   8.940   0.563 -2.3432 -1.1418  1.0593
17622SOL     OW55497   6.762   2.343   3.786  0.5904  0.2796  0.1199
17622SOL    HW155498   6.784   2.423   3.739  0.0385  0.6468  0.4815
17622SOL    HW255499   6.674   2.321   3.756  1.6122 -1.5402 -1.8182
17623SOL     OW55500   3.343   1.768   0.737 -0.2425 -0.4843 -0.0448
17623SOL    HW155501   3.296   1.711   0.675 -0.9040  0.6515 -0.6260
17623SOL    HW255502   3.326   1.857   0.705 -0.4656  0.1278  1.6854
17624SOL     OW55503   6.346   4.890   1.124 -0.0788  0.7493  0.1595
17624SOL    HW155504   6.439   4.912   1.134  0.2700 -0.2156 -0.7723
17624SOL    HW255505   6.301   4.951   1.182  1.2457  0.0348  2.0373
17625SOL     OW55506   7.495   3.884   3.368 -0.0585 -0.6424  0.0672
17625SOL    HW155507   7.472   3.939   3.443  1.1785 -0.6277  0.4679
17625SOL    HW255508   7.413   3.873   3.320 -0.2424  2.1899 -0.4666
17626SOL     OW55509   0.026   2.315   6.836  0.3268 -0.0911 -0.6480
17626SOL    HW155510  -0.034   2.286   6.768  0.3845 -1.9725  0.0381
17626SOL    HW255511   0.037   2.409   6.821 -0.5036 -0.2671 -2.5354
17627SOL     OW55512   7.744   1.220   8.640  0.0431  0.4400 -0.2586
17627SOL    HW155513   7.816   1.253   8.587 -0.2463 -0.7429 -1.4462
17627SOL    HW255514   7.752   1.125   8.635 -1.0643  0.2924  0.3390
17628SOL     OW55515   2.271   9.853   6.712  0.3745 -0.5468 -0.3450
17628SOL    HW155516   2.237   9.937   6.743  2.0445 -0.1317  0.4587
17628SOL    HW255517   2.286   9.802   6.791 -1.4685 -1.9992 -0.8614
17629SOL     OW55518   1.736   9.487   6.151  0.4779 -0.3581  0.0381
17629SOL    HW155519   1.717   9.542   6.075  0.2787 -1.0932 -0.4562
17629SOL    HW255520   1.660   9.499   6.208  0.8034  0.4917  0.2958
17630SOL     OW55521   8.710   0.008   5.349 -0.2191 -0.0933  0.3157
17630SOL    HW155522   8.768   0.082   5.368 -1.2985  0.8696 -0.0307
17630SOL    HW255523   8.712   0.001   5.254 -0.2662 -0.4092  0.3378
17631SOL     OW55524   4.804   3.363   0.150  0.0324  0.4326 -0.0437
17631SOL    HW155525   4.841   3.420   0.218  3.2525  1.2912 -2.2830
17631SOL    HW255526   4.855   3.282   0.156  0.1240  0.3909 -1.1881
17632SOL     OW55527   0.209   3.285   1.542 -0.8651 -0.1065 -0.2766
17632SOL    HW155528   0.254   3.295   1.626  0.7946 -1.5034 -0.9249
17632SOL    HW255529   0.148   3.213   1.557 -0.5988 -0.3294 -0.2330
17633SOL     OW55530   5.182   7.531   4.938  0.2297 -0.0480 -0.1775
17633SOL    HW155531   5.098   7.549   4.981  0.1452 -0.0562 -0.3402
17633SOL    HW255532   5.206   7.444   4.968  0.8135  0.4547  0.8961
17634SOL     OW55533   6.478   7.364   1.778  0.1181  0.0931 -0.2204
17634SOL    HW155534   6.400   7.346   1.831 -2.1373  0.7097 -3.0487
17634SOL    HW255535   6.532   7.286   1.787 -1.3814 -0.8591  0.9635
17635SOL     OW55536   6.467   8.944   4.853 -0.2034  0.4226 -0.1031
17635SOL    HW155537   6.435   8.928   4.942  0.9924 -1.7993  0.0093
17635SOL    HW255538   6.393   8.920   4.797  0.9052 -4.8269  0.1405
17636SOL     OW55539   7.356   5.546  10.049  0.2692  0.2464 -0.1438
17636SOL    HW155540   7.408   5.607   9.997  1.4180 -0.5734  0.0130
17636SOL    HW255541   7.333   5.476   9.989  0.9654 -0.3298  0.2441
17637SOL     OW55542   8.476   1.792   6.643  0.1808  0.4480  0.0128
17637SOL    HW155543   8.515   1.797   6.557  0.6256 -0.5909  0.1384
17637SOL    HW255544   8.420   1.870   6.649  0.7401  0.9338 -0.8989
17638SOL     OW55545   2.003  10.205   3.228 -0.5404 -0.3496 -0.3438
17638SOL    HW155546   1.986  10.176   3.317 -1.2693  1.1462  0.0443
17638SOL    HW255547   2.090  10.171   3.207 -0.2102 -0.4243  1.0789
17639SOL     OW55548   6.266   6.805   2.042 -0.0957  0.3736  0.0895
17639SOL    HW155549   6.307   6.726   2.078  0.0689  1.3361  2.1557
17639SOL    HW255550   6.321   6.876   2.072 -0.4334  1.3425 -1.4686
17640SOL     OW55551   8.575   4.399   6.836  0.0791 -0.1001 -0.3275
17640SOL    HW155552   8.614   4.322   6.795  1.7948  0.5080  0.0484
17640SOL    HW255553   8.491   4.411   6.792  1.1523 -0.3798 -2.5697
17641SOL     OW55554   9.482   1.751   3.597 -0.0939  0.3452  0.1591
17641SOL    HW155555   9.574   1.727   3.583 -0.4566 -0.7653 -0.5097
17641SOL    HW255556   9.449   1.683   3.655 -0.5693  0.5668  0.1492
17642SOL     OW55557   3.930   4.220   1.003  0.0403  0.4091 -0.5137
17642SOL    HW155558   3.845   4.261   0.986 -1.1407 -2.1271 -1.1420
17642SOL    HW255559   3.936   4.215   1.098  0.7860  2.9739 -0.3338
17643SOL     OW55560   6.004   7.066   5.290  0.3957 -0.2800 -0.1108
17643SOL    HW155561   5.981   6.997   5.228 -0.2464 -0.5067  0.3787
17643SOL    HW255562   6.099   7.071   5.286  0.3559 -0.1834 -1.2356
17644SOL     OW55563   8.218   4.565   6.426  0.0177  0.1845  0.3482
17644SOL    HW155564   8.249   4.616   6.351  2.5227  1.3571  2.0751
17644SOL    HW255565   8.141   4.612   6.457 -0.2348  0.4447 -0.6158
17645SOL     OW55566   1.565   4.244   3.260 -0.2739 -0.0349  0.7676
17645SOL    HW155567   1.537   4.213   3.174 -0.4868  0.5966  0.6031
17645SOL    HW255568   1.585   4.164   3.309 -0.1777 -0.4047  0.1450
17646SOL     OW55569   5.337   7.637   0.741 -0.2306  0.1325 -0.1980
17646SOL    HW155570   5.293   7.614   0.823  0.7586 -1.6886 -0.1085
17646SOL    HW255571   5.279   7.701   0.700 -1.0115  0.7079  1.6620
17647SOL     OW55572   8.373   9.856  10.046  0.4927 -0.2675 -0.1523
17647SOL    HW155573   8.321   9.825  10.120 -0.5848  0.4199 -0.6011
17647SOL    HW255574   8.375   9.951  10.055  0.6843 -0.2027 -0.7965
17648SOL     OW55575   3.044   8.079   0.061  0.6606  0.1198  0.0058
17648SOL    HW155576   2.974   8.103   0.121  0.7112  0.1695  0.0453
17648SOL    HW255577   3.036   7.984   0.052  0.2036  0.1991 -0.4757
17649SOL     OW55578   1.262   6.990   5.225 -0.0435  0.2427 -0.0966
17649SOL    HW155579   1.235   6.939   5.148  1.0149  1.3844 -1.2710
17649SOL    HW255580   1.191   6.977   5.288 -1.3743 -0.0309 -1.5849
17650SOL     OW55581   3.171   0.747   7.070  0.1136 -0.3457  0.0204
17650SOL    HW155582   3.182   0.841   7.052  0.3030 -0.3050  0.3419
17650SOL    HW255583   3.251   0.707   7.036  0.9178 -0.1535  1.5858
17651SOL     OW55584   7.014   1.461   1.048  0.2900 -0.3634 -1.0262
17651SOL    HW155585   7.026   1.509   1.130  1.0861 -2.7124  0.3202
17651SOL    HW255586   6.932   1.494   1.012  0.3565  1.3158  0.2769
17652SOL     OW55587   5.756   2.630   7.326 -0.1429  0.1056  0.5484
17652SOL    HW155588   5.769   2.542   7.360  1.1165  1.1529  2.9978
17652SOL    HW255589   5.698   2.673   7.388 -1.3023  0.8594 -0.9712
17653SOL     OW55590   7.686   6.703   3.251  0.2652 -0.0603 -0.0318
17653SOL    HW155591   7.639   6.658   3.321  0.3363 -0.2345 -0.0964
17653SOL    HW255592   7.744   6.764   3.297  0.6409 -0.4968  0.0761
17654SOL     OW55593   6.527   4.887   2.565 -0.1385  0.3018 -0.4385
17654SOL    HW155594   6.610   4.853   2.599 -0.7159  0.7842  1.6163
17654SOL    HW255595   6.529   4.867   2.472  1.9533 -0.3622 -0.3054
17655SOL     OW55596   8.528   0.061   8.358  0.8372  0.3647 -0.1477
17655SOL    HW155597   8.458   0.036   8.418  1.1610  0.3613  0.2303
17655SOL    HW255598   8.495   0.140   8.315 -0.7061 -1.2881 -2.2225
17656SOL     OW55599   2.007   3.997   4.582 -0.1794  0.4294  0.6087
17656SOL    HW155600   1.968   4.052   4.514 -0.6046  0.4014  0.8238
17656SOL    HW255601   1.932   3.967   4.634 -0.1507 -1.6755 -0.4745
17657SOL     OW55602   0.578   5.543   2.275  0.7428  0.1032  0.0532
17657SOL    HW155603   0.519   5.595   2.329 -0.1832 -0.6764 -0.1907
17657SOL    HW255604   0.644   5.511   2.336  1.7739  2.1242  0.0957
17658SOL     OW55605   5.334   5.652   5.886  0.4209 -0.4279  0.5515
17658SOL    HW155606   5.255   5.623   5.932  0.0939 -0.4477 -0.0104
17658SOL    HW255607   5.306   5.731   5.839  1.0964  0.3641  1.4435
17659SOL     OW55608   4.003   9.445   6.679  0.5949  0.2670  0.6236
17659SOL    HW155609   3.921   9.396   6.686 -0.1797  1.1541 -1.5600
17659SOL    HW255610   3.999   9.510   6.748 -0.4010  0.1059  0.7231
17660SOL     OW55611   5.395   3.024   3.876 -0.5182  0.0328  0.4331
17660SOL    HW155612   5.454   3.098   3.870 -0.5141  0.0704  0.9227
17660SOL    HW255613   5.397   2.998   3.968  0.7647 -1.6310 -0.0203
17661SOL     OW55614  10.205   4.346   8.464  0.1195 -0.6828 -0.0532
17661SOL    HW155615  10.259   4.272   8.492  1.0546  0.3717  1.0282
17661SOL    HW255616  10.235   4.419   8.518 -0.2507  0.6846 -1.6349
17662SOL     OW55617   4.166   0.653   6.206  0.6732  0.3469 -0.0502
17662SOL    HW155618   4.087   0.671   6.154  0.2703 -1.0171  0.0400
17662SOL    HW255619   4.197   0.739   6.233 -0.6711  0.9283 -0.2603
17663SOL     OW55620   2.784   7.748   4.723 -0.1054 -0.0424  0.7364
17663SOL    HW155621   2.716   7.804   4.684  0.0405  0.0405  0.5980
17663SOL    HW255622   2.750   7.659   4.713  1.5173 -0.4484 -3.0228
17664SOL     OW55623   8.571   8.678   8.686  0.1500  0.5126 -0.0352
17664SOL    HW155624   8.609   8.590   8.689 -1.9502 -0.4874 -0.8589
17664SOL    HW255625   8.543   8.695   8.776 -1.4949 -0.6732 -0.2838
17665SOL     OW55626  10.313   2.531   8.009 -0.0062 -0.1609 -0.6176
17665SOL    HW155627  10.401   2.561   8.030  0.2749 -1.3239 -0.0393
17665SOL    HW255628  10.295   2.462   8.073 -1.5062  0.3423 -0.4516
17666SOL     OW55629   8.023   4.643   9.187  0.1032  0.2420 -0.6197
17666SOL    HW155630   8.057   4.554   9.180 -1.7078 -0.5396 -0.0140
17666SOL    HW255631   8.013   4.658   9.281  0.5889  1.1924 -0.6983
17667SOL     OW55632   5.854   4.203   2.074  0.0295 -0.3604 -0.2159
17667SOL    HW155633   5.780   4.143   2.078 -0.5657  0.3281 -0.5333
17667SOL    HW255634   5.836   4.257   1.997  0.5943  0.1557  0.0055
17668SOL     OW55635   4.613   7.116   3.181  0.1519  0.3709 -0.2175
17668SOL    HW155636   4.573   7.055   3.119  1.4343 -0.6296 -0.1029
17668SOL    HW255637   4.588   7.083   3.267  0.4047  0.3293 -0.1608
17669SOL     OW55638   7.691   7.574   0.254 -0.4791 -0.1164 -0.0401
17669SOL    HW155639   7.642   7.502   0.293  0.1111 -0.2416  0.4824
17669SOL    HW255640   7.640   7.652   0.275  0.3091 -0.0498  1.8768
17670SOL     OW55641   9.474   3.207   0.005  0.0406 -0.3358 -0.3255
17670SOL    HW155642   9.425   3.132  -0.028 -0.0244 -0.8181  0.8394
17670SOL    HW255643   9.414   3.281  -0.007 -0.5006 -0.7201 -0.0529
17671SOL     OW55644   2.043  10.127   5.089 -0.2699 -0.0220  0.2315
17671SOL    HW155645   2.106  10.163   5.152 -0.0311  0.8023 -0.4659
17671SOL    HW255646   2.069  10.165   5.005 -1.7429  0.3954 -0.0547
17672SOL     OW55647   1.772   9.952   9.175 -0.0221  0.2530  0.2894
17672SOL    HW155648   1.838   9.973   9.241  1.3440  0.9071 -1.1846
17672SOL    HW255649   1.812   9.881   9.124 -2.3060 -2.3962  1.8958
17673SOL     OW55650   4.990   8.672   9.310  0.1896 -0.3311 -0.4545
17673SOL    HW155651   5.007   8.710   9.396 -0.8872  1.1100 -0.8408
17673SOL    HW255652   5.077   8.659   9.272  0.6585 -0.5842  0.6812
17674SOL     OW55653   4.076   9.810   4.066 -0.3396  0.6877  0.0055
17674SOL    HW155654   4.004   9.748   4.073  0.6769 -0.4954  0.2010
17674SOL    HW255655   4.057   9.877   4.132 -0.9721  0.0975  0.4321
17675SOL     OW55656   5.157   3.998   3.443 -0.1978  0.0149 -0.2737
17675SOL    HW155657   5.160   3.910   3.479 -1.7243  0.0618  0.0048
17675SOL    HW255658   5.172   4.056   3.518  0.6567  0.0153 -0.4318
17676SOL     OW55659   6.989   9.539   2.432  0.7485 -0.3119  0.2926
17676SOL    HW155660   6.909   9.586   2.410  0.9056 -0.3368 -0.3624
17676SOL    HW255661   7.046   9.605   2.471  0.3247 -0.3473  0.9873
17677SOL     OW55662   8.317   0.544   3.516 -0.1473  0.2767 -0.0131
17677SOL    HW155663   8.358   0.629   3.531 -1.4208  0.7303  1.1464
17677SOL    HW255664   8.251   0.537   3.585  0.6641 -2.1604  0.6079
17678SOL     OW55665   8.089   2.006   1.363  0.2695  0.3736 -0.5040
17678SOL    HW155666   8.060   2.094   1.386  0.2217  0.0293  0.8429
17678SOL    HW255667   8.155   2.019   1.296 -0.3394  1.3828 -0.9172
17679SOL     OW55668   3.063   8.919   7.989 -0.0807  0.1836 -0.7614
17679SOL    HW155669   2.991   8.862   8.017 -0.2942  0.0616 -1.5336
17679SOL    HW255670   3.020   8.992   7.946  0.2757 -0.1833 -1.7568
17680SOL     OW55671  10.013   4.993   7.764  0.2768 -0.3880  0.1174
17680SOL    HW155672  10.083   5.058   7.756  0.6495 -0.6889  0.8917
17680SOL    HW255673  10.035   4.926   7.699  0.5705 -0.3635  0.1919
17681SOL     OW55674   0.365   4.184   0.834  0.7803 -0.0404  0.7043
17681SOL    HW155675   0.428   4.112   0.839  0.6939 -0.1320  0.4857
17681SOL    HW255676   0.288   4.152   0.880  0.0931 -0.7711 -0.8767
17682SOL     OW55677   2.495   3.126   8.742 -0.7116  0.6021  0.1319
17682SOL    HW155678   2.494   3.155   8.833 -0.5416  0.0603  0.3081
17682SOL    HW255679   2.469   3.204   8.692 -0.7640  0.9133  0.6360
17683SOL     OW55680   8.176   3.239   1.284  0.0664 -0.0425  0.3089
17683SOL    HW155681   8.193   3.333   1.283  0.4891 -0.1160 -0.6573
17683SOL    HW255682   8.214   3.207   1.202  0.4695 -1.1443  0.9017
17684SOL     OW55683   6.190   9.870   6.417  0.4333  0.1888 -0.1203
17684SOL    HW155684   6.237   9.805   6.365  1.3697  0.9153 -0.1930
17684SOL    HW255685   6.128   9.818   6.469 -1.1405 -0.5271 -2.5146
17685SOL     OW55686   0.251   3.459   5.876  0.6614 -0.2460  0.3876
17685SOL    HW155687   0.196   3.387   5.845  0.8704  0.7278 -2.4865
17685SOL    HW255688   0.327   3.415   5.915  0.7293 -1.6548 -1.1942
17686SOL     OW55689   7.125   1.164   6.156 -0.1291 -0.1646 -0.3527
17686SOL    HW155690   7.036   1.154   6.188 -0.1047 -0.4490 -0.3742
17686SOL    HW255691   7.116   1.213   6.074 -0.1547  0.9870  0.3089
17687SOL     OW55692   8.353   8.254   1.145 -0.0199  0.2337  0.0552
17687SOL    HW155693   8.403   8.242   1.064 -1.4808  1.2650 -1.0505
17687SOL    HW255694   8.385   8.185   1.204  2.6710  0.8399 -0.5753
17688SOL     OW55695   5.694   2.779   5.074  0.2367 -0.6537  0.1206
17688SOL    HW155696   5.726   2.846   5.134 -0.5693  0.2993 -0.4884
17688SOL    HW255697   5.700   2.697   5.124  1.0445 -0.1125  0.9433
17689SOL     OW55698   7.467   5.464   0.503 -0.0985 -0.1243 -0.0374
17689SOL    HW155699   7.546   5.436   0.456 -0.5080 -0.6865 -0.3996
17689SOL    HW255700   7.418   5.516   0.438  0.1591  0.5665  0.3103
17690SOL     OW55701   8.734   2.921   3.295 -0.7418 -0.1530  0.0564
17690SOL    HW155702   8.730   2.972   3.214 -1.3541 -1.2155 -0.5969
17690SOL    HW255703   8.722   2.830   3.267  1.8798 -0.8749  1.0121
17691SOL     OW55704   9.303   2.069   9.187  0.1552 -0.0212 -0.0702
17691SOL    HW155705   9.302   1.987   9.138 -1.7666  0.0898 -0.2658
17691SOL    HW255706   9.396   2.093   9.191  0.7276 -2.0264 -0.2731
17692SOL     OW55707   5.838   9.717   8.298 -0.3467  0.1003  0.2360
17692SOL    HW155708   5.904   9.649   8.283 -0.4816  0.1747 -0.7928
17692SOL    HW255709   5.886   9.799   8.291 -0.5912  0.1705 -0.9451
17693SOL     OW55710   1.777   8.782   3.428 -0.1575  0.8296 -0.0435
17693SOL    HW155711   1.794   8.772   3.335  1.8926 -3.3906  0.5301
17693SOL    HW255712   1.687   8.751   3.439 -0.5084  1.6114 -0.5799
17694SOL     OW55713   8.031  10.087   7.025  0.1167  0.1000  0.0123
17694SOL    HW155714   7.970  10.044   6.964 -0.5398  1.5769 -0.4107
17694SOL    HW255715   8.079  10.149   6.971 -1.0321  2.0203  1.0942
17695SOL     OW55716   8.922  10.191   8.068  0.3033 -0.3357  0.0144
17695SOL    HW155717   8.871  10.237   8.134 -0.4244  0.0636 -0.8101
17695SOL    HW255718   8.944  10.258   8.004 -0.3957 -1.0425 -0.9795
17696SOL     OW55719   5.157   3.834   3.802 -0.2969 -0.3331 -0.2416
17696SOL    HW155720   5.086   3.791   3.754 -1.3649 -0.3959  1.3104
17696SOL    HW255721   5.115   3.909   3.844  0.5701 -0.3135  0.6343
17697SOL     OW55722   9.498   4.729   0.695 -0.1030  0.3298  0.0228
17697SOL    HW155723   9.560   4.802   0.693 -0.2501  0.4590  0.1732
17697SOL    HW255724   9.467   4.726   0.786 -1.7764  1.4941 -0.4576
17698SOL     OW55725   1.168   8.126   1.269 -0.0205 -0.5063 -0.0215
17698SOL    HW155726   1.092   8.184   1.261 -0.3444 -0.9380 -0.0475
17698SOL    HW255727   1.242   8.186   1.276 -0.3939 -0.0787  0.3407
17699SOL     OW55728   5.026   6.799   8.242 -0.3215 -0.3763  0.5491
17699SOL    HW155729   5.008   6.715   8.284 -3.8372 -0.8634 -1.4897
17699SOL    HW255730   4.982   6.864   8.299 -1.5111 -0.5414 -0.1398
17700SOL     OW55731   0.364   2.081   9.113  0.6445 -0.7825  0.4463
17700SOL    HW155732   0.330   2.054   9.198  1.7188 -0.9584  0.8355
17700SOL    HW255733   0.388   1.999   9.070  0.8282 -0.6443  0.2860
17701SOL     OW55734   3.128   9.779   8.640  0.1118 -0.2417 -0.1860
17701SOL    HW155735   3.191   9.811   8.704  0.9198  0.5943 -1.3458
17701SOL    HW255736   3.153   9.688   8.625 -0.6063 -0.7002  1.2669
17702SOL     OW55737   4.974   1.559   4.973  0.3174 -0.0020  0.1179
17702SOL    HW155738   4.943   1.497   5.039  0.7057  0.1091  0.4094
17702SOL    HW255739   5.046   1.605   5.016 -0.0887  0.7860 -0.0162
17703SOL     OW55740   5.753   2.577   4.366  0.6332 -0.7233  0.1540
17703SOL    HW155741   5.820   2.512   4.387  2.0740  0.4856 -0.5151
17703SOL    HW255742   5.791   2.660   4.396  0.7205  0.4012 -2.7597
17704SOL     OW55743   7.157   0.081   9.739  0.0789 -0.2164  0.1332
17704SOL    HW155744   7.219   0.133   9.790 -1.1486  1.9253 -0.4377
17704SOL    HW255745   7.130   0.011   9.798  0.9678  0.4354  1.3566
17705SOL     OW55746   0.671   7.994   9.639 -0.4939 -0.0647 -0.0517
17705SOL    HW155747   0.762   7.971   9.623 -0.3544  1.0601 -1.0369
17705SOL    HW255748   0.624   7.955   9.565 -0.7617 -0.2850  0.2321
17706SOL     OW55749   0.871   7.532   1.579 -0.4265  0.7939 -0.3821
17706SOL    HW155750   0.834   7.453   1.618 -0.0051  0.9020  0.2561
17706SOL    HW255751   0.801   7.565   1.523 -1.3701  1.0736  0.8933
17707SOL     OW55752   8.110   7.146   6.400 -0.0406  0.3152  0.0471
17707SOL    HW155753   8.026   7.101   6.386  0.7248 -0.4671 -2.5501
17707SOL    HW255754   8.121   7.200   6.322  1.9268  0.3025  0.2705
17708SOL     OW55755   2.395   7.626   5.598  0.0602 -0.2539 -0.1576
17708SOL    HW155756   2.340   7.601   5.672  1.0828 -0.9253  0.4033
17708SOL    HW255757   2.477   7.578   5.611 -0.3578 -1.8916 -2.6988
17709SOL     OW55758   7.209   9.934   7.945  0.1547  0.3476  0.3833
17709SOL    HW155759   7.279   9.994   7.973  0.9965 -0.9980  1.2907
17709SOL    HW255760   7.146   9.990   7.900  0.5025  2.0571  1.8867
17710SOL     OW55761   2.722   1.379   9.993 -0.2317 -0.5788  0.5858
17710SOL    HW155762   2.816   1.381  10.013 -0.2043  0.9231  0.4366
17710SOL    HW255763   2.705   1.289   9.965  1.6409 -0.3760 -1.5119
17711SOL     OW55764   1.022   7.834   0.982 -0.1208  0.4414 -0.1061
17711SOL    HW155765   1.111   7.864   0.997  0.0454 -0.0300 -0.1550
17711SOL    HW255766   1.016   7.749   1.026  0.4407 -1.0824 -2.7601
17712SOL     OW55767   8.359   3.198   4.733  0.0862  0.4561 -0.2260
17712SOL    HW155768   8.352   3.115   4.685 -2.5548  1.1812 -1.2518
17712SOL    HW255769   8.269   3.228   4.742  0.8962  2.7555  1.0280
17713SOL     OW55770   9.993   6.036   4.753 -0.2109  0.2634  0.1818
17713SOL    HW155771   9.960   6.053   4.665  1.6731 -1.1847 -0.8865
17713SOL    HW255772   9.973   5.944   4.769 -1.8628  0.8607  1.9511
17714SOL     OW55773   3.421   1.176   8.179 -0.3822  0.3413  0.2990
17714SOL    HW155774   3.426   1.087   8.146 -0.5633 -0.2016  1.6570
17714SOL    HW255775   3.354   1.172   8.248 -2.1573  2.0513 -1.1925
17715SOL     OW55776   1.482   6.726   6.213 -0.3079 -0.2942 -0.8242
17715SOL    HW155777   1.397   6.770   6.205 -0.0522  0.2227 -0.8056
17715SOL    HW255778   1.465   6.648   6.265 -0.0987  1.8770  2.8238
17716SOL     OW55779   9.758   3.385   6.114  0.5307 -0.3980 -0.1672
17716SOL    HW155780   9.771   3.293   6.138 -0.0577 -0.2657  0.6873
17716SOL    HW255781   9.843   3.412   6.078  1.5861 -0.5129  2.0694
17717SOL     OW55782   9.549   5.743   2.323 -0.0560  0.4679 -0.3004
17717SOL    HW155783   9.580   5.830   2.297 -1.0298  0.4118 -1.7994
17717SOL    HW255784   9.479   5.761   2.386  0.9942  0.6874  0.8297
17718SOL     OW55785   1.997   3.409   3.753 -0.4806 -0.2282 -0.4003
17718SOL    HW155786   1.910   3.372   3.739 -0.9793 -1.3025  4.1080
17718SOL    HW255787   2.046   3.340   3.796  1.6292  1.3365 -0.1481
17719SOL     OW55788   3.554   3.968   6.273 -0.1985  0.2905 -0.0495
17719SOL    HW155789   3.644   3.952   6.244 -0.3892  0.3326 -0.6951
17719SOL    HW255790   3.552   3.941   6.364  0.5723  0.6611  0.0798
17720SOL     OW55791   3.177   3.878   3.239  0.3174  0.2906 -0.2825
17720SOL    HW155792   3.210   3.868   3.149  3.1283  2.6710  0.3410
17720SOL    HW255793   3.202   3.796   3.282  1.7673  0.3586 -0.9297
17721SOL     OW55794   4.410   7.241   8.185  0.0669  0.1522 -0.3018
17721SOL    HW155795   4.414   7.274   8.095 -2.1424  0.2352 -0.4267
17721SOL    HW255796   4.501   7.228   8.210  0.7660  0.9339 -2.2535
17722SOL     OW55797   2.243   6.974   6.883  0.0149 -0.3726 -0.6819
17722SOL    HW155798   2.305   6.907   6.910 -0.1962  0.2346  1.5613
17722SOL    HW255799   2.198   6.937   6.807  0.3867 -2.4775  0.0553
17723SOL     OW55800   0.195   4.202   8.119 -0.4593  0.0549  0.5154
17723SOL    HW155801   0.245   4.162   8.190  1.3625  1.1064 -0.1187
17723SOL    HW255802   0.261   4.227   8.054 -1.8301  1.3376 -0.4445
17724SOL     OW55803   1.891   4.118   3.953  0.5453 -0.0813  0.4530
17724SOL    HW155804   1.956   4.147   4.017  0.9966 -1.9825  0.9134
17724SOL    HW255805   1.939   4.114   3.870  0.7023 -0.3639  0.5585
17725SOL     OW55806   0.060   3.095   8.773  0.3217  0.2985  0.5930
17725SOL    HW155807  -0.035   3.094   8.775  0.3016 -0.3787 -0.1195
17725SOL    HW255808   0.084   3.185   8.798 -0.5054  0.5935  0.3562
17726SOL     OW55809   9.374   8.291   5.004 -0.0387 -0.0934 -0.1887
17726SOL    HW155810   9.450   8.318   5.054 -0.8857 -1.7300  2.2018
17726SOL    HW255811   9.398   8.206   4.967  0.1252  0.5235 -1.5824
17727SOL     OW55812   0.111   2.550   4.751 -0.1821 -0.1495 -0.1210
17727SOL    HW155813   0.016   2.540   4.750 -0.2253  0.2341 -0.0593
17727SOL    HW255814   0.126   2.626   4.807  0.0010  1.2881 -2.0060
17728SOL     OW55815   1.885   1.272   9.439  0.2216 -0.4131 -0.0802
17728SOL    HW155816   1.924   1.319   9.365 -1.6681  0.2483 -0.7308
17728SOL    HW255817   1.833   1.202   9.398 -0.3725 -0.4001  0.6331
17729SOL     OW55818   6.398   1.281   1.921  0.4579  0.2605 -0.5133
17729SOL    HW155819   6.419   1.189   1.935 -1.4436  0.1445  2.5133
17729SOL    HW255820   6.312   1.280   1.878  0.6989  0.6455 -1.0167
17730SOL     OW55821   0.581   5.672   1.961 -0.1504  0.3236 -0.9157
17730SOL    HW155822   0.574   5.665   1.866  2.2484 -2.0889 -1.0282
17730SOL    HW255823   0.501   5.632   1.994  0.4343 -1.8096 -1.9524
17731SOL     OW55824   5.226   3.687   8.350  0.0635 -0.0940 -0.1736
17731SOL    HW155825   5.262   3.744   8.418  1.5962  0.4123 -1.3372
17731SOL    HW255826   5.250   3.730   8.267 -3.2875  0.2598 -1.0895
17732SOL     OW55827   7.170   9.333   9.699  0.0975  0.0250  0.6878
17732SOL    HW155828   7.141   9.331   9.791  3.2272 -0.1109  1.7918
17732SOL    HW255829   7.209   9.419   9.689  0.3520 -0.2052 -0.3293
17733SOL     OW55830   2.772   1.165   3.385 -0.3070 -0.2422 -0.1675
17733SOL    HW155831   2.792   1.217   3.464 -2.7353  0.1457  0.2714
17733SOL    HW255832   2.707   1.217   3.339  1.4375 -0.2199 -2.7776
17734SOL     OW55833   7.408   4.741  10.250 -0.0811  0.1496  0.5017
17734SOL    HW155834   7.368   4.762  10.166  0.8041 -0.7311 -0.1695
17734SOL    HW255835   7.454   4.821  10.276 -1.4729  0.8664  0.8309
17735SOL     OW55836   4.824   2.343   2.520  0.2115 -0.0361  0.0285
17735SOL    HW155837   4.814   2.292   2.601 -0.6407 -1.1797 -0.7518
17735SOL    HW255838   4.905   2.391   2.532  1.3328 -1.9600  0.6452
17736SOL     OW55839   8.260   3.450   3.722  0.0705  0.1874 -0.7843
17736SOL    HW155840   8.317   3.495   3.660  1.0501  0.2324  0.1400
17736SOL    HW255841   8.172   3.483   3.701  0.5356  1.1091 -1.3489
17737SOL     OW55842   8.557   1.747   8.675  0.1397  0.1603  0.1801
17737SOL    HW155843   8.491   1.678   8.688 -1.2311  1.1303 -1.3339
17737SOL    HW255844   8.620   1.708   8.615  1.5289 -1.0842  2.2936
17738SOL     OW55845   0.567   2.286   8.678 -0.5633 -0.6550  0.1883
17738SOL    HW155846   0.503   2.222   8.647 -2.0122  0.5378  0.6490
17738SOL    HW255847   0.519   2.368   8.687  0.7931  0.0704  1.4644
17739SOL     OW55848   6.591   6.695  10.186  0.2723 -0.5309 -0.4011
17739SOL    HW155849   6.617   6.768  10.131 -0.9712  1.3633  1.3895
17739SOL    HW255850   6.505   6.669  10.153  0.3368 -0.6177 -0.5014
17740SOL     OW55851   8.885   3.514   7.873 -0.2178  0.1527 -0.0514
17740SOL    HW155852   8.929   3.429   7.864  0.1352  0.2580  0.6225
17740SOL    HW255853   8.795   3.492   7.898  0.3890 -0.0008  2.1589
17741SOL     OW55854   4.842   0.107   4.176 -0.1894 -0.0450 -0.6667
17741SOL    HW155855   4.849   0.098   4.081  0.8527  0.8428 -0.6891
17741SOL    HW255856   4.753   0.137   4.190 -0.6035 -0.9112 -1.2906
17742SOL     OW55857   7.844   5.818  10.102 -0.2533  0.6256  0.5937
17742SOL    HW155858   7.830   5.850  10.013  0.0783 -1.2703 -0.1939
17742SOL    HW255859   7.927   5.857  10.128  3.3365 -3.8399 -2.6111
17743SOL     OW55860   6.005   1.326   5.174  0.4895 -0.0682 -0.3003
17743SOL    HW155861   6.019   1.266   5.247  1.4634 -0.6091 -0.8950
17743SOL    HW255862   6.079   1.387   5.178 -0.3324  0.9235  0.1210
17744SOL     OW55863   4.150   7.660   0.512  0.3003 -0.0516  0.0928
17744SOL    HW155864   4.160   7.571   0.479  1.6318  0.2651 -0.4249
17744SOL    HW255865   4.177   7.716   0.439 -0.5706  0.7778  0.3932
17745SOL     OW55866   6.975   3.723   2.834 -0.4826 -0.0903  0.4807
17745SOL    HW155867   6.950   3.760   2.749  0.0369  0.1181  0.4132
17745SOL    HW255868   6.933   3.637   2.837 -1.3906  0.3358  0.4716
17746SOL     OW55869   5.904   6.389   5.952  0.1001 -0.4117 -0.3338
17746SOL    HW155870   5.881   6.390   6.045 -1.0995 -0.7741 -0.6181
17746SOL    HW255871   5.822   6.372   5.906  0.6707 -0.2187 -1.4721
17747SOL     OW55872   0.235   0.217   2.278  0.9066  0.4043 -0.8879
17747SOL    HW155873   0.268   0.189   2.364  2.9018  0.5443 -1.5685
17747SOL    HW255874   0.159   0.161   2.262  0.4955  0.3561  0.9397
17748SOL     OW55875   1.930   5.454   4.313 -0.2468  0.1257 -0.2729
17748SOL    HW155876   1.866   5.524   4.298  0.3254  0.7153  0.0020
17748SOL    HW255877   1.952   5.462   4.406  0.0295 -0.2468 -0.3052
17749SOL     OW55878   2.401   1.471   7.321 -0.3195 -0.3349  0.3097
17749SOL    HW155879   2.465   1.507   7.383 -0.0881 -1.8844  1.0092
17749SOL    HW255880   2.451   1.458   7.240 -0.4507  1.0377 -0.0156
17750SOL     OW55881   2.362   3.062   3.218  0.1369 -0.0528 -0.3762
17750SOL    HW155882   2.383   3.124   3.148 -0.6981 -0.1545 -0.7321
17750SOL    HW255883   2.291   3.103   3.267  0.0594 -0.4138 -0.1779
17751SOL     OW55884   8.140   5.924   0.706  0.9494  0.3605 -0.1550
17751SOL    HW155885   8.184   6.000   0.670  0.3053 -0.3410 -2.5606
17751SOL    HW255886   8.208   5.857   0.711  1.0083  0.4187 -0.1792
17752SOL     OW55887  10.327   7.017   8.742  0.6118 -0.0459  0.7636
17752SOL    HW155888  10.331   6.971   8.825 -0.2306  0.3042  1.0046
17752SOL    HW255889  10.365   7.103   8.760 -0.1063  0.2442  0.9490
17753SOL     OW55890   0.105   8.425   1.354 -0.3872  0.2658 -0.4377
17753SOL    HW155891   0.088   8.372   1.277 -2.4806  0.8689 -0.4422
17753SOL    HW255892   0.052   8.503   1.342  0.6140  1.1855  0.8010
17754SOL     OW55893   4.544   4.301   8.214 -0.0119  0.6704 -0.3296
17754SOL    HW155894   4.568   4.253   8.135 -0.3596  1.0436 -0.6688
17754SOL    HW255895   4.502   4.381   8.182  2.2638  2.1515  0.1622
17755SOL     OW55896   4.907   1.315   9.025  0.0673 -0.3314 -0.1327
17755SOL    HW155897   4.828   1.366   9.009 -0.1669 -0.0061  1.8211
17755SOL    HW255898   4.876   1.237   9.073  0.7912 -0.7391 -0.3131
17756SOL     OW55899   9.038   0.512   2.158  0.3333  0.2671 -0.3919
17756SOL    HW155900   9.121   0.520   2.112  0.1526  2.4441 -0.4501
17756SOL    HW255901   8.972   0.536   2.094  0.0575  3.0696  0.7972
17757SOL     OW55902   7.726   4.598   8.716 -0.3625  0.0928  0.2945
17757SOL    HW155903   7.819   4.603   8.737 -0.4760  0.4579  0.7419
17757SOL    HW255904   7.704   4.506   8.724 -0.6028  0.3034  2.7633
17758SOL     OW55905   2.660   7.429   7.873 -0.6448  0.2515  0.0468
17758SOL    HW155906   2.716   7.375   7.928 -1.2197  0.2329  0.6186
17758SOL    HW255907   2.573   7.390   7.879 -0.6127 -0.0900 -1.3344
17759SOL     OW55908   2.338   9.778   9.982  0.4030  0.4964  0.4174
17759SOL    HW155909   2.296   9.864   9.977 -0.7502 -0.0987 -0.6186
17759SOL    HW255910   2.271   9.721  10.019  0.7720 -0.1965  0.0279
17760SOL     OW55911   5.811   9.352   5.216  0.1922 -0.0238 -0.3620
17760SOL    HW155912   5.801   9.439   5.178  0.6218  0.3220  0.2819
17760SOL    HW255913   5.722   9.315   5.216 -0.2992  1.0570  0.8251
17761SOL     OW55914   9.621   0.352   4.617 -0.0525  0.2800 -0.5304
17761SOL    HW155915   9.536   0.328   4.654 -1.2233  1.1957 -2.4977
17761SOL    HW255916   9.684   0.325   4.684 -1.7504 -1.7237  0.3990
17762SOL     OW55917   9.553   3.740   1.086  0.3764 -0.1225  0.1018
17762SOL    HW155918   9.574   3.822   1.042 -0.0025  0.2361  0.5674
17762SOL    HW255919   9.565   3.673   1.020 -0.7876  0.4624 -0.7374
17763SOL     OW55920   0.072   1.323   9.404  1.0049  0.5644 -0.3774
17763SOL    HW155921   0.123   1.382   9.458  0.1286  0.4365  0.6046
17763SOL    HW255922   0.105   1.236   9.426 -0.2010  0.3984  0.9418
17764SOL     OW55923   7.695   1.604   8.396  0.2818  0.4523  0.2261
17764SOL    HW155924   7.603   1.604   8.420 -0.2175  0.6363 -1.5303
17764SOL    HW255925   7.699   1.548   8.318  1.0313  3.0455 -1.7458
17765SOL     OW55926   6.106   8.295  10.007  0.3207  0.2806  0.3285
17765SOL    HW155927   6.156   8.370  10.039  0.7202 -0.4802  1.6084
17765SOL    HW255928   6.169   8.223  10.006  0.5268  0.3651 -2.9864
17766SOL     OW55929   1.187   6.149   6.087  0.4524  0.1933  0.2195
17766SOL    HW155930   1.227   6.086   6.147  0.7579  1.3201  1.2462
17766SOL    HW255931   1.233   6.136   6.004  0.0910 -1.3277  0.2311
17767SOL     OW55932   2.957   5.997   6.235 -0.6658  0.5649  0.1190
17767SOL    HW155933   2.872   5.981   6.193  0.5059  1.3389 -2.7388
17767SOL    HW255934   3.016   6.017   6.163  1.7071  1.2458  2.1358
17768SOL     OW55935   7.325   7.206   9.989  0.1610 -0.4518 -0.1088
17768SOL    HW155936   7.409   7.201   9.945  0.2896  0.4943  0.0059
17768SOL    HW255937   7.344   7.247  10.073 -0.3124 -0.8505  0.2017
17769SOL     OW55938   9.160   1.797   3.198 -0.0393 -0.4074  0.3358
17769SOL    HW155939   9.189   1.717   3.155 -0.1068 -0.6278  0.6967
17769SOL    HW255940   9.234   1.822   3.254  0.2174  0.1133 -0.2237
17770SOL     OW55941   9.857   6.830   2.464 -0.3903  0.1929  0.5251
17770SOL    HW155942   9.900   6.874   2.391 -1.3634 -1.7239 -1.3146
17770SOL    HW255943   9.808   6.899   2.509  1.2183  1.6388  0.1530
17771SOL     OW55944   8.039   2.483   7.119 -0.0752  0.2872  0.1479
17771SOL    HW155945   7.947   2.503   7.131 -0.5411 -0.6040 -1.5216
17771SOL    HW255946   8.078   2.566   7.090 -0.1531  0.8716  1.6455
17772SOL     OW55947   2.060   2.653   4.961 -0.6547 -0.4848  0.3416
17772SOL    HW155948   2.111   2.641   5.041 -2.4476 -0.0969  1.5987
17772SOL    HW255949   2.125   2.678   4.895  0.7584  0.2087  1.9140
17773SOL     OW55950   1.497   2.175   7.923 -0.1083  0.0133  0.3746
17773SOL    HW155951   1.429   2.233   7.888 -1.6041 -0.1439  2.7996
17773SOL    HW255952   1.579   2.222   7.909 -0.8590  0.9330 -1.1733
17774SOL     OW55953   1.204   5.895   0.797 -0.3985  0.1390 -0.0312
17774SOL    HW155954   1.259   5.817   0.792 -0.5099 -0.1819  2.5267
17774SOL    HW255955   1.121   5.864   0.834 -0.8051  1.3032  0.0775
17775SOL     OW55956   5.202  10.042   0.221 -0.5583  0.5981 -0.4185
17775SOL    HW155957   5.284  10.080   0.190 -0.1436  0.7869  0.8162
17775SOL    HW255958   5.151  10.023   0.142  0.0149  1.9636 -1.1359
17776SOL     OW55959   7.360   1.976   6.839 -0.0498 -0.3857  0.3659
17776SOL    HW155960   7.303   1.927   6.898  0.5579 -2.7128 -0.8330
17776SOL    HW255961   7.426   2.015   6.896  0.2173 -2.1341  1.3093
17777SOL     OW55962   5.848   6.063   7.110  0.1250 -0.5644 -0.3741
17777SOL    HW155963   5.802   6.087   7.190  1.2719 -0.4087  0.2658
17777SOL    HW255964   5.786   6.082   7.040 -0.4715  0.4452  0.3960
17778SOL     OW55965   3.260   0.497   6.287  0.5186  0.1210 -0.1395
17778SOL    HW155966   3.215   0.548   6.354 -1.5135 -1.4779 -0.1962
17778SOL    HW255967   3.233   0.406   6.303  0.5131 -0.4031 -2.6913
17779SOL     OW55968   7.803   7.439   2.668  0.2864 -0.1903  0.4116
17779SOL    HW155969   7.892   7.471   2.683  0.9034 -0.7629 -1.6608
17779SOL    HW255970   7.815   7.346   2.648 -0.4637  0.2092 -2.1937
17780SOL     OW55971   0.756   2.890   5.230 -0.2863 -0.1451 -0.1254
17780SOL    HW155972   0.850   2.904   5.242 -0.4441  0.0993  0.8853
17780SOL    HW255973   0.744   2.893   5.135  0.6586  0.2235 -0.2481
17781SOL     OW55974   4.054   7.981   4.703 -0.2359  0.2192  0.2289
17781SOL    HW155975   4.008   7.936   4.632 -2.1441 -1.0826  2.1655
17781SOL    HW255976   4.110   7.913   4.741 -1.2204  0.1104  1.5678
17782SOL     OW55977   2.741   9.129   5.781 -0.9797 -0.0345  0.3512
17782SOL    HW155978   2.798   9.053   5.795 -2.8251 -2.5404 -3.8708
17782SOL    HW255979   2.801   9.203   5.773  1.1431 -1.4672  1.7664
17783SOL     OW55980   1.852   2.236   9.554 -0.5398  0.3844  0.0855
17783SOL    HW155981   1.766   2.209   9.521 -2.0871  1.1767  3.1328
17783SOL    HW255982   1.835   2.269   9.642  2.7231  1.8652  0.3129
17784SOL     OW55983   2.390   0.407   2.234  0.4165 -0.3464 -0.0597
17784SOL    HW155984   2.392   0.312   2.222 -0.8376 -0.4773  0.6255
17784SOL    HW255985   2.452   0.423   2.306 -1.2147 -0.9709  1.5701
17785SOL     OW55986   8.229   2.936   4.664  0.2747  0.3351  0.7486
17785SOL    HW155987   8.279   2.866   4.623  0.2917 -0.1132  1.5178
17785SOL    HW255988   8.148   2.941   4.614 -0.0126 -0.6857  1.0945
17786SOL     OW55989   2.408   4.793   7.409 -0.0452  0.0306  0.2939
17786SOL    HW155990   2.337   4.857   7.400 -0.3067  0.0343  1.9756
17786SOL    HW255991   2.381   4.738   7.482  1.8091  0.2057  1.1675
17787SOL     OW55992   9.201   8.919   8.128  0.1528  0.7284  0.1029
17787SOL    HW155993   9.285   8.892   8.165 -0.1271 -0.5354 -0.1415
17787SOL    HW255994   9.168   8.985   8.189  0.5009 -0.0583  1.1862
17788SOL     OW55995   6.913   6.910   9.099  0.4384 -0.3888  0.4648
17788SOL    HW155996   6.919   6.990   9.152 -1.0894 -0.4846  0.8406
17788SOL    HW255997   6.941   6.937   9.012 -0.4904  0.6937  0.4741
17789SOL     OW55998   0.392   5.576   4.243 -0.4179  0.2056  0.0759
17789SOL    HW155999   0.349   5.581   4.329 -1.0406 -2.6202  0.0271
17789SOL    HW256000   0.320   5.573   4.180 -0.1167 -1.2996 -0.2425
17790SOL     OW56001   5.636   9.417   1.581 -0.1765  0.1769 -0.1680
17790SOL    HW156002   5.723   9.446   1.553  1.8340 -1.2770  3.7244
17790SOL    HW256003   5.588   9.498   1.597 -0.2028  1.0167 -3.7132
17791SOL     OW56004   7.052  10.108   3.101  0.1949  0.0217  0.0517
17791SOL    HW156005   6.999  10.186   3.084 -0.6069 -0.7687 -1.1800
17791SOL    HW256006   6.989  10.037   3.110  0.9776 -0.7123 -0.1199
17792SOL     OW56007   9.745   4.942   5.845 -0.5439  0.0711  0.6240
17792SOL    HW156008   9.824   4.962   5.895 -1.3227  1.0496  1.5089
17792SOL    HW256009   9.704   5.028   5.830  0.1560 -0.0354 -2.5884
17793SOL     OW56010   5.526   7.843   7.146  0.1305 -0.3265 -0.4757
17793SOL    HW156011   5.508   7.935   7.164 -1.1461 -0.7334  0.4710
17793SOL    HW256012   5.469   7.821   7.072 -2.5735 -1.2826  1.7131
17794SOL     OW56013   1.678   3.526   0.147  0.5262 -0.0918 -0.3206
17794SOL    HW156014   1.748   3.553   0.087 -0.6103  1.1932 -1.1455
17794SOL    HW256015   1.613   3.596   0.139 -0.9690 -1.3833  0.2142
17795SOL     OW56016   5.651   2.539   0.656  0.0667  0.6928 -1.0204
17795SOL    HW156017   5.694   2.456   0.637 -2.1268 -0.6368 -0.6176
17795SOL    HW256018   5.658   2.589   0.575  0.5088 -0.3234 -1.6263
17796SOL     OW56019   3.222   0.768   3.334  0.5106  0.3386 -0.7376
17796SOL    HW156020   3.150   0.742   3.277 -0.8888  0.7079  0.7677
17796SOL    HW256021   3.289   0.700   3.321  0.1200  0.2458 -2.5289
17797SOL     OW56022   3.690   6.149   7.951  0.5228  0.4670  0.6000
17797SOL    HW156023   3.653   6.236   7.967  0.2996  0.8112 -1.5002
17797SOL    HW256024   3.624   6.105   7.898  2.6094  0.7652 -2.5007
17798SOL     OW56025   1.920   0.436   7.599  0.0412 -0.9389 -0.1159
17798SOL    HW156026   1.970   0.392   7.667  1.2439 -0.1425 -0.4459
17798SOL    HW256027   1.946   0.528   7.605 -1.0750 -0.5652 -0.5859
17799SOL     OW56028   7.390   4.190   3.053 -0.9437 -0.6909 -0.2098
17799SOL    HW156029   7.484   4.213   3.056 -0.7965 -1.2813 -0.2796
17799SOL    HW256030   7.350   4.247   3.119 -0.8366  0.9292 -1.4642
17800SOL     OW56031   4.852   2.494   6.898  0.0284 -0.0522  0.2078
17800SOL    HW156032   4.823   2.583   6.877  0.1145 -0.1720 -0.4379
17800SOL    HW256033   4.889   2.461   6.816 -0.1493 -0.7413  0.4020
17801SOL     OW56034   0.101   9.710   8.992 -1.1279 -0.6877  0.3973
17801SOL    HW156035   0.156   9.701   9.070 -1.1492  0.3985  0.5485
17801SOL    HW256036   0.106   9.803   8.970 -1.2977 -0.9497 -0.7715
17802SOL     OW56037   9.833   8.407   8.590  0.5596  0.3459  0.1697
17802SOL    HW156038   9.904   8.353   8.554 -0.1573  0.9237 -2.2683
17802SOL    HW256039   9.863   8.497   8.579 -0.1134  0.5632  0.0766
17803SOL     OW56040   5.521   0.671   3.976 -0.0922  0.3814  0.8383
17803SOL    HW156041   5.563   0.753   4.001  0.0612  0.1628  1.3091
17803SOL    HW256042   5.429   0.695   3.961  0.3137  0.9858 -0.8331
17804SOL     OW56043   3.138   4.316   3.299 -0.0526 -0.4447  0.0405
17804SOL    HW156044   3.218   4.368   3.290  0.0418 -0.6854 -0.5276
17804SOL    HW256045   3.076   4.376   3.342 -0.4642  0.7208 -2.0630
17805SOL     OW56046   0.537   9.613   1.922 -0.5583 -0.2501  0.1360
17805SOL    HW156047   0.587   9.531   1.923 -1.2961 -0.7188  1.3811
17805SOL    HW256048   0.446   9.585   1.912 -0.5713  0.6573 -3.6185
17806SOL     OW56049   4.506   6.157   5.944 -0.4329  0.7594 -0.5601
17806SOL    HW156050   4.412   6.147   5.930 -0.4429 -0.5335  0.2351
17806SOL    HW256051   4.546   6.113   5.869 -0.4604  0.7333 -0.5592
17807SOL     OW56052  10.283   9.935   5.211  0.1004  0.3164 -0.0795
17807SOL    HW156053  10.307   9.969   5.125  0.4608  1.1574  0.3433
17807SOL    HW256054  10.289  10.010   5.269 -0.0692 -0.2594  0.7033
17808SOL     OW56055   2.187   8.448   9.781  0.4899  0.3297  0.0586
17808SOL    HW156056   2.198   8.362   9.740  1.5835  0.3881  0.2221
17808SOL    HW256057   2.154   8.504   9.711 -0.2997 -0.2225 -0.0337
17809SOL     OW56058   9.066   0.770   1.069  0.0060  0.1896 -0.0911
17809SOL    HW156059   9.115   0.799   1.146  0.6611  0.7203 -0.6895
17809SOL    HW256060   9.133   0.752   1.003 -0.3427 -2.8680  0.2575
17810SOL     OW56061   0.228   5.039   1.189  0.0817  0.9718 -0.8252
17810SOL    HW156062   0.258   5.112   1.134 -0.0435  0.5804 -1.4188
17810SOL    HW256063   0.133   5.040   1.181 -0.1535  2.4805  1.4041
17811SOL     OW56064   2.412   6.903   0.497  0.0045  0.3538  0.8239
17811SOL    HW156065   2.464   6.845   0.554  1.0441  1.0335  0.5990
17811SOL    HW256066   2.426   6.868   0.409  0.2199  0.6380  0.7448
17812SOL     OW56067   4.084   4.150   5.898  0.4900 -0.0004 -0.3085
17812SOL    HW156068   4.075   4.246   5.891  1.8722  0.1369 -0.4099
17812SOL    HW256069   4.178   4.135   5.896  0.3367 -1.2694  1.1324
17813SOL     OW56070   7.449   5.166   8.578  0.9314  0.5586  0.0862
17813SOL    HW156071   7.396   5.183   8.501 -0.5832  0.5678  1.0734
17813SOL    HW256072   7.400   5.100   8.627  1.8901  0.4923  1.0124
17814SOL     OW56073   8.873   1.664   4.200  0.3363  0.1041 -0.4696
17814SOL    HW156074   8.928   1.592   4.232 -1.6850 -1.1622  0.3899
17814SOL    HW256075   8.885   1.734   4.265 -0.9108 -1.0876  1.1385
17815SOL     OW56076   2.808   2.411   7.013 -0.1953 -0.3278  0.4895
17815SOL    HW156077   2.838   2.330   7.054  0.1643  0.6032  2.1725
17815SOL    HW256078   2.728   2.386   6.966 -0.3811 -1.5556  1.3958
17816SOL     OW56079   9.626   2.596   2.455 -0.1214  0.0682  0.1408
17816SOL    HW156080   9.682   2.564   2.384 -3.0849  0.1342 -2.4270
17816SOL    HW256081   9.650   2.688   2.465  1.7661 -0.4400  0.8035
17817SOL     OW56082   5.945   1.575   4.975 -0.0799  0.7843 -0.0275
17817SOL    HW156083   5.926   1.482   4.984  0.0305  0.6209 -1.3724
17817SOL    HW256084   5.928   1.611   5.063 -0.5797 -0.4048  0.3865
17818SOL     OW56085   6.696   2.984   5.410  0.7372 -0.4142  0.5214
17818SOL    HW156086   6.706   2.892   5.433 -1.9712 -0.5529  1.5937
17818SOL    HW256087   6.656   3.024   5.487 -1.3201  0.8753 -1.0932
17819SOL     OW56088   4.560   5.323   0.905 -0.2755  0.5094  0.0859
17819SOL    HW156089   4.518   5.250   0.860  1.6204 -0.6219  0.0409
17819SOL    HW256090   4.565   5.392   0.839  2.0995 -0.9914 -1.4531
17820SOL     OW56091   8.657   9.955   9.620 -0.2849  0.5220 -0.3597
17820SOL    HW156092   8.693   9.913   9.698 -0.9357  0.9312  0.1788
17820SOL    HW256093   8.714  10.030   9.604 -0.7186  1.0202  0.3380
17821SOL     OW56094  10.066   3.880   9.053 -0.4408  0.0246 -0.2402
17821SOL    HW156095  10.053   3.816   8.983 -0.4526  1.2469 -1.3966
17821SOL    HW256096  10.016   3.846   9.127 -0.8046 -1.0691 -0.9799
17822SOL     OW56097   7.110   5.710   7.650 -0.2352  0.7284 -0.3290
17822SOL    HW156098   7.095   5.802   7.629 -0.5664  0.3356 -1.9909
17822SOL    HW256099   7.188   5.686   7.600 -0.7972 -0.1537 -0.8304
17823SOL     OW56100   9.084   3.832   1.634 -0.2100 -0.2005 -0.3499
17823SOL    HW156101   9.089   3.795   1.723 -0.4773 -2.4952 -1.2007
17823SOL    HW256102   8.996   3.871   1.629 -0.1694  0.0023  0.4101
17824SOL     OW56103   7.341   2.947  10.278  0.0980 -0.2441  0.0537
17824SOL    HW156104   7.309   2.885  10.343 -0.1588  0.4400  0.5924
17824SOL    HW256105   7.272   3.014  10.273  1.0585  0.8039  0.6041
17825SOL     OW56106   5.694   4.275   1.638  0.1505 -0.1804  0.6718
17825SOL    HW156107   5.631   4.304   1.572  0.0905  0.4279  0.9810
17825SOL    HW256108   5.646   4.280   1.721 -0.5115 -3.1211  0.5673
17826SOL     OW56109   6.869   9.975   8.567  0.4323 -0.3805 -0.1526
17826SOL    HW156110   6.787  10.022   8.584 -0.0565 -1.1712 -0.2849
17826SOL    HW256111   6.938  10.038   8.590 -0.2096  0.2047  0.2010
17827SOL     OW56112   8.852   3.697   9.554 -0.3228  0.4898  0.6789
17827SOL    HW156113   8.920   3.644   9.596  0.5555  1.9739  1.1899
17827SOL    HW256114   8.840   3.656   9.468  0.0064 -0.7883  1.2133
17828SOL     OW56115   2.047   7.468  10.144  0.3971 -0.4698  0.5965
17828SOL    HW156116   2.028   7.385  10.101  2.0451 -1.0858  0.9616
17828SOL    HW256117   2.134   7.492  10.111 -0.5132  1.7105 -0.3801
17829SOL     OW56118   5.761   2.076   9.731  0.4667  0.1004  0.1603
17829SOL    HW156119   5.805   2.035   9.806  0.0315 -2.2274 -0.7523
17829SOL    HW256120   5.825   2.070   9.660  0.6193  1.6442  0.1445
17830SOL     OW56121   6.416   2.558   1.767  0.2616 -0.0080  0.4248
17830SOL    HW156122   6.424   2.582   1.859  0.8294 -0.4166  0.4842
17830SOL    HW256123   6.363   2.628   1.729 -2.2502 -1.1705  1.5798
17831SOL     OW56124   7.313   7.164   4.542  0.2058  0.0571  0.5144
17831SOL    HW156125   7.359   7.114   4.610 -0.2945 -1.2215 -0.0505
17831SOL    HW256126   7.336   7.120   4.460 -2.8210 -1.4047  0.2814
17832SOL     OW56127   2.887   8.535   8.540  0.4302 -0.2954 -0.4267
17832SOL    HW156128   2.894   8.573   8.628  0.6303 -0.5553 -0.3301
17832SOL    HW256129   2.968   8.560   8.497  0.3063 -0.1180 -0.5593
17833SOL     OW56130   3.557   9.472   3.733  0.2153 -0.3697  0.7483
17833SOL    HW156131   3.581   9.500   3.821  0.3337  0.2379  0.5309
17833SOL    HW256132   3.617   9.520   3.676  0.1845 -0.8154  0.3436
17834SOL     OW56133   9.059   9.329   9.933 -0.8254 -0.3868 -0.1893
17834SOL    HW156134   9.039   9.269   9.861  1.8737 -1.5298 -0.1109
17834SOL    HW256135   9.154   9.343   9.926 -1.1885  3.1562  0.4084
17835SOL     OW56136   5.284   8.781   2.730  0.2403  0.0391 -0.0366
17835SOL    HW156137   5.250   8.862   2.692  0.3251 -0.4108 -1.1344
17835SOL    HW256138   5.370   8.805   2.764  0.2384  0.4292 -0.3024
17836SOL     OW56139   3.464   4.443   8.480  0.0432 -0.2614  0.1334
17836SOL    HW156140   3.493   4.510   8.419  1.5419  0.9590  2.0545
17836SOL    HW256141   3.527   4.372   8.469 -0.9406 -0.9592 -1.1818
17837SOL     OW56142   3.886   2.450   6.328  0.6325 -0.0143 -0.2449
17837SOL    HW156143   3.898   2.396   6.250  1.3744 -0.9588  0.5023
17837SOL    HW256144   3.862   2.536   6.294 -1.8358 -1.0997 -1.4284
17838SOL     OW56145   9.915   5.607   9.926  0.0370  0.1137 -0.5019
17838SOL    HW156146   9.976   5.539   9.898  0.0120 -0.1925  0.1452
17838SOL    HW256147   9.956   5.689   9.900  0.1290 -0.1451 -1.1838
17839SOL     OW56148   2.702   4.319   5.334  0.0101 -0.1021 -0.0355
17839SOL    HW156149   2.637   4.388   5.346  1.1704  1.2705 -1.2846
17839SOL    HW256150   2.651   4.239   5.322 -1.3871  0.6874  0.4568
17840SOL     OW56151   3.278   0.419   6.625 -0.7467  0.6017  0.0635
17840SOL    HW156152   3.298   0.399   6.716 -1.1630  0.8913  0.2225
17840SOL    HW256153   3.196   0.468   6.629 -1.6029 -0.7227 -0.5712
17841SOL     OW56154   3.313   7.281   8.133 -0.0622 -0.2857  0.4234
17841SOL    HW156155   3.308   7.196   8.090 -2.7824 -0.1748  0.3679
17841SOL    HW256156   3.294   7.345   8.064  1.4375  0.3700  0.5733
17842SOL     OW56157   3.675   3.880   5.919  0.3593 -0.2743  0.0449
17842SOL    HW156158   3.617   3.813   5.883 -0.8975  0.2624  0.9693
17842SOL    HW256159   3.626   3.962   5.909  0.0356 -0.0572  2.6050
17843SOL     OW56160   8.121   8.012   5.039  0.4141 -0.2601  0.2335
17843SOL    HW156161   8.188   7.999   4.972  2.8072 -1.3104  2.6544
17843SOL    HW256162   8.135   8.101   5.071  0.8234 -0.5429  0.8670
17844SOL     OW56163   0.775   6.359   5.870 -0.2571 -0.2342  0.1883
17844SOL    HW156164   0.712   6.313   5.814 -0.5100 -0.6749  0.8325
17844SOL    HW256165   0.721   6.404   5.935 -0.2130  2.7023 -1.5632
17845SOL     OW56166   2.647   9.839   6.769 -0.1293 -0.1584 -0.1593
17845SOL    HW156167   2.612   9.885   6.846 -1.2578 -0.7429 -0.3216
17845SOL    HW256168   2.708   9.775   6.805  0.2266  0.3579  0.1697
17846SOL     OW56169   9.349   3.890   9.204  0.7475  0.1661 -0.6105
17846SOL    HW156170   9.359   3.858   9.293  0.6327 -1.3453 -1.1151
17846SOL    HW256171   9.254   3.893   9.189  0.6954  2.0667 -0.1400
17847SOL     OW56172   6.024   3.957   9.352 -0.4313 -0.3165 -0.6378
17847SOL    HW156173   6.015   3.864   9.370 -4.1327 -0.2450 -1.3841
17847SOL    HW256174   6.006   4.000   9.436 -0.4437 -0.2518 -0.6729
17848SOL     OW56175   3.722   4.735   4.606  0.4785 -0.1982 -0.2552
17848SOL    HW156176   3.810   4.753   4.573  0.6954  1.3708  1.0263
17848SOL    HW256177   3.666   4.737   4.528  1.4422 -0.2120 -0.9632
17849SOL     OW56178   5.255   9.099   3.557 -0.9643 -0.4662  0.3177
17849SOL    HW156179   5.167   9.132   3.572 -1.1572 -0.9758  0.3563
17849SOL    HW256180   5.245   9.038   3.484 -1.0491 -2.1191  1.6343
17850SOL     OW56181   8.966   2.489   4.579 -0.1250 -0.9147 -0.1320
17850SOL    HW156182   8.874   2.512   4.564 -0.0901 -0.8901 -0.3042
17850SOL    HW256183   8.966   2.446   4.665 -0.1079  0.1780  0.4311
17851SOL     OW56184   8.739   5.044   8.061 -0.1745  0.2931  0.2951
17851SOL    HW156185   8.781   5.032   7.976 -1.3181  1.3138 -0.4447
17851SOL    HW256186   8.696   4.961   8.079 -0.1499  0.1655 -0.2425
17852SOL     OW56187   2.668   0.633  10.027 -0.3283  0.4761  0.1347
17852SOL    HW156188   2.624   0.624  10.111  0.7966 -1.5137  0.5644
17852SOL    HW256189   2.597   0.636   9.963 -1.1913  1.8771  1.1011
17853SOL     OW56190   0.415   7.042   4.659 -0.2544 -0.3307  0.9930
17853SOL    HW156191   0.500   7.025   4.617 -1.0059 -2.0669  0.0723
17853SOL    HW256192   0.438   7.085   4.742  1.5055 -0.5338  0.6623
17854SOL     OW56193   8.149   5.472   2.842 -0.5113 -0.6003  0.0202
17854SOL    HW156194   8.070   5.522   2.862 -0.7410 -1.2791  0.8349
17854SOL    HW256195   8.137   5.388   2.886  0.9606 -0.4683  0.7456
17855SOL     OW56196   1.367   1.414   1.041 -0.1137 -0.2353 -0.4158
17855SOL    HW156197   1.350   1.460   1.123  2.8678  0.1953  0.0624
17855SOL    HW256198   1.348   1.479   0.973  0.0610  0.3353  0.0678
17856SOL     OW56199   5.074   1.158   8.645 -0.2721  0.1360  0.2761
17856SOL    HW156200   5.040   1.239   8.607 -0.7353 -1.3812 -2.8724
17856SOL    HW256201   5.163   1.151   8.610 -0.9853 -1.7155 -1.3596
17857SOL     OW56202   3.701   0.536   8.725  0.0381  0.0272  0.8323
17857SOL    HW156203   3.662   0.620   8.701 -0.1395  0.6750  3.1298
17857SOL    HW256204   3.680   0.478   8.652 -0.3374  1.8075 -0.5564
17858SOL     OW56205   9.466   5.956   9.165  0.1677 -0.4130  0.5348
17858SOL    HW156206   9.403   5.896   9.125  0.4876  1.1668 -2.6792
17858SOL    HW256207   9.550   5.932   9.126  0.8205  0.2182  1.5014
17859SOL     OW56208   2.681   7.469   1.780 -0.3387 -0.4605 -0.2362
17859SOL    HW156209   2.634   7.402   1.731 -1.5974  0.8382 -0.8780
17859SOL    HW256210   2.615   7.509   1.837  0.5597 -0.2852  0.7194
17860SOL     OW56211   8.676   2.057   5.324 -0.1249 -0.0944  0.4357
17860SOL    HW156212   8.614   2.004   5.273 -1.9344  1.5026  0.8179
17860SOL    HW256213   8.677   2.142   5.279  1.1822  0.1704  0.9266
17861SOL     OW56214   2.231   9.915   7.806 -0.0375  0.1558  0.1151
17861SOL    HW156215   2.148   9.900   7.760  0.5795  0.5305 -1.1727
17861SOL    HW256216   2.286   9.960   7.742  2.2167 -2.7021 -0.1863
17862SOL     OW56217   2.342   7.737   7.913 -0.7307 -0.1136  0.0662
17862SOL    HW156218   2.376   7.669   7.971  1.3888  0.5004 -0.3563
17862SOL    HW256219   2.400   7.811   7.927 -3.0724  1.7340  0.6458
17863SOL     OW56220   3.095   1.282   1.911  0.0424  0.0584  0.2080
17863SOL    HW156221   3.004   1.257   1.896 -0.0162  0.9634 -1.0650
17863SOL    HW256222   3.144   1.239   1.840  0.5398  0.0028  0.5750
17864SOL     OW56223   7.208   8.426   2.326 -0.7518 -0.0172 -0.1251
17864SOL    HW156224   7.162   8.478   2.261 -0.8210 -0.4439 -0.4195
17864SOL    HW256225   7.201   8.336   2.294  0.0105 -0.1195 -0.0056
17865SOL     OW56226   9.083  10.020   0.501  0.0490 -0.1759  0.3249
17865SOL    HW156227   9.120  10.109   0.497  0.9387 -0.5910 -1.2844
17865SOL    HW256228   9.035  10.011   0.419 -1.4007 -0.6350  1.1990
17866SOL     OW56229   9.273  10.197   1.428 -0.5570  0.1354 -0.1178
17866SOL    HW156230   9.199  10.257   1.413 -1.0727 -0.6228 -0.6894
17866SOL    HW256231   9.314  10.188   1.342 -1.0129 -1.0064 -0.2288
17867SOL     OW56232   3.478   0.568   3.019 -0.0902  0.7416 -0.0522
17867SOL    HW156233   3.526   0.505   2.966  1.0475  1.9426 -0.5133
17867SOL    HW256234   3.527   0.574   3.101 -0.8393  0.2026  0.4486
17868SOL     OW56235   6.060   1.721   0.381  0.4127  0.1937 -0.6128
17868SOL    HW156236   5.972   1.701   0.413  1.2068 -1.6084  0.6692
17868SOL    HW256237   6.059   1.696   0.289  0.0737 -1.7404 -0.1336
17869SOL     OW56238   0.782   8.148   7.683 -0.2168 -0.4404  0.5347
17869SOL    HW156239   0.755   8.056   7.681 -0.3896 -0.3929  0.6197
17869SOL    HW256240   0.737   8.184   7.760 -0.0178 -0.3269  0.5976
17870SOL     OW56241   9.439   9.087   0.719 -0.1078  0.2444  0.0386
17870SOL    HW156242   9.362   9.113   0.770 -0.7032 -0.3924 -0.5110
17870SOL    HW256243   9.464   9.167   0.673 -0.1761  0.5704  0.5588
17871SOL     OW56244   3.741   9.000   1.649 -0.2930  0.4507  0.8278
17871SOL    HW156245   3.766   8.930   1.589 -0.7215  0.9269  0.0845
17871SOL    HW256246   3.692   8.956   1.719  0.2604 -0.1097  0.8709
17872SOL     OW56247   2.173   0.677   5.301 -0.2320 -0.5336  0.5300
17872SOL    HW156248   2.194   0.586   5.323  0.0903 -0.6625 -0.2594
17872SOL    HW256249   2.250   0.708   5.253 -1.4358 -0.7273 -1.6508
17873SOL     OW56250   6.270   9.374   0.054 -0.3634 -0.8197  0.3276
17873SOL    HW156251   6.212   9.379  -0.021 -1.6908 -1.4710  1.2617
17873SOL    HW256252   6.325   9.452   0.049  0.1497 -1.2642 -1.7422
17874SOL     OW56253   4.468   4.609   4.718 -0.2915 -0.0740 -0.1444
17874SOL    HW156254   4.529   4.552   4.766  0.3554 -0.3007 -1.2046
17874SOL    HW256255   4.381   4.577   4.742  0.0194 -0.2617  0.7651
17875SOL     OW56256   7.950   0.413   8.755  0.1398  0.7075  0.2763
17875SOL    HW156257   8.029   0.465   8.769  0.1872  0.0124  3.2415
17875SOL    HW256258   7.974   0.324   8.782 -0.2664 -0.7645 -3.5857
17876SOL     OW56259   0.447   6.505   8.750  0.0331 -0.0009 -0.0561
17876SOL    HW156260   0.430   6.599   8.738  0.5456  0.0393 -0.5307
17876SOL    HW256261   0.476   6.476   8.664 -2.6793 -1.1796 -0.6671
17877SOL     OW56262   1.296   3.742   2.257  1.2346 -0.0593  0.2764
17877SOL    HW156263   1.361   3.733   2.327  0.3949 -0.0253  1.0940
17877SOL    HW256264   1.334   3.806   2.197  1.7066  0.4038  1.0446
17878SOL     OW56265   8.559   4.936   5.022  0.5270  0.2019  0.3107
17878SOL    HW156266   8.526   4.915   5.109  1.1197 -0.1965  0.4433
17878SOL    HW256267   8.481   4.940   4.967  0.2722 -0.9852  0.5665
17879SOL     OW56268   5.340   1.570   9.761 -0.8002  0.0079 -0.4083
17879SOL    HW156269   5.367   1.479   9.756 -0.2689  0.1889 -1.0050
17879SOL    HW256270   5.274   1.580   9.693 -0.2743  0.2542 -0.8930
17880SOL     OW56271   8.553   6.074   6.356 -0.1655 -0.1471  0.0752
17880SOL    HW156272   8.560   6.056   6.262 -1.4326  0.4819 -0.1673
17880SOL    HW256273   8.640   6.055   6.391  0.2750 -0.5736 -1.1916
17881SOL     OW56274   4.422   1.977   2.137 -0.1026  0.0175  0.6482
17881SOL    HW156275   4.433   1.932   2.220  1.0246 -3.2017 -1.0802
17881SOL    HW256276   4.511   2.003   2.111 -0.4661  1.1889  0.5113
17882SOL     OW56277   7.522   1.662   4.836 -0.4752 -0.0796  0.4027
17882SOL    HW156278   7.562   1.745   4.812  0.3219 -0.2464  1.0943
17882SOL    HW256279   7.443   1.686   4.883 -0.7893  0.2657 -0.2840
17883SOL     OW56280   7.129   3.385   4.900  0.7547 -0.2828 -0.3749
17883SOL    HW156281   7.171   3.299   4.892  0.4442 -0.3088 -2.1252
17883SOL    HW256282   7.199   3.448   4.885  0.7125 -0.2744 -0.5455
17884SOL     OW56283   7.654   3.692   0.023 -0.0368 -0.1189 -0.4630
17884SOL    HW156284   7.642   3.617  -0.036  1.8995  0.0302 -1.1236
17884SOL    HW256285   7.665   3.652   0.110 -1.6568 -0.4073 -0.3546
17885SOL     OW56286   9.102   8.776   6.409 -0.2054  1.0908 -0.4396
17885SOL    HW156287   9.159   8.745   6.339 -1.3791 -1.5293 -0.3406
17885SOL    HW256288   9.147   8.750   6.490 -0.8271  0.3273 -0.3321
17886SOL     OW56289   8.826   7.488   4.938  0.6714  0.0231 -0.1781
17886SOL    HW156290   8.891   7.421   4.914  1.1045  0.7905 -1.2322
17886SOL    HW256291   8.823   7.546   4.862 -0.3714  0.6862  0.3569
17887SOL     OW56292   9.699   5.971   4.961  0.1240 -0.3588 -0.5036
17887SOL    HW156293   9.758   5.899   4.939  1.2045  0.7910 -1.4829
17887SOL    HW256294   9.644   5.983   4.884  1.3893  1.2181 -1.2212
17888SOL     OW56295   3.688   4.091   8.297  0.8563  0.1472  0.2973
17888SOL    HW156296   3.616   4.034   8.267  1.4562 -1.0526  1.0561
17888SOL    HW256297   3.733   4.116   8.217 -0.1395  0.5704 -0.1552
17889SOL     OW56298   4.694   2.008   9.531 -0.0780  0.1736 -0.6653
17889SOL    HW156299   4.614   1.956   9.540 -0.4839  0.6337 -1.5132
17889SOL    HW256300   4.748   1.982   9.606 -1.4332  0.6016  0.4994
17890SOL     OW56301   8.618   3.893   2.546 -0.4505 -0.0773 -0.2456
17890SOL    HW156302   8.552   3.824   2.535  0.2623 -0.6230 -1.2635
17890SOL    HW256303   8.570   3.966   2.584 -1.0057 -1.5092  2.0586
17891SOL     OW56304   1.191   8.665   5.359 -0.7073  0.2277 -0.3626
17891SOL    HW156305   1.160   8.576   5.344  0.1260 -0.0207 -0.6799
17891SOL    HW256306   1.257   8.679   5.291 -0.4617  0.8992  0.0073
17892SOL     OW56307   7.037   4.369   4.470 -0.2643 -0.4094 -0.5372
17892SOL    HW156308   7.001   4.422   4.541 -3.2404 -0.8225 -1.6295
17892SOL    HW256309   7.122   4.410   4.452 -0.4503  1.1531  1.6315
17893SOL     OW56310   5.906   5.021   3.277 -0.0996 -0.2320 -0.3695
17893SOL    HW156311   5.831   4.972   3.244 -1.8389  1.7385  0.3986
17893SOL    HW256312   5.897   5.017   3.372  0.9325 -0.1946 -0.2665
17894SOL     OW56313   7.653   1.058   1.747 -0.5528 -0.4010 -0.1297
17894SOL    HW156314   7.658   0.970   1.711  0.0453 -0.1163 -0.7548
17894SOL    HW256315   7.664   1.116   1.672 -0.7692  0.2108  0.3002
17895SOL     OW56316   9.439   0.574   1.095 -0.1411 -0.1593 -0.5706
17895SOL    HW156317   9.404   0.654   1.133  0.4086 -0.3033  0.2514
17895SOL    HW256318   9.372   0.508   1.114  0.3887 -0.3623  0.7090
17896SOL     OW56319   3.019   2.638   7.059  0.5077 -0.0064 -0.3747
17896SOL    HW156320   2.991   2.612   7.147  0.3576 -0.7758 -0.6409
17896SOL    HW256321   3.068   2.719   7.072 -2.9992  2.3011  0.0134
17897SOL     OW56322  10.062   0.496   1.068 -0.5140  0.7440  0.7073
17897SOL    HW156323  10.149   0.535   1.078 -1.3400  2.6268  1.0065
17897SOL    HW256324  10.065   0.415   1.118  2.2571 -1.3428 -2.4031
17898SOL     OW56325   8.683   8.075   3.464 -0.9866 -0.0444  0.0093
17898SOL    HW156326   8.612   8.031   3.511 -0.2710 -0.0337  1.1376
17898SOL    HW256327   8.727   8.127   3.531  0.4458 -0.4987 -0.5502
17899SOL     OW56328   4.278  10.302   9.709 -0.2732 -0.1280 -0.2181
17899SOL    HW156329   4.292  10.368   9.776  1.7732  0.2391 -0.9457
17899SOL    HW256330   4.314  10.339   9.629 -2.9951 -0.3891 -1.7090
17900SOL     OW56331   2.992   2.038   0.588 -0.0166  0.0668 -0.3578
17900SOL    HW156332   2.992   1.945   0.612  0.0371 -0.1073 -1.0184
17900SOL    HW256333   2.918   2.075   0.636  0.8812  0.0158  1.1524
17901SOL     OW56334   1.736   6.081   1.612  0.1448 -0.2313  0.1192
17901SOL    HW156335   1.768   6.086   1.522  0.2781 -1.1996  0.0974
17901SOL    HW256336   1.815   6.073   1.665 -0.0016 -2.3998  0.0823
17902SOL     OW56337   0.121   4.660   6.877 -0.0607  0.2881  0.4378
17902SOL    HW156338   0.100   4.572   6.908  0.5631 -0.4199 -1.0126
17902SOL    HW256339   0.039   4.693   6.841  0.4013 -1.1628 -2.2281
17903SOL     OW56340   8.540   0.827   7.255 -0.0332 -0.0891  0.0279
17903SOL    HW156341   8.626   0.786   7.264  0.7982  1.4536 -0.4175
17903SOL    HW256342   8.496   0.811   7.338  2.0117  1.9398  1.6293
17904SOL     OW56343   4.908   5.680   3.486  0.3710 -0.1700  0.1315
17904SOL    HW156344   4.933   5.595   3.524 -0.5869 -0.2864  0.5096
17904SOL    HW256345   4.858   5.723   3.555 -1.1332 -0.2535 -0.8693
17905SOL     OW56346   6.844   2.296   4.800 -0.1511  0.3667  0.4732
17905SOL    HW156347   6.870   2.235   4.731  0.1792 -0.7508  1.5654
17905SOL    HW256348   6.832   2.379   4.754  0.9642 -0.1269 -0.7946
17906SOL     OW56349   0.012   8.404   6.546 -0.4082  0.0613  0.3526
17906SOL    HW156350  -0.081   8.428   6.544 -0.2467  0.6830 -1.6065
17906SOL    HW256351   0.057   8.477   6.503  0.8857 -0.6331  0.4842
17907SOL     OW56352   2.872   8.659   4.038  0.3942 -0.0851 -0.5459
17907SOL    HW156353   2.880   8.674   4.132  0.9716 -1.4557 -0.3520
17907SOL    HW256354   2.949   8.606   4.015 -0.3863 -0.8470 -1.5345
17908SOL     OW56355   5.063   3.156   2.333 -0.3561  0.3812  0.4082
17908SOL    HW156356   5.145   3.111   2.351 -0.7255  0.5864  2.9607
17908SOL    HW256357   5.048   3.142   2.240  1.8742 -0.7951  0.1590
17909SOL     OW56358   0.385   7.257   2.577 -0.0599  0.3788 -1.0752
17909SOL    HW156359   0.445   7.225   2.645 -1.2687  2.3443  1.0650
17909SOL    HW256360   0.361   7.179   2.528 -0.3351 -1.5169  1.7983
17910SOL     OW56361   5.594   7.248   5.438  0.4087 -0.0918 -0.3355
17910SOL    HW156362   5.667   7.220   5.494  2.0486  1.0902 -1.7564
17910SOL    HW256363   5.604   7.196   5.358 -1.0304 -0.7363 -0.1204
17911SOL     OW56364   6.397   3.942   2.462 -0.0750  0.3201 -0.3647
17911SOL    HW156365   6.360   3.854   2.468  0.1043  0.3079  0.9499
17911SOL    HW256366   6.353   3.982   2.387 -0.1255 -0.8923 -1.0121
17912SOL     OW56367   4.799   3.459   9.507  0.4882 -0.0340  0.3587
17912SOL    HW156368   4.735   3.522   9.472 -0.8560 -1.5045  0.0327
17912SOL    HW256369   4.868   3.514   9.545  0.1213  1.6220 -1.2232
17913SOL     OW56370   1.594   9.742   2.318 -0.5095  0.7407 -0.2136
17913SOL    HW156371   1.614   9.659   2.360 -1.1038 -0.4531 -2.1613
17913SOL    HW256372   1.518   9.775   2.365 -1.0251 -0.4311 -0.1948
17914SOL     OW56373   3.481   5.617   7.244  0.0150  0.1692 -0.3264
17914SOL    HW156374   3.533   5.675   7.300  1.6378  0.8899 -2.4600
17914SOL    HW256375   3.480   5.533   7.291  1.7129  0.6029  0.5516
17915SOL     OW56376   7.231   6.408   4.385 -0.3831  0.0739 -0.0006
17915SOL    HW156377   7.285   6.485   4.405  0.0208  0.0665 -1.0319
17915SOL    HW256378   7.142   6.436   4.406 -0.4674  1.4326 -1.9530
17916SOL     OW56379   0.060   6.785  10.130  0.3286  0.3465  0.1971
17916SOL    HW156380   0.008   6.859  10.099 -1.1745  0.4840  2.8163
17916SOL    HW256381   0.008   6.708  10.108 -0.5380  0.4209  1.8334
17917SOL     OW56382   5.573   7.224   3.306  0.3612 -0.1173 -0.2413
17917SOL    HW156383   5.565   7.317   3.328  0.7390 -0.6102  2.2949
17917SOL    HW256384   5.634   7.189   3.371 -0.9668 -2.4151 -0.1036
17918SOL     OW56385   5.799   0.786   7.602  0.2579 -0.3300  0.4000
17918SOL    HW156386   5.799   0.741   7.686 -0.3294  1.8368  1.6123
17918SOL    HW256387   5.708   0.811   7.587  0.6227  0.7898 -0.0483
17919SOL     OW56388   1.895   0.189   4.318 -0.1657  0.3091 -0.1626
17919SOL    HW156389   1.857   0.132   4.252  1.8716  0.6538 -1.7275
17919SOL    HW256390   1.823   0.208   4.378 -1.3907 -2.2384 -0.7087
17920SOL     OW56391   2.278   6.690   0.756  0.1042 -0.0473 -0.1372
17920SOL    HW156392   2.341   6.696   0.684 -0.8738  0.9492 -0.9363
17920SOL    HW256393   2.271   6.596   0.773  1.0190 -0.2364 -0.7295
17921SOL     OW56394   8.471   3.008   2.492  0.6422  0.5947 -0.2475
17921SOL    HW156395   8.530   2.967   2.430 -0.3155  0.3623 -1.0257
17921SOL    HW256396   8.440   2.937   2.547  0.3531  0.5565 -0.4568
17922SOL     OW56397   7.896   1.953   4.697  0.1098 -0.4196 -0.3031
17922SOL    HW156398   7.879   1.929   4.606 -1.4665 -0.4707 -0.0180
17922SOL    HW256399   7.971   2.012   4.692 -0.0102 -0.3480 -1.6457
17923SOL     OW56400   5.902   0.471   9.834  0.1760 -0.0019 -0.3812
17923SOL    HW156401   5.890   0.383   9.871 -0.4916  0.6188  0.9285
17923SOL    HW256402   5.824   0.519   9.860  1.0012  1.2870 -0.1879
17924SOL     OW56403   2.333   5.712   2.726  0.0382 -0.0564  0.0027
17924SOL    HW156404   2.277   5.662   2.667 -0.5695  0.1097  0.4310
17924SOL    HW256405   2.286   5.713   2.809  0.1875  0.9418  0.0894
17925SOL     OW56406   5.074   3.182  10.023 -0.2256 -0.3229  0.7906
17925SOL    HW156407   5.125   3.133  10.087 -1.2019 -0.0182  1.8307
17925SOL    HW256408   5.082   3.273  10.049  0.4460 -0.0437 -0.3216
17926SOL     OW56409   8.666   8.098   9.276 -0.4822 -0.2124 -0.4209
17926SOL    HW156410   8.748   8.147   9.279 -0.2711 -0.6037  0.1264
17926SOL    HW256411   8.600   8.165   9.257 -0.4029  0.5478  1.7459
17927SOL     OW56412   5.351   3.360   2.510 -0.2758 -0.0225  0.1452
17927SOL    HW156413   5.364   3.280   2.562  0.0072  0.7208  1.2497
17927SOL    HW256414   5.264   3.349   2.472 -0.1446 -0.9624  0.0958
17928SOL     OW56415   7.518   2.670   9.577  0.2647  0.8406  0.3450
17928SOL    HW156416   7.568   2.651   9.497  0.9290 -0.1865  0.9728
17928SOL    HW256417   7.566   2.741   9.619 -0.8905  2.3864 -0.8457
17929SOL     OW56418   4.212   3.896   2.974 -0.0991 -0.3202 -0.0863
17929SOL    HW156419   4.243   3.841   2.902  1.2139 -0.6469  0.6960
17929SOL    HW256420   4.168   3.835   3.033 -0.0247 -0.2680  0.0222
17930SOL     OW56421   2.639   5.884   3.592  0.3090 -0.2376 -0.5710
17930SOL    HW156422   2.667   5.805   3.638  0.0840  0.2344  0.4038
17930SOL    HW256423   2.545   5.873   3.581  0.3736 -0.3818 -0.9908
17931SOL     OW56424   2.821   7.443   6.849 -0.1894  0.5531 -0.1832
17931SOL    HW156425   2.903   7.394   6.838 -1.0904 -0.9001 -0.7103
17931SOL    HW256426   2.779   7.438   6.763 -0.6287  1.6773 -0.0429
17932SOL     OW56427   3.679   6.249   5.924  0.3876 -0.2816  0.3055
17932SOL    HW156428   3.583   6.246   5.923  0.3821 -2.7783  0.8901
17932SOL    HW256429   3.702   6.286   6.009 -0.1123 -1.4421  0.9753
17933SOL     OW56430   2.307   5.207   8.441 -0.3318  0.3435 -0.2468
17933SOL    HW156431   2.394   5.235   8.411 -0.4854 -0.7402 -1.8477
17933SOL    HW256432   2.325   5.149   8.515  0.3242  0.3064 -0.4276
17934SOL     OW56433   9.169   6.999   8.714  0.4750 -0.3127 -0.0544
17934SOL    HW156434   9.172   7.019   8.620 -0.6964 -1.6218 -0.4129
17934SOL    HW256435   9.143   6.907   8.717  0.4598 -0.2750  1.5695
17935SOL     OW56436   8.348   3.850   6.516  0.1060  0.7225  0.0298
17935SOL    HW156437   8.296   3.810   6.446 -1.7550 -0.1843  1.8337
17935SOL    HW256438   8.423   3.792   6.526 -0.0662  0.3778 -0.6023
17936SOL     OW56439   2.746   5.572   0.210 -0.2523  0.0508  0.1439
17936SOL    HW156440   2.664   5.595   0.255 -0.2229  2.0845 -0.7599
17936SOL    HW256441   2.811   5.569   0.280 -1.0334 -1.4921  0.8612
17937SOL     OW56442   4.902   9.970   8.990 -0.3123 -0.0092  0.6000
17937SOL    HW156443   4.991   9.938   8.974 -0.5232 -0.3220 -0.0107
17937SOL    HW256444   4.897  10.052   8.940 -1.2829 -1.4756 -1.9029
17938SOL     OW56445   3.999   3.519   7.255 -0.2864 -0.7164 -0.6496
17938SOL    HW156446   3.926   3.458   7.262  0.6455 -1.7451  0.4875
17938SOL    HW256447   4.050   3.488   7.180 -1.7633  0.8960 -2.4153
17939SOL     OW56448   0.319   0.220   5.716 -0.1537  0.2409 -0.0034
17939SOL    HW156449   0.345   0.172   5.638 -1.6083 -0.1754 -0.2702
17939SOL    HW256450   0.352   0.309   5.702 -0.0689  0.0761 -0.9201
17940SOL     OW56451   7.228   4.516   8.922  0.1733  0.0014  0.2212
17940SOL    HW156452   7.234   4.434   8.970  1.3145 -0.7044 -1.0467
17940SOL    HW256453   7.274   4.580   8.977 -0.6612 -0.1950  1.1755
17941SOL     OW56454   0.557   2.987   7.150  0.6327  0.3868  0.0442
17941SOL    HW156455   0.472   2.952   7.176  0.8816  0.5321  1.1099
17941SOL    HW256456   0.570   3.064   7.206  1.8527 -0.1419  0.5338
17942SOL     OW56457   6.827   8.646   4.882 -0.2289 -0.0927 -0.0488
17942SOL    HW156458   6.804   8.673   4.793 -1.5722  0.1056  0.3264
17942SOL    HW256459   6.786   8.713   4.938  1.9755  0.7310  0.6908
17943SOL     OW56460   9.820   3.450   2.207 -0.5418 -0.0306 -0.3775
17943SOL    HW156461   9.792   3.516   2.143 -1.2600  0.5119  0.4739
17943SOL    HW256462   9.762   3.463   2.282 -2.3943 -3.2003 -1.0630
17944SOL     OW56463   8.083   5.979   1.179 -0.1821  0.1132  0.4087
17944SOL    HW156464   8.174   5.995   1.156  0.3877 -0.6082  2.0471
17944SOL    HW256465   8.058   5.903   1.127 -0.2984  1.1247 -1.0665
17945SOL     OW56466   6.215   6.426   6.703  0.2288 -0.5651  0.0411
17945SOL    HW156467   6.275   6.496   6.729  1.7745 -1.2972 -1.3707
17945SOL    HW256468   6.198   6.443   6.610 -1.6984 -0.4706  0.3516
17946SOL     OW56469   8.088   2.597   3.181  0.1662 -0.4150  0.3548
17946SOL    HW156470   8.040   2.575   3.100 -3.1381  0.9064  1.7578
17946SOL    HW256471   8.067   2.689   3.196 -0.0283 -0.8256  3.1068
17947SOL     OW56472   0.242   9.090   7.408  0.2321  0.4323 -0.3711
17947SOL    HW156473   0.244   9.162   7.345  1.2772 -0.3415 -1.2662
17947SOL    HW256474   0.334   9.067   7.420 -0.0729 -0.5463  0.1403
17948SOL     OW56475   9.418   7.287   3.264  0.0147 -0.1318 -0.1283
17948SOL    HW156476   9.368   7.297   3.183 -0.7182 -2.4779 -0.0302
17948SOL    HW256477   9.361   7.324   3.332 -1.2745 -1.9177 -0.1532
17949SOL     OW56478   3.655   1.968   8.233  0.4265  0.6270 -0.0847
17949SOL    HW156479   3.655   1.886   8.283  2.1942  0.6083 -0.0370
17949SOL    HW256480   3.584   1.959   8.170 -0.6620 -0.1140  1.2122
17950SOL     OW56481   4.329   0.897   8.708  0.0011 -0.1133  0.1993
17950SOL    HW156482   4.410   0.940   8.735  1.1397 -0.3033 -2.6284
17950SOL    HW256483   4.357   0.823   8.655 -2.0090 -0.5029 -0.4006
17951SOL     OW56484   9.401   1.823   7.095 -0.1808 -0.2590  0.3922
17951SOL    HW156485   9.482   1.772   7.092 -0.3452 -0.5259 -3.0481
17951SOL    HW256486   9.424   1.908   7.057 -0.8990  0.7952  2.1582
17952SOL     OW56487   0.872   6.709   8.175  0.0038 -0.1143  0.1681
17952SOL    HW156488   0.873   6.738   8.084  1.2303 -0.0827  0.1730
17952SOL    HW256489   0.922   6.628   8.175 -0.5627 -0.4770  0.7141
17953SOL     OW56490   7.976   4.100   8.412  0.6108  0.0378 -0.0740
17953SOL    HW156491   7.959   4.194   8.417  2.0078  0.4524 -1.9347
17953SOL    HW256492   8.036   4.083   8.484  0.4254  0.5792  0.2200
17954SOL     OW56493   9.014   2.514   9.782 -0.1053 -0.2976  0.3799
17954SOL    HW156494   8.960   2.440   9.755 -2.0531  0.6764  1.4270
17954SOL    HW256495   9.071   2.478   9.850 -0.4110 -1.0343  0.2568
17955SOL     OW56496   9.141   2.664   4.163 -0.0650 -0.1216 -0.4493
17955SOL    HW156497   9.098   2.684   4.080 -0.2221  2.1979  0.1288
17955SOL    HW256498   9.069   2.658   4.227  0.1623 -0.4729 -0.2186
17956SOL     OW56499   0.240  10.343   9.133  0.2521  0.2551 -0.3252
17956SOL    HW156500   0.149  10.373   9.127 -0.2181 -0.8570  0.7767
17956SOL    HW256501   0.235  10.248   9.126  1.0454 -0.0269  1.9556
17957SOL     OW56502  10.353   8.858   2.407 -0.1747  0.0885 -0.1733
17957SOL    HW156503  10.280   8.851   2.469 -2.0087 -0.4454 -2.2713
17957SOL    HW256504  10.407   8.781   2.425 -0.9672 -0.3415  0.4116
17958SOL     OW56505   8.437   4.557   7.497  0.0250  0.0261 -0.4526
17958SOL    HW156506   8.355   4.511   7.480 -0.2394 -0.0728  1.0060
17958SOL    HW256507   8.448   4.614   7.421 -0.5856 -1.0908 -1.4048
17959SOL     OW56508   0.931   6.854   2.247  0.5512 -0.2202 -0.4868
17959SOL    HW156509   0.894   6.857   2.159 -0.7152 -0.4916  0.0272
17959SOL    HW256510   0.886   6.782   2.290  2.3855 -1.2303 -0.1331
17960SOL     OW56511   4.397   5.465   4.261  0.5056 -0.0995  0.1897
17960SOL    HW156512   4.463   5.531   4.284 -0.6266  1.7316 -1.4963
17960SOL    HW256513   4.437   5.381   4.286  2.6699  1.0811  0.9394
17961SOL     OW56514   0.076   6.808   9.396 -0.2061 -0.0781  0.1529
17961SOL    HW156515  -0.016   6.782   9.400  0.1815 -1.4511  1.5590
17961SOL    HW256516   0.115   6.747   9.333 -0.2820  0.6145 -0.5711
17962SOL     OW56517   2.427   6.299   1.117 -0.3055  0.0808  0.2433
17962SOL    HW156518   2.356   6.363   1.106 -1.2346 -0.6826  1.6034
17962SOL    HW256519   2.431   6.255   1.032 -3.4086 -1.7718  0.8873
17963SOL     OW56520   7.170   7.621   8.702 -0.5768  0.0021  0.2108
17963SOL    HW156521   7.171   7.708   8.661 -0.9068  0.4182  1.0629
17963SOL    HW256522   7.248   7.621   8.758  2.1034 -1.9422 -3.1153
17964SOL     OW56523   5.786  10.181   3.773  0.0789  0.3761  0.5487
17964SOL    HW156524   5.696  10.177   3.806  0.9656 -1.5649  3.0188
17964SOL    HW256525   5.781  10.138   3.687 -1.0649 -1.7844  1.5946
17965SOL     OW56526   5.835   7.309   6.982 -0.0228  0.0284 -0.3117
17965SOL    HW156527   5.783   7.310   6.902 -0.0603 -1.4344 -0.3167
17965SOL    HW256528   5.875   7.397   6.985 -2.6565  1.3124 -0.1469
17966SOL     OW56529   0.136   3.445   0.710 -0.3484 -0.3781 -0.1838
17966SOL    HW156530   0.151   3.460   0.804  2.4914 -0.5382 -0.5191
17966SOL    HW256531   0.055   3.492   0.691 -1.9507 -1.6930  2.6386
17967SOL     OW56532   7.000   4.788   1.649 -0.0677 -0.2874  0.1735
17967SOL    HW156533   7.054   4.866   1.635 -1.0180  0.1239 -1.5393
17967SOL    HW256534   7.031   4.751   1.732  0.5201  1.8255  0.9627
17968SOL     OW56535   1.294   4.397   7.979 -0.0447  0.0228  0.6132
17968SOL    HW156536   1.371   4.453   7.988  0.7878 -1.1622  1.0840
17968SOL    HW256537   1.312   4.342   7.904 -1.1182  0.7431 -0.2096
17969SOL     OW56538   1.468   6.371   2.259  0.2876  0.0159 -0.3720
17969SOL    HW156539   1.386   6.323   2.249  1.2307 -1.7359 -0.0695
17969SOL    HW256540   1.524   6.340   2.188  0.9671  0.6138 -0.1235
17970SOL     OW56541   6.321   3.893   4.766  0.8546  0.5891  0.5723
17970SOL    HW156542   6.264   3.926   4.836  0.7341  0.1436  0.6867
17970SOL    HW256543   6.337   3.970   4.711  0.6881  0.8713  0.9093
17971SOL     OW56544   7.161  10.170   6.573 -0.3423 -0.0692  0.2515
17971SOL    HW156545   7.079  10.150   6.528 -1.1934 -0.2031  1.7915
17971SOL    HW256546   7.185  10.257   6.540 -1.1569  0.0225 -0.1361
17972SOL     OW56547   7.698   6.959   3.659 -0.1545  0.1686  0.0846
17972SOL    HW156548   7.706   6.915   3.744  1.0585 -1.4764 -0.8138
17972SOL    HW256549   7.628   7.023   3.671 -2.1960 -2.1575  1.4360
17973SOL     OW56550   6.172   0.288   9.410  0.3981 -0.5999  0.0525
17973SOL    HW156551   6.155   0.199   9.440  2.3335 -0.9199  0.3324
17973SOL    HW256552   6.124   0.344   9.470  2.5230 -1.3057  2.5631
17974SOL     OW56553   4.282   5.708   4.228 -0.3183 -0.0618  0.3877
17974SOL    HW156554   4.194   5.739   4.250 -0.4802 -1.0673  1.1854
17974SOL    HW256555   4.284   5.617   4.256  0.4482 -0.5434 -1.1008
17975SOL     OW56556   4.448   4.891   4.076  0.1003 -0.0112 -0.0340
17975SOL    HW156557   4.434   4.796   4.071  2.0053 -0.3444  0.1224
17975SOL    HW256558   4.416   4.924   3.992 -0.2586 -0.8322 -0.2370
17976SOL     OW56559   2.959   3.908   4.600 -0.0520  0.0265  0.3644
17976SOL    HW156560   3.036   3.854   4.619 -0.3631 -0.4355  0.3145
17976SOL    HW256561   2.890   3.846   4.579 -0.3638  0.4496  0.1099
17977SOL     OW56562   5.911  10.338   3.283  0.1096  0.2672 -0.8448
17977SOL    HW156563   5.905  10.291   3.200 -0.7206  0.2658 -0.7878
17977SOL    HW256564   5.828  10.385   3.290 -0.2304 -0.4795  0.4338
17978SOL     OW56565   1.063   2.564   8.206 -0.0554  0.1445  0.1076
17978SOL    HW156566   1.152   2.553   8.240 -0.1005 -0.4105  0.0571
17978SOL    HW256567   1.056   2.499   8.136  0.1942  1.5810 -1.3119
17979SOL     OW56568   3.735   4.545   8.587 -0.3693  0.2759  0.4603
17979SOL    HW156569   3.688   4.617   8.544 -1.2844 -0.4716  0.1654
17979SOL    HW256570   3.715   4.468   8.533  0.8691 -0.1505  0.5727
17980SOL     OW56571   2.048   0.740   3.118  0.3972  0.3791  0.3498
17980SOL    HW156572   1.992   0.707   3.047 -0.2916 -2.3362  2.0190
17980SOL    HW256573   2.003   0.819   3.148  0.3613  1.2223 -1.7325
17981SOL     OW56574   9.365   2.708   6.904 -0.2203 -0.1150 -0.1402
17981SOL    HW156575   9.345   2.766   6.977 -0.6179 -1.3371  0.7612
17981SOL    HW256576   9.447   2.741   6.868 -0.0700  0.5707  0.8061
17982SOL     OW56577   8.678   0.666   9.165 -0.3089  0.5383 -0.3447
17982SOL    HW156578   8.687   0.667   9.070 -0.2437  1.9101 -0.3443
17982SOL    HW256579   8.590   0.633   9.180 -0.6714  1.2044 -0.9308
17983SOL     OW56580   3.848   2.616   9.821 -0.4749  0.3204 -0.4886
17983SOL    HW156581   3.780   2.615   9.888 -0.1122  1.9321 -0.0317
17983SOL    HW256582   3.839   2.702   9.779  3.3582  2.2918  1.9787
17984SOL     OW56583   3.402   0.272   8.846  0.4781 -0.3505  0.0036
17984SOL    HW156584   3.405   0.216   8.769  3.0527  0.2391 -0.4002
17984SOL    HW256585   3.371   0.356   8.814 -1.0307 -0.8127  0.1627
17985SOL     OW56586   3.846   0.225   6.823  0.0149 -0.3398 -0.3001
17985SOL    HW156587   3.808   0.169   6.756  0.7493 -1.4535  0.1669
17985SOL    HW256588   3.786   0.219   6.897  1.8392 -3.6084  1.1353
17986SOL     OW56589   6.206   7.280   2.829 -0.0976 -0.1949  0.2778
17986SOL    HW156590   6.230   7.277   2.921 -2.6059 -1.1371  1.0010
17986SOL    HW256591   6.168   7.367   2.816  1.6979  0.5319 -0.3232
17987SOL     OW56592   8.586   2.926   3.506 -0.1217 -0.4619 -0.1893
17987SOL    HW156593   8.591   2.834   3.531 -1.2559 -0.1671  1.2488
17987SOL    HW256594   8.652   2.936   3.437  0.3022 -2.2424 -0.0793
17988SOL     OW56595   0.103   1.141   4.563  0.5628  0.6800  0.5244
17988SOL    HW156596   0.110   1.046   4.557  1.6292  0.7954 -0.2102
17988SOL    HW256597   0.028   1.162   4.508  1.3151  0.3935 -0.6384
17989SOL     OW56598   5.586   5.433   7.152 -0.1513  0.1523 -0.5351
17989SOL    HW156599   5.514   5.496   7.153 -0.4888 -0.2249  0.6085
17989SOL    HW256600   5.655   5.477   7.103 -1.1495  0.5149 -1.6901
17990SOL     OW56601   4.867   2.081   2.354 -0.0568 -0.2309  0.2116
17990SOL    HW156602   4.962   2.078   2.342  0.2729  1.5394  1.9763
17990SOL    HW256603   4.845   1.995   2.389  1.6425  0.6342  3.9767
17991SOL     OW56604   8.295   3.866   2.378  0.0983  0.0831 -0.1366
17991SOL    HW156605   8.219   3.826   2.421  0.3300  2.0971  2.4295
17991SOL    HW256606   8.370   3.817   2.410  0.0552 -0.7051 -1.1856
17992SOL     OW56607   9.582   1.814   3.178  0.6519  0.4089  0.5223
17992SOL    HW156608   9.655   1.778   3.229  1.3097 -0.4185 -0.9458
17992SOL    HW256609   9.621   1.881   3.123  0.3297 -0.0561 -0.2959
17993SOL     OW56610   8.487   6.689   2.517 -0.4521 -0.3558  0.9872
17993SOL    HW156611   8.396   6.716   2.507 -0.2447 -0.3270 -1.3374
17993SOL    HW256612   8.492   6.604   2.475  0.4925 -0.6024  1.5747
17994SOL     OW56613   3.807   4.312   4.262 -0.2526 -0.4191 -0.1462
17994SOL    HW156614   3.833   4.261   4.186  0.0653 -0.2942 -0.1226
17994SOL    HW256615   3.748   4.255   4.311  0.4982 -0.9603  0.1499
17995SOL     OW56616   8.981   6.783   5.475  0.6080  0.2831  0.2085
17995SOL    HW156617   8.928   6.786   5.395  2.4779  0.4628 -1.0991
17995SOL    HW256618   9.025   6.868   5.477  0.7976  0.1710  1.3169
17996SOL     OW56619   1.140   6.286   8.535  0.0886 -0.2945 -0.0530
17996SOL    HW156620   1.147   6.380   8.522  0.7851 -0.1090  1.4620
17996SOL    HW256621   1.092   6.255   8.458 -1.4113  1.4696  0.0919
17997SOL     OW56622   5.285  10.354   1.086  0.3824  0.4581  0.4503
17997SOL    HW156623   5.336  10.337   1.166  1.2284 -1.1906 -0.3794
17997SOL    HW256624   5.217  10.286   1.086  1.5766 -0.8323 -1.1359
17998SOL     OW56625   1.421   9.488  10.008 -0.1893  0.0666  0.2561
17998SOL    HW156626   1.348   9.545   9.986 -0.2216 -0.0471  0.0625
17998SOL    HW256627   1.389   9.399   9.990  0.7852  0.1374 -2.2044
17999SOL     OW56628   4.568   6.704   3.282 -0.3329  0.3647 -0.3457
17999SOL    HW156629   4.652   6.747   3.297 -0.6590  0.0840  3.1901
17999SOL    HW256630   4.514   6.771   3.239  1.2009  1.0831 -1.1987
18000SOL     OW56631   3.017   6.463   0.761  0.2220  0.3654  0.0101
18000SOL    HW156632   3.042   6.538   0.814  0.4572 -0.7110  1.4970
18000SOL    HW256633   3.015   6.390   0.823  0.5993 -0.9768 -1.4905
18001SOL     OW56634   8.163   0.975   8.985 -0.5180  0.3194  0.5009
18001SOL    HW156635   8.100   0.982   8.913  1.2177  3.9156 -0.9126
18001SOL    HW256636   8.139   1.045   9.045  1.1470  0.7140  0.7512
18002SOL     OW56637   4.332   5.284   3.415 -0.1855  0.0965 -0.3194
18002SOL    HW156638   4.349   5.346   3.345  2.0229 -0.6966 -0.5736
18002SOL    HW256639   4.251   5.239   3.389 -0.8322  1.6077 -0.9927
18003SOL     OW56640   0.399   6.956   4.397 -0.1503  0.2409 -0.3002
18003SOL    HW156641   0.374   7.000   4.479  0.3152  0.4368 -0.2617
18003SOL    HW256642   0.372   6.865   4.410  0.6348  0.0982  0.3894
18004SOL     OW56643   7.572   3.982   1.872 -0.0054  0.0903 -0.0414
18004SOL    HW156644   7.636   3.921   1.908  1.5166  1.2288 -0.7510
18004SOL    HW256645   7.568   4.054   1.936 -1.1421 -0.2842  0.3523
18005SOL     OW56646   1.878   1.581   7.346 -0.1394  0.3209  0.2591
18005SOL    HW156647   1.820   1.638   7.397 -1.5643 -1.0391  0.2407
18005SOL    HW256648   1.962   1.627   7.346 -0.6526  1.3966  2.0375
18006SOL     OW56649   3.388   6.750   4.292  0.1393 -0.1682  0.6637
18006SOL    HW156650   3.325   6.729   4.224  0.3809 -2.2092  1.0002
18006SOL    HW256651   3.461   6.790   4.246 -1.3560  2.3566  0.2776
18007SOL     OW56652   2.752   6.288   8.232 -0.6726  0.1740  0.1157
18007SOL    HW156653   2.712   6.375   8.238 -1.6962 -0.3688  1.4924
18007SOL    HW256654   2.790   6.272   8.318  2.6008  0.6388 -1.0898
18008SOL     OW56655   8.890   0.910   8.074 -0.0808  0.0304  0.1694
18008SOL    HW156656   8.883   0.890   7.981 -0.3756 -0.0610  0.2090
18008SOL    HW256657   8.799   0.909   8.105  0.0591 -0.5724  0.5864
18009SOL     OW56658   6.287   4.786   0.722  0.4664 -0.4855  0.3602
18009SOL    HW156659   6.325   4.868   0.691 -0.8694  0.6580  1.5535
18009SOL    HW256660   6.334   4.718   0.676 -0.0660  1.0162 -2.6368
18010SOL     OW56661   8.795   2.715   0.234 -0.0102  0.7121  0.5986
18010SOL    HW156662   8.762   2.799   0.266 -0.0722  0.9354 -0.0262
18010SOL    HW256663   8.887   2.732   0.213 -0.3439  0.9977 -0.7577
18011SOL     OW56664   1.090   3.822   3.878 -0.0210 -0.1778  0.0268
18011SOL    HW156665   1.122   3.751   3.933 -3.0569  0.5002  3.0059
18011SOL    HW256666   1.081   3.782   3.791  0.8500 -2.6477  0.9748
18012SOL     OW56667   7.021   4.085   5.415  0.3321  0.0804 -0.2887
18012SOL    HW156668   7.085   4.150   5.444 -0.6676 -0.0483  2.6084
18012SOL    HW256669   6.996   4.039   5.496 -2.7847 -0.4335 -1.4089
18013SOL     OW56670   3.716   9.687   1.200  0.2497  0.1971  0.4571
18013SOL    HW156671   3.772   9.657   1.128 -1.2304 -1.7282  0.0291
18013SOL    HW256672   3.672   9.764   1.166 -0.2627 -0.5623 -0.6396
18014SOL     OW56673   9.953   4.180   1.019 -0.8185  0.8987  0.1478
18014SOL    HW156674   9.871   4.199   0.973 -0.7202  1.0207  0.0270
18014SOL    HW256675   9.972   4.260   1.067  0.9729  2.1042 -2.3729
18015SOL     OW56676   5.769   5.232   2.873  0.3953 -0.3304  0.2126
18015SOL    HW156677   5.796   5.306   2.819 -1.2652 -1.0662 -1.7260
18015SOL    HW256678   5.740   5.272   2.955  0.8087  1.0341 -0.2838
18016SOL     OW56679   5.360   7.003   7.775  0.1597 -0.3607 -0.2950
18016SOL    HW156680   5.366   6.979   7.867  1.2044 -1.1497 -0.5546
18016SOL    HW256681   5.328   7.094   7.776  1.6652  0.2008  0.9094
18017SOL     OW56682   7.447   0.684   5.112  0.2382  0.2124  0.1427
18017SOL    HW156683   7.487   0.666   5.027  0.8491 -0.0928  0.4854
18017SOL    HW256684   7.502   0.636   5.174 -0.3547  0.2218  0.6800
18018SOL     OW56685   6.145   3.000   2.095  0.1409 -0.1976 -0.1481
18018SOL    HW156686   6.230   2.959   2.108 -0.0541 -0.4525  0.3509
18018SOL    HW256687   6.149   3.081   2.146  0.4950  0.3744 -1.0646
18019SOL     OW56688   7.939   1.873   5.368  0.8121  0.2629  0.3258
18019SOL    HW156689   7.993   1.794   5.359 -0.0763 -0.7587  3.0312
18019SOL    HW256690   7.982   1.923   5.438 -0.0305  0.9604  0.3523
18020SOL     OW56691   4.031   6.994  10.170 -0.1046  0.5636  0.0142
18020SOL    HW156692   4.008   7.051  10.244  0.7376 -0.5770  1.2070
18020SOL    HW256693   4.120   6.965  10.189 -0.1058 -0.2653 -1.1302
18021SOL     OW56694   4.117   5.782   0.560  0.2160  0.3234 -0.5516
18021SOL    HW156695   4.123   5.806   0.467  0.0447  0.5970 -0.4911
18021SOL    HW256696   4.103   5.865   0.605 -0.9635  0.0500 -0.3906
18022SOL     OW56697   4.877   6.463   7.852  0.1086  0.1274 -0.0922
18022SOL    HW156698   4.823   6.535   7.820  0.0805  0.3197  0.3774
18022SOL    HW256699   4.818   6.387   7.854 -0.1905  0.3780  0.5908
18023SOL     OW56700   4.015   7.614   5.972  0.2260  0.5571 -0.4697
18023SOL    HW156701   3.933   7.568   5.954  0.1890  0.0581  0.8533
18023SOL    HW256702   3.987   7.700   6.003  0.2006  0.4209 -0.1109
18024SOL     OW56703   2.216   5.263   3.298  0.0801 -0.4979  0.2537
18024SOL    HW156704   2.257   5.182   3.327 -2.3745 -1.9676 -0.0567
18024SOL    HW256705   2.164   5.237   3.221 -1.8263  1.0340  0.9427
18025SOL     OW56706   2.728   4.084  10.085 -0.0615 -0.1217  0.1839
18025SOL    HW156707   2.740   3.989  10.087  2.1235  0.0947  2.2902
18025SOL    HW256708   2.808   4.119  10.125 -1.7769  2.5104  1.5867
18026SOL     OW56709   4.864   9.162   3.318 -0.3390 -0.1747  0.5125
18026SOL    HW156710   4.825   9.117   3.244  2.0298 -1.8056  0.1358
18026SOL    HW256711   4.827   9.118   3.395 -0.2816 -0.7837  0.2001
18027SOL     OW56712   7.281   8.625   0.682  0.5751  0.2550 -0.3887
18027SOL    HW156713   7.369   8.622   0.719  1.0252 -2.4932 -1.4621
18027SOL    HW256714   7.293   8.661   0.594  0.1998  2.2488  0.3283
18028SOL     OW56715   6.542   2.485   4.039 -0.6233  0.1057 -0.5502
18028SOL    HW156716   6.583   2.408   4.079 -0.6807 -0.3315 -1.3108
18028SOL    HW256717   6.533   2.462   3.946 -1.7773  0.5420 -0.5605
18029SOL     OW56718   1.155   1.646   1.012 -0.1444  0.2629  0.0499
18029SOL    HW156719   1.073   1.596   1.003 -0.3065  0.5392 -0.0252
18029SOL    HW256720   1.192   1.617   1.095 -0.8378  0.8928  0.5930
18030SOL     OW56721   7.320   1.970   9.531  0.1395 -0.3712  0.0534
18030SOL    HW156722   7.335   2.044   9.590 -1.1257  0.7081 -0.9340
18030SOL    HW256723   7.225   1.958   9.530  0.1015 -0.1441 -2.0087
18031SOL     OW56724   1.737   7.136   3.800  0.2904  0.2418  0.4234
18031SOL    HW156725   1.708   7.048   3.826  1.4590 -0.1350  0.4928
18031SOL    HW256726   1.678   7.160   3.728  0.2118 -0.7681  0.1363
18032SOL     OW56727   3.496   1.259   6.841  0.5309  0.1454 -0.5821
18032SOL    HW156728   3.482   1.168   6.814 -0.4422  0.1244 -0.0824
18032SOL    HW256729   3.420   1.306   6.806  1.4884  0.9595 -1.6240
18033SOL     OW56730   1.050   2.975   8.648 -0.6074  0.2285 -0.4592
18033SOL    HW156731   0.988   2.920   8.601  1.0228 -1.4555 -0.7726
18033SOL    HW256732   1.111   3.006   8.581 -1.6687  2.8002 -0.3561
18034SOL     OW56733   1.396   5.696   1.253  0.8526 -0.0106  0.0015
18034SOL    HW156734   1.369   5.720   1.342  2.7707 -2.6761  1.4191
18034SOL    HW256735   1.328   5.636   1.223  1.1494 -0.5763  0.4404
18035SOL     OW56736   3.709   3.383   8.076  0.2886  0.7458 -0.1461
18035SOL    HW156737   3.762   3.406   7.999  0.5360  2.1869  0.4199
18035SOL    HW256738   3.718   3.459   8.134 -1.7979  0.7143  0.2915
18036SOL     OW56739   1.736   0.341  10.135 -0.2836  0.1817  0.1312
18036SOL    HW156740   1.743   0.332  10.230 -2.6775  0.1006  0.3431
18036SOL    HW256741   1.652   0.303  10.113 -1.1869  2.8986 -1.6306
18037SOL     OW56742   8.675   8.179   8.556  0.1139 -0.0750  0.1051
18037SOL    HW156743   8.740   8.131   8.504 -0.3961 -0.0813 -0.5518
18037SOL    HW256744   8.679   8.139   8.643  0.8282 -0.2212  0.0078
18038SOL     OW56745   2.418   2.723   8.141 -0.3810  0.0895 -0.1296
18038SOL    HW156746   2.482   2.785   8.175  0.4186 -0.9180  0.2428
18038SOL    HW256747   2.336   2.745   8.186  0.0094  0.5635  0.3517
18039SOL     OW56748   6.583   6.561   3.784  0.7755  0.4957  0.2717
18039SOL    HW156749   6.585   6.570   3.689 -0.7903 -1.4077 -0.0012
18039SOL    HW256750   6.491   6.547   3.805  1.3974 -1.9079  1.7475
18040SOL     OW56751   9.730   9.073   6.278  0.8005 -0.3856  0.3209
18040SOL    HW156752   9.810   9.125   6.293  1.2793 -1.2901  0.9910
18040SOL    HW256753   9.659   9.128   6.310  1.1208  0.5039 -0.4352
18041SOL     OW56754   4.871   0.548   3.019 -0.0637  0.2117  0.3765
18041SOL    HW156755   4.905   0.459   3.016  1.2668  0.6279  1.7570
18041SOL    HW256756   4.845   0.567   2.929  1.4200 -0.8867 -0.3186
18042SOL     OW56757   6.903   7.457   5.008 -0.2035 -0.1136 -0.2942
18042SOL    HW156758   6.893   7.514   5.084 -1.6741 -0.7828  0.0673
18042SOL    HW256759   6.997   7.440   5.002  0.2716  2.1928 -0.3303
18043SOL     OW56760   5.538   8.921   4.023  0.0248 -0.5229  0.1320
18043SOL    HW156761   5.530   8.891   4.113  0.1590  0.3010  0.4193
18043SOL    HW256762   5.529   9.016   4.027 -2.1865 -0.6043 -0.9545
18044SOL     OW56763   6.080   4.760   3.434 -0.2091  0.6643  0.4498
18044SOL    HW156764   6.138   4.744   3.508 -0.8590  0.4908  0.9288
18044SOL    HW256765   6.139   4.781   3.361  0.6070 -1.9247  0.2779
18045SOL     OW56766   3.582   4.020   1.671 -0.1428  0.6595  0.2927
18045SOL    HW156767   3.491   4.010   1.640  0.2320  0.2946 -0.7456
18045SOL    HW256768   3.577   4.087   1.739 -0.9049  2.2172 -1.2052
18046SOL     OW56769   9.491   1.790   9.508 -0.2752 -0.2265 -0.0942
18046SOL    HW156770   9.485   1.881   9.537 -0.4595 -0.0953 -0.5400
18046SOL    HW256771   9.564   1.754   9.558  0.5461  0.4812 -0.7551
18047SOL     OW56772   2.552   0.413   9.654 -0.4942 -0.3522  0.3225
18047SOL    HW156773   2.537   0.391   9.746  1.0776 -1.7911  0.2832
18047SOL    HW256774   2.525   0.335   9.606 -0.0629 -0.1029 -0.3297
18048SOL     OW56775   7.388   8.294   0.113  0.2265  0.2964 -0.1601
18048SOL    HW156776   7.472   8.306   0.069  0.7289 -0.5878  0.5210
18048SOL    HW256777   7.348   8.218   0.070  0.0313  0.3615 -0.0961
18049SOL     OW56778   3.869   2.145   1.143 -0.3645  0.4619 -0.6563
18049SOL    HW156779   3.957   2.183   1.154 -0.5090  0.7201 -0.3555
18049SOL    HW256780   3.856   2.091   1.221 -1.3099  2.1264  0.4110
18050SOL     OW56781   9.954   0.850   4.910 -0.2567 -0.8802  0.4959
18050SOL    HW156782   9.941   0.809   4.996  0.3485  0.0491  1.0531
18050SOL    HW256783   9.961   0.777   4.849 -0.4442 -1.5648  1.2783
18051SOL     OW56784   0.617   4.254   6.054  0.3821 -0.3859 -0.2208
18051SOL    HW156785   0.615   4.298   6.139 -0.6750 -1.2665  0.2327
18051SOL    HW256786   0.637   4.323   5.991 -1.1949  0.7326  0.4685
18052SOL     OW56787   1.835   6.229   8.487 -0.2348 -0.4182 -0.0730
18052SOL    HW156788   1.760   6.201   8.434 -2.4374 -0.0966  2.6615
18052SOL    HW256789   1.855   6.153   8.542  1.6479 -0.5602 -0.8669
18053SOL     OW56790   4.696   6.977   4.003  0.2521 -0.1147 -0.6902
18053SOL    HW156791   4.774   6.980   3.948 -0.2307 -0.7301 -1.4308
18053SOL    HW256792   4.623   6.972   3.941 -0.7763  4.5808 -0.2366
18054SOL     OW56793   5.248   2.018   0.656  0.0486 -0.3793  0.4480
18054SOL    HW156794   5.279   1.963   0.729 -0.9260 -0.4848  0.8002
18054SOL    HW256795   5.324   2.070   0.631  0.6685 -1.0534  0.8926
18055SOL     OW56796  10.317   0.276   3.113 -0.1976  0.1378  0.1188
18055SOL    HW156797  10.355   0.240   3.033 -2.4630  0.1646 -1.0198
18055SOL    HW256798  10.231   0.308   3.088 -0.4710  1.3376  2.3037
18056SOL     OW56799   2.866   7.018   9.643  0.2877  0.0072 -0.3005
18056SOL    HW156800   2.903   6.966   9.572 -0.2681 -0.7988 -0.0148
18056SOL    HW256801   2.791   7.063   9.603 -1.1446 -1.8458  0.1549
18057SOL     OW56802   8.612   0.062  10.078 -0.1609  0.1544 -0.4238
18057SOL    HW156803   8.620   0.135  10.140 -1.7728 -0.2358  0.2902
18057SOL    HW256804   8.672  -0.005  10.112 -0.7115  0.1096  0.4701
18058SOL     OW56805   6.982   3.782   7.671  0.1541  0.2767 -0.5788
18058SOL    HW156806   6.907   3.826   7.631 -0.5044 -0.1839  0.1216
18058SOL    HW256807   6.958   3.771   7.763  0.6913 -0.7099 -0.5408
18059SOL     OW56808   7.533   7.158   3.907  0.8871  0.1565  0.8172
18059SOL    HW156809   7.509   7.220   3.976  1.8090  2.6283 -0.9393
18059SOL    HW256810   7.455   7.152   3.852  0.8846 -0.0582  0.8424
18060SOL     OW56811   2.072   0.940   7.798 -0.8861  0.0308 -0.3543
18060SOL    HW156812   2.032   1.022   7.768 -1.2964  0.0994  0.3474
18060SOL    HW256813   2.155   0.967   7.837 -0.6031  0.0043 -0.9357
18061SOL     OW56814   7.604   2.778   8.151  0.3645  0.2881  0.1184
18061SOL    HW156815   7.665   2.750   8.219  0.3850  1.1415  0.4717
18061SOL    HW256816   7.586   2.699   8.101  0.3730 -0.3563  1.0950
18062SOL     OW56817   6.159   9.924   1.118 -0.2388  0.1986 -0.1033
18062SOL    HW156818   6.107   9.978   1.179  2.5136  1.6482  1.1307
18062SOL    HW256819   6.232   9.892   1.171  1.3827  0.1323 -2.2744
18063SOL     OW56820   2.436   1.520   4.324 -0.1024 -0.1512 -0.2306
18063SOL    HW156821   2.400   1.447   4.274  1.2864 -1.6816  0.9221
18063SOL    HW256822   2.379   1.527   4.401  0.6584 -1.0738  0.4393
18064SOL     OW56823   3.380   4.866   6.757  0.6241 -0.1195 -0.2651
18064SOL    HW156824   3.336   4.938   6.802  0.8527 -1.0404  1.5342
18064SOL    HW256825   3.462   4.855   6.804  1.9303  0.2830 -2.3269
18065SOL     OW56826   6.682   0.438   0.587  0.2616  0.3380  0.3801
18065SOL    HW156827   6.663   0.351   0.551 -0.9407  0.7993 -0.1572
18065SOL    HW256828   6.777   0.448   0.575  0.6020 -1.2663  1.3415
18066SOL     OW56829   9.581   8.981   3.843 -0.2057 -0.3769  0.5294
18066SOL    HW156830   9.541   8.972   3.756 -0.2943 -0.2762  0.5603
18066SOL    HW256831   9.672   9.006   3.824 -0.2867 -0.1244  0.4696
18067SOL     OW56832   9.686   4.284   7.349  0.2172  0.1727  0.2007
18067SOL    HW156833   9.650   4.347   7.287  0.7673  0.5098  0.2211
18067SOL    HW256834   9.610   4.237   7.383 -0.0075 -1.3244 -2.1035
18068SOL     OW56835   9.510   3.696   2.661 -0.1041 -0.2439  0.3300
18068SOL    HW156836   9.430   3.682   2.712 -0.5303 -1.3993 -0.6121
18068SOL    HW256837   9.579   3.658   2.715 -0.7679 -2.9516 -0.5979
18069SOL     OW56838  10.131   0.569   6.178  0.4544  0.0096 -0.7117
18069SOL    HW156839  10.197   0.604   6.239  0.5774 -0.6561 -0.4588
18069SOL    HW256840  10.176   0.565   6.094  0.1834  1.2523 -0.9451
18070SOL     OW56841   5.858   6.036   8.872  0.7162  0.4931 -0.4173
18070SOL    HW156842   5.765   6.056   8.859  1.0548  1.1648 -2.0298
18070SOL    HW256843   5.900   6.068   8.793  1.7911 -3.5121 -1.6703
18071SOL     OW56844   1.963   2.802   3.301  0.2123  0.0677  0.5849
18071SOL    HW156845   1.875   2.833   3.277  0.0047 -1.1564 -0.3919
18071SOL    HW256846   1.981   2.842   3.386 -0.6652  1.5291  0.1215
18072SOL     OW56847   9.281  10.142   2.097  0.5032 -0.0839 -0.0241
18072SOL    HW156848   9.198  10.166   2.056 -0.1078 -1.0158  0.6249
18072SOL    HW256849   9.292  10.205   2.168 -0.4688 -0.8825  0.8823
18073SOL     OW56850   7.523   1.979   9.342 -0.5635  0.4749 -0.1939
18073SOL    HW156851   7.583   2.039   9.385 -0.3588 -0.0594  0.2829
18073SOL    HW256852   7.450   1.970   9.403  0.5536 -1.7088  0.9678
18074SOL     OW56853   5.794   3.952   4.833 -0.0784 -0.5122  0.3698
18074SOL    HW156854   5.715   4.005   4.833 -0.5184 -1.0974 -1.3892
18074SOL    HW256855   5.846   3.987   4.905 -0.6707  1.8239 -0.2376
18075SOL     OW56856   1.835   1.423   9.961  0.1224  0.1032  0.1488
18075SOL    HW156857   1.764   1.360   9.968  0.2316 -0.2721 -1.6304
18075SOL    HW256858   1.792   1.509   9.965 -0.3458 -0.1141 -0.1922
18076SOL     OW56859   8.005   7.160   7.215  0.2998  0.0888  0.1943
18076SOL    HW156860   7.972   7.125   7.298 -0.0410 -0.1765 -0.0491
18076SOL    HW256861   7.932   7.151   7.154  0.5573  0.2531 -0.1432
18077SOL     OW56862   7.392   3.148   2.410  0.0369  0.4926  0.1961
18077SOL    HW156863   7.414   3.152   2.503 -0.1072  1.8017  0.1865
18077SOL    HW256864   7.476   3.137   2.366  0.4174  2.4558  0.3470
18078SOL     OW56865   6.685   9.424   8.768 -0.2020 -0.0360  0.4980
18078SOL    HW156866   6.666   9.512   8.799 -0.7907 -0.3695  1.1105
18078SOL    HW256867   6.781   9.420   8.763 -0.2012  1.1171 -1.0010
18079SOL     OW56868   8.352  10.019   2.507  1.1420 -0.1598 -0.3943
18079SOL    HW156869   8.411   9.982   2.573 -0.1168  2.3053  2.3123
18079SOL    HW256870   8.379  10.110   2.498 -1.9106  0.9857  0.7184
18080SOL     OW56871   1.173   7.436   7.100  0.3682 -0.2214  1.0949
18080SOL    HW156872   1.172   7.341   7.116  2.0028 -0.6492 -0.8943
18080SOL    HW256873   1.142   7.474   7.182  0.2183 -2.4428  2.1598
18081SOL     OW56874   3.938   3.589   4.037 -0.2354 -0.1658 -0.0312
18081SOL    HW156875   3.992   3.606   3.960 -1.2991  0.7480 -0.5979
18081SOL    HW256876   3.848   3.591   4.004 -0.9946  3.5963  1.7103
18082SOL     OW56877   2.917   0.862   6.467 -0.1663 -0.2437  0.3705
18082SOL    HW156878   2.861   0.829   6.396 -0.1619  0.0099  0.2478
18082SOL    HW256879   2.949   0.946   6.435 -0.3948  0.0053  0.7975
18083SOL     OW56880   4.148   6.510   5.228  0.1177  1.3656 -1.2155
18083SOL    HW156881   4.231   6.543   5.193  0.8448 -0.8748 -1.8420
18083SOL    HW256882   4.132   6.430   5.177 -0.8750  0.1310  0.8965
18084SOL     OW56883   5.181  10.155   9.388  0.1969 -0.2606 -0.0790
18084SOL    HW156884   5.108  10.143   9.449  0.8279 -0.0434  0.7381
18084SOL    HW256885   5.240  10.216   9.433  0.3734  0.4114 -1.1814
18085SOL     OW56886   6.299   0.555   6.593 -0.4658 -0.3831  0.0358
18085SOL    HW156887   6.337   0.482   6.544  1.9809  0.3654  0.6856
18085SOL    HW256888   6.267   0.615   6.525 -1.3660 -1.4484 -0.5140
18086SOL     OW56889   9.094  10.025   9.411 -0.0652  0.2958 -0.1260
18086SOL    HW156890   9.034  10.023   9.336 -1.4414 -0.0238  0.9253
18086SOL    HW256891   9.077   9.943   9.458 -1.1414  1.5743  1.8931
18087SOL     OW56892   1.189   3.510   3.225 -0.1043 -0.3248  0.8834
18087SOL    HW156893   1.280   3.541   3.233 -0.4334  1.1777 -0.5135
18087SOL    HW256894   1.183   3.436   3.285  1.8266  0.0350  1.5928
18088SOL     OW56895   8.703   0.054   8.676 -0.0118 -0.3297 -0.3139
18088SOL    HW156896   8.765   0.095   8.616 -1.6570  1.4830 -0.8891
18088SOL    HW256897   8.626   0.111   8.674 -1.4527 -2.1030  0.8867
18089SOL     OW56898   9.171   0.254   8.469  0.1790 -0.3705 -0.6291
18089SOL    HW156899   9.208   0.253   8.381  2.4486  0.0176  0.2292
18089SOL    HW256900   9.179   0.346   8.497 -0.1642 -0.5600  0.1099
18090SOL     OW56901   9.851  10.214   2.545  0.1931 -0.0124 -0.4896
18090SOL    HW156902   9.937  10.187   2.513 -0.0559 -0.6987 -0.6004
18090SOL    HW256903   9.841  10.304   2.514 -0.1842 -0.7448 -2.6721
18091SOL     OW56904   8.991   6.804   2.920 -0.2426 -0.6560 -0.0255
18091SOL    HW156905   8.898   6.820   2.902  0.0667  1.7355  0.1225
18091SOL    HW256906   9.035   6.883   2.887  1.6701 -1.4492  0.5047
18092SOL     OW56907  10.094   7.092   5.383  0.1794 -0.0762 -0.0096
18092SOL    HW156908  10.068   7.181   5.408  2.0014  0.2938  0.7432
18092SOL    HW256909  10.161   7.067   5.448  0.5294 -1.5500 -0.8820
18093SOL     OW56910   9.865   0.430   6.349  0.1799 -0.0292 -0.0042
18093SOL    HW156911   9.770   0.423   6.337  0.2757  0.2544 -0.9504
18093SOL    HW256912   9.882   0.524   6.354  0.6853  0.0416 -2.2681
18094SOL     OW56913   7.837   1.912   1.901  0.5334 -0.3377  0.4466
18094SOL    HW156914   7.918   1.935   1.947  0.2251  0.2549  0.7065
18094SOL    HW256915   7.805   1.996   1.867 -0.1486 -0.5109  0.6420
18095SOL     OW56916   9.684   6.650   3.762 -0.1067  0.0840  0.0868
18095SOL    HW156917   9.626   6.639   3.837  1.0184  1.1153  1.1708
18095SOL    HW256918   9.629   6.689   3.694 -0.8704  0.2880  0.8051
18096SOL     OW56919   8.697   8.477   6.470 -0.0569  0.3627 -0.2911
18096SOL    HW156920   8.660   8.462   6.383  0.9462  2.7873 -1.2294
18096SOL    HW256921   8.705   8.572   6.476  1.9755  0.1531  1.5429
18097SOL     OW56922  10.189   6.000   8.031  0.0445 -0.6348  0.5772
18097SOL    HW156923  10.192   5.947   7.951 -0.0213 -0.0901  0.2100
18097SOL    HW256924  10.279   6.004   8.061  0.0541 -0.9237  0.5870
18098SOL     OW56925   6.704   0.912   3.953 -0.5999 -0.0611 -0.3004
18098SOL    HW156926   6.670   0.991   3.911  0.6723  1.5065  1.4480
18098SOL    HW256927   6.704   0.933   4.047  1.8508 -1.2712  0.0532
18099SOL     OW56928   3.918   3.678   4.436  0.3970 -0.0528  0.0147
18099SOL    HW156929   3.948   3.759   4.395 -0.0583  0.4555  0.6617
18099SOL    HW256930   3.941   3.688   4.529  0.7426 -0.8602  0.0272
18100SOL     OW56931   8.468   5.290   3.981  0.1502 -0.5069  0.1054
18100SOL    HW156932   8.454   5.203   4.019 -1.7073 -0.1704  0.2900
18100SOL    HW256933   8.514   5.339   4.048  0.6582 -1.1564  0.2416
18101SOL     OW56934   8.040   8.181   3.861  0.4038  0.3159  0.7009
18101SOL    HW156935   7.993   8.264   3.846 -0.1276 -0.3047 -1.3581
18101SOL    HW256936   8.065   8.152   3.773  2.6051 -0.5750  1.5792
18102SOL     OW56937   9.659   1.459   2.671  0.5063  0.0508 -0.1934
18102SOL    HW156938   9.705   1.542   2.685 -1.0346  0.9228 -0.1519
18102SOL    HW256939   9.603   1.475   2.595  1.1510 -1.3866 -1.0184
18103SOL     OW56940  10.055   7.892  10.120  0.2657 -0.1511 -0.9610
18103SOL    HW156941  10.147   7.921  10.116  0.5124 -0.3009  1.7684
18103SOL    HW256942  10.032   7.900  10.212 -1.9077 -1.9150 -1.2866
18104SOL     OW56943   6.906   1.232   7.937  0.1122 -0.5045 -0.0394
18104SOL    HW156944   6.938   1.204   7.852  0.3890  0.1470 -0.1533
18104SOL    HW256945   6.921   1.156   7.994  1.1070 -0.5037 -0.2738
18105SOL     OW56946   9.620   5.514   4.003 -0.8647  0.1913 -0.3418
18105SOL    HW156947   9.530   5.481   4.001 -0.7152 -0.5520  2.0122
18105SOL    HW256948   9.662   5.474   3.927 -1.7570 -1.9106  0.1808
18106SOL     OW56949   2.845   4.540   4.525  0.3568  0.4934 -0.0009
18106SOL    HW156950   2.881   4.520   4.438  1.5711 -0.0822  0.6157
18106SOL    HW256951   2.792   4.619   4.511  0.7352  0.5573 -1.2112
18107SOL     OW56952   0.203   3.556  10.199 -0.3208 -0.2277 -0.3920
18107SOL    HW156953   0.274   3.561  10.263 -0.2510  1.7923 -0.5584
18107SOL    HW256954   0.234   3.494  10.133  0.6627 -0.4611  0.2736
18108SOL     OW56955   0.978   7.567   8.240  0.5373  0.6998  0.2763
18108SOL    HW156956   0.954   7.478   8.266 -1.0769  1.2746  0.9449
18108SOL    HW256957   1.058   7.586   8.289  0.8793 -0.3707  0.1460
18109SOL     OW56958   3.446   5.627   6.280  0.2727 -0.1448 -0.1228
18109SOL    HW156959   3.370   5.676   6.249  1.0621  0.4885 -1.1190
18109SOL    HW256960   3.481   5.584   6.201  0.4958 -1.0699  0.4628
18110SOL     OW56961   6.590   1.583   0.202  0.2219 -0.6153 -0.2515
18110SOL    HW156962   6.576   1.574   0.297  1.3353  0.7625  0.0889
18110SOL    HW256963   6.528   1.522   0.163  0.3708 -1.8923  1.3845
18111SOL     OW56964   0.614   9.087   2.022  0.2469 -0.4444  0.1636
18111SOL    HW156965   0.552   9.016   2.007  1.1075 -1.0466 -0.6854
18111SOL    HW256966   0.700   9.048   2.005  1.1426 -0.3494  3.7296
18112SOL     OW56967   9.123   1.324   7.576  0.6876  0.1849 -0.0840
18112SOL    HW156968   9.158   1.411   7.597  0.7021  0.0597  0.4259
18112SOL    HW256969   9.197   1.265   7.591  0.9549  0.1771 -1.3258
18113SOL     OW56970   3.837   9.794   7.782  0.0481  0.2391  0.4260
18113SOL    HW156971   3.748   9.827   7.795  0.0943  0.2053  0.8308
18113SOL    HW256972   3.854   9.738   7.858  0.8073  1.0927  0.9127
18114SOL     OW56973   0.986   1.132   0.025 -0.1316  0.3932  0.5775
18114SOL    HW156974   1.043   1.208   0.039  0.8653 -0.3904  0.9072
18114SOL    HW256975   1.046   1.062  -0.001 -0.8477 -0.6571  1.6312
18115SOL     OW56976   2.745   6.166  10.351 -0.6806 -0.5422  0.2050
18115SOL    HW156977   2.696   6.229  10.404 -0.8022 -1.2359  0.9304
18115SOL    HW256978   2.680   6.134  10.287 -0.8434 -0.5503  0.3740
18116SOL     OW56979   4.277   9.839   8.021  0.2704 -0.0839  0.3432
18116SOL    HW156980   4.225   9.778   8.073 -0.0575 -0.0703  0.0450
18116SOL    HW256981   4.256   9.925   8.057 -0.3112 -0.0321 -0.0913
18117SOL     OW56982   1.394   3.972   9.496  0.2564 -0.0541 -0.2724
18117SOL    HW156983   1.418   3.981   9.403 -1.0455 -3.1840 -1.0369
18117SOL    HW256984   1.300   3.952   9.494  0.5100 -1.6747  1.5757
18118SOL     OW56985   6.000   1.350   3.093 -0.2809 -0.0044 -0.4691
18118SOL    HW156986   5.991   1.314   3.181 -1.4583 -0.7518 -0.8803
18118SOL    HW256987   6.053   1.286   3.046 -0.4898 -0.0985 -0.5780
18119SOL     OW56988   1.707   4.464   8.481  0.1192  0.4460 -0.2504
18119SOL    HW156989   1.754   4.546   8.491  0.5341  0.1074  0.7152
18119SOL    HW256990   1.662   4.472   8.397  1.9049  0.7603 -1.2019
18120SOL     OW56991   4.462   2.968   6.845 -0.1900 -0.1049 -0.0371
18120SOL    HW156992   4.465   3.045   6.902 -0.6201  0.6416 -1.0041
18120SOL    HW256993   4.527   2.985   6.777 -1.8567  0.5046 -1.5726
18121SOL     OW56994   5.607   6.946   5.795  0.2895  0.0311 -0.4704
18121SOL    HW156995   5.663   7.023   5.783  1.3015 -0.7210 -0.6402
18121SOL    HW256996   5.518   6.981   5.789  0.7028  0.8533 -2.7833
18122SOL     OW56997   6.899   3.701   1.081  0.7988  0.3595 -0.3578
18122SOL    HW156998   6.838   3.629   1.064 -0.4170  1.5250 -1.1758
18122SOL    HW256999   6.882   3.764   1.011 -0.0010  2.5693  1.6489
18123SOL     OW57000   1.057   2.351   0.699  0.0705 -0.1395  0.1238
18123SOL    HW157001   1.131   2.295   0.723 -0.1639 -1.1504 -1.3615
18123SOL    HW257002   0.988   2.328   0.762  0.0889 -1.3175 -0.2597
18124SOL     OW57003   7.653   9.753   7.968  0.1248 -0.1079 -0.3773
18124SOL    HW157004   7.650   9.827   8.030 -1.2277 -1.5456  1.4016
18124SOL    HW257005   7.706   9.687   8.013  0.0042 -0.7917 -1.2221
18125SOL     OW57006   9.986   1.980   1.193 -0.5134  0.1788 -0.4071
18125SOL    HW157007  10.000   2.059   1.245  4.0520 -0.4940 -0.1890
18125SOL    HW257008  10.026   2.000   1.108 -0.5313 -1.4413 -0.8358
18126SOL     OW57009   6.360   3.465   6.919  0.2586 -0.1217  0.5419
18126SOL    HW157010   6.429   3.474   6.853 -0.5469 -0.6949 -0.4044
18126SOL    HW257011   6.279   3.481   6.871 -0.5870 -3.3352  0.6975
18127SOL     OW57012   0.364   7.421   0.203 -0.0917 -0.6745  0.0273
18127SOL    HW157013   0.323   7.347   0.247 -1.4667 -0.4883 -0.9085
18127SOL    HW257014   0.378   7.392   0.113  0.9170 -0.3733  0.0684
18128SOL     OW57015   9.723   1.780   3.822 -0.1902 -0.4959 -0.2482
18128SOL    HW157016   9.750   1.700   3.868  0.6612 -0.2932 -0.3708
18128SOL    HW257017   9.635   1.798   3.854 -1.0727 -2.4054 -1.4459
18129SOL     OW57018   8.669   5.113   2.702  0.0106  0.1414  0.3346
18129SOL    HW157019   8.617   5.186   2.669 -2.2186 -2.2241 -1.8173
18129SOL    HW257020   8.709   5.075   2.624  0.4759 -1.3992  1.2834
18130SOL     OW57021   4.998   1.443   2.597  0.1877  0.1538  0.1693
18130SOL    HW157022   4.956   1.374   2.545 -0.8069  0.2813  0.7822
18130SOL    HW257023   5.016   1.512   2.533 -1.3387  0.4512  0.0349
18131SOL     OW57024  10.331   2.480   1.661 -0.2048  0.1529  0.2645
18131SOL    HW157025  10.298   2.570   1.659 -0.1131  0.1763 -0.4121
18131SOL    HW257026  10.421   2.489   1.693 -0.4670  0.2036  1.0266
18132SOL     OW57027   0.562   0.886   1.196  0.3665 -0.1238  0.0635
18132SOL    HW157028   0.635   0.838   1.158 -0.6164 -1.8558  0.2324
18132SOL    HW257029   0.516   0.925   1.122  1.7839  1.5312  0.0063
18133SOL     OW57030   0.275   7.078   5.733  0.8577  0.0717 -0.1297
18133SOL    HW157031   0.188   7.075   5.694  0.9420 -1.6371 -0.2544
18133SOL    HW257032   0.291   7.171   5.749 -0.4316  0.5258 -1.3236
18134SOL     OW57033   7.154   9.218   5.172 -0.3520 -0.0486 -0.4848
18134SOL    HW157034   7.149   9.313   5.170 -1.2526 -0.0251 -4.0330
18134SOL    HW257035   7.149   9.195   5.265 -0.6186  3.3062  0.4371
18135SOL     OW57036   0.509   9.006   3.647 -0.2571 -0.1865  0.5704
18135SOL    HW157037   0.455   9.045   3.579 -0.0882 -0.7007  0.1279
18135SOL    HW257038   0.595   9.046   3.636 -0.6814  1.1089  1.6851
18136SOL     OW57039   3.004   2.877   2.051  0.4222 -0.2063 -0.0643
18136SOL    HW157040   2.981   2.848   1.963 -2.2764  2.4291 -0.3974
18136SOL    HW257041   3.043   2.800   2.093  0.8784 -1.8206 -3.1950
18137SOL     OW57042   6.381   8.614   5.735  0.2375 -0.4039  0.6209
18137SOL    HW157043   6.293   8.587   5.763 -0.8085  1.1883 -0.9099
18137SOL    HW257044   6.405   8.685   5.794 -1.5335  2.2506 -1.5711
18138SOL     OW57045   4.521   6.675   4.602  0.0310  0.0715  0.1380
18138SOL    HW157046   4.427   6.658   4.611  0.0502 -1.0324 -1.4120
18138SOL    HW257047   4.563   6.613   4.661 -0.1659 -0.4920 -0.3104
18139SOL     OW57048   1.329   0.778   8.666 -0.2618 -0.1612  0.5998
18139SOL    HW157049   1.362   0.688   8.656 -2.4004 -0.9232 -0.1806
18139SOL    HW257050   1.316   0.808   8.576  2.6949  1.9187  0.7291
18140SOL     OW57051   5.271   1.829   0.844  0.1074  0.1926 -0.0175
18140SOL    HW157052   5.336   1.775   0.890 -0.6969 -0.5042  0.3455
18140SOL    HW257053   5.202   1.767   0.819 -0.4435  0.9179 -0.3442
18141SOL     OW57054   8.332   7.097   6.523  0.0290  0.5012 -0.3519
18141SOL    HW157055   8.359   7.027   6.463 -0.5290  0.0502 -0.0882
18141SOL    HW257056   8.245   7.123   6.492 -1.3683 -1.3964  1.6166
18142SOL     OW57057   3.102   0.597   2.130  0.5436  1.0093  0.2031
18142SOL    HW157058   3.194   0.618   2.116  1.1202 -0.6791  1.3174
18142SOL    HW257059   3.070   0.571   2.043  2.7602 -4.3019  0.6070
18143SOL     OW57060   6.942   0.236   6.166 -0.9966 -0.2278 -0.0381
18143SOL    HW157061   6.953   0.142   6.180  0.7050  0.0011  0.3918
18143SOL    HW257062   6.953   0.248   6.072  0.2590 -0.3020  0.0871
18144SOL     OW57063   4.966   3.230   9.621 -0.0637  0.1280 -0.2869
18144SOL    HW157064   4.935   3.313   9.584  0.7421  0.9205  0.7316
18144SOL    HW257065   4.889   3.174   9.624 -0.2917  0.2034 -2.5997
18145SOL     OW57066   2.934   7.881   5.221 -0.0048  0.2504  0.3885
18145SOL    HW157067   2.868   7.950   5.215  1.2935  1.5356  0.3024
18145SOL    HW257068   3.006   7.912   5.165  1.1674 -0.5182  1.4137
18146SOL     OW57069   0.795   2.717   3.308  0.3572 -0.2298 -0.0446
18146SOL    HW157070   0.833   2.772   3.376 -0.3703  0.2704 -0.0291
18146SOL    HW257071   0.865   2.706   3.243  0.8427 -0.1710  0.4655
18147SOL     OW57072   8.096   2.048   5.517 -0.2914 -0.2090 -0.0451
18147SOL    HW157073   8.183   2.077   5.489 -0.1123 -0.8323 -0.1694
18147SOL    HW257074   8.039   2.123   5.501  0.0466 -0.1121 -0.8783
18148SOL     OW57075   4.289   4.313   0.056  0.0962 -0.0582 -0.0191
18148SOL    HW157076   4.346   4.241   0.027  0.7979  1.3704 -2.5181
18148SOL    HW257077   4.262   4.356  -0.026 -0.2424  2.5423  1.3570
18149SOL     OW57078   7.152   6.082   0.768  0.0583 -0.0800  0.4709
18149SOL    HW157079   7.147   5.999   0.721 -2.2622 -0.1471  0.7243
18149SOL    HW257080   7.233   6.076   0.818 -0.2746 -2.4001  0.8590
18150SOL     OW57081   7.371   9.526   8.978 -0.2185 -0.1900 -0.2220
18150SOL    HW157082   7.450   9.483   9.010 -1.3943 -1.1393  1.5916
18150SOL    HW257083   7.311   9.454   8.956 -0.8388  0.5064 -0.8639
18151SOL     OW57084   4.600   9.278   0.590  0.3326 -0.3448 -0.0473
18151SOL    HW157085   4.569   9.290   0.500 -0.8786 -0.3893  0.3422
18151SOL    HW257086   4.676   9.336   0.596  0.1330  0.0447 -0.9518
18152SOL     OW57087   6.958   5.859   6.655 -0.1243  0.4169  0.1745
18152SOL    HW157088   6.963   5.876   6.561 -2.2081  0.5121  0.0221
18152SOL    HW257089   6.909   5.776   6.662 -1.4573  1.2338  1.1697
18153SOL     OW57090   9.652   8.301   1.828  0.1431  0.2835  0.0330
18153SOL    HW157091   9.587   8.342   1.886 -1.7834 -0.0825 -1.7339
18153SOL    HW257092   9.675   8.370   1.766  1.6621  0.4657  0.7557
18154SOL     OW57093   0.298   5.882   6.247 -0.3025  0.5584 -0.0828
18154SOL    HW157094   0.236   5.879   6.174  0.2128  2.0492 -0.6312
18154SOL    HW257095   0.285   5.800   6.294 -1.7155  0.2449 -0.9757
18155SOL     OW57096   9.867   2.276   5.715 -0.4248  0.2283  0.7168
18155SOL    HW157097   9.959   2.256   5.697 -0.5209  1.5314 -1.5861
18155SOL    HW257098   9.823   2.191   5.712  0.2944 -0.1168 -1.1733
18156SOL     OW57099   7.830   9.801   8.410  0.4091 -0.3725  0.1241
18156SOL    HW157100   7.871   9.783   8.325 -0.2646 -0.5915 -0.1642
18156SOL    HW257101   7.881   9.750   8.473  1.6954  0.7583  0.0442
18157SOL     OW57102   6.226   0.177   2.133 -0.4139  0.3097  0.4419
18157SOL    HW157103   6.237   0.215   2.220  0.0100  0.7886  0.1884
18157SOL    HW257104   6.294   0.219   2.080 -1.0200  0.4391 -0.2543
18158SOL     OW57105   3.945  10.284   3.150  0.6174 -0.3951  0.5011
18158SOL    HW157106   3.969  10.250   3.236  2.8434 -1.2847 -0.3955
18158SOL    HW257107   3.916  10.207   3.101  0.3670 -0.0680  0.1300
18159SOL     OW57108   1.264   4.959   5.609 -0.4576 -0.0642 -0.3678
18159SOL    HW157109   1.176   4.927   5.629 -1.0518  1.4709 -0.3814
18159SOL    HW257110   1.291   5.006   5.688  1.6769 -3.0510  0.8763
18160SOL     OW57111   3.388   0.482   8.497  0.1381 -0.0542 -0.4549
18160SOL    HW157112   3.481   0.460   8.497  1.0618  3.2478  0.9341
18160SOL    HW257113   3.354   0.440   8.418  2.7193 -1.5423 -0.9127
18161SOL     OW57114   7.324   7.477   9.930  0.3022 -0.5382  0.0421
18161SOL    HW157115   7.265   7.508   9.999  0.7533  0.4456 -0.0115
18161SOL    HW257116   7.299   7.385   9.918  1.6510 -1.4463  3.0743
18162SOL     OW57117   9.294   9.855   3.336 -0.0776  0.3244  0.6364
18162SOL    HW157118   9.293   9.942   3.294 -1.2955  0.3882  0.7523
18162SOL    HW257119   9.266   9.872   3.426 -2.4302 -0.3978  0.1269
18163SOL     OW57120   7.648   7.152   8.705 -0.2398  0.1121  0.0661
18163SOL    HW157121   7.599   7.071   8.719 -1.4548  0.6706 -0.7579
18163SOL    HW257122   7.713   7.129   8.638 -0.0529 -0.3653  0.4026
18164SOL     OW57123   9.427   4.442   9.700  0.5204  0.5094 -0.1196
18164SOL    HW157124   9.498   4.436   9.764 -0.7498  1.1765  1.4336
18164SOL    HW257125   9.430   4.360   9.651  0.8754 -0.5009  1.5453
18165SOL     OW57126   3.963   0.780   9.816 -0.7570  0.0401 -0.2157
18165SOL    HW157127   3.918   0.859   9.847 -2.2595 -1.0970  0.6486
18165SOL    HW257128   3.911   0.708   9.850  0.1204 -1.3424 -1.6565
18166SOL     OW57129   5.500   3.388  10.285  0.0130  0.3603 -0.1950
18166SOL    HW157130   5.551   3.386  10.366 -1.7254 -0.6559  0.9672
18166SOL    HW257131   5.479   3.296  10.267  0.1904  0.5917 -1.6993
18167SOL     OW57132   4.621   4.304   9.829 -0.4688  0.1073  0.1096
18167SOL    HW157133   4.680   4.329   9.900 -0.6831 -0.0492  0.3421
18167SOL    HW257134   4.555   4.248   9.870  0.6081 -1.7708 -0.5735
18168SOL     OW57135   4.342   2.562   6.200 -0.1893 -0.3239  0.1857
18168SOL    HW157136   4.423   2.575   6.151 -0.7954  1.9677 -0.3266
18168SOL    HW257137   4.355   2.612   6.281 -0.8213 -0.5578  0.4405
18169SOL     OW57138   7.025   8.489   9.056  1.1358 -0.4768 -0.5468
18169SOL    HW157139   7.103   8.433   9.049  1.8833  0.7308 -2.6052
18169SOL    HW257140   6.968   8.460   8.985  0.4171 -0.2688 -0.0619
18170SOL     OW57141   1.048   5.462   3.124  0.2419  0.2440 -0.0126
18170SOL    HW157142   1.026   5.458   3.217  0.9158  0.2804  0.1575
18170SOL    HW257143   1.103   5.385   3.109 -2.6369 -1.7627 -1.1894
18171SOL     OW57144   7.473   5.015   1.737 -0.7983 -0.6241 -0.8034
18171SOL    HW157145   7.476   4.973   1.823 -1.0995 -0.1348 -0.5474
18171SOL    HW257146   7.521   5.097   1.748  0.3268 -1.1712 -1.4647
18172SOL     OW57147   8.126   7.983   7.550  0.6825 -0.3555 -0.3508
18172SOL    HW157148   8.043   7.996   7.504  0.7526  0.4868 -0.2693
18172SOL    HW257149   8.126   8.051   7.618  0.1178 -2.2292  1.5961
18173SOL     OW57150   7.531   6.225   3.315  0.2126  0.7147 -0.5026
18173SOL    HW157151   7.557   6.149   3.264 -0.5098  1.3618 -1.8730
18173SOL    HW257152   7.505   6.290   3.250 -1.7748  1.1918  0.6753
18174SOL     OW57153   4.362   4.110   0.286  0.3527  0.3078  0.8971
18174SOL    HW157154   4.317   4.194   0.289  0.7610  0.6013 -0.3393
18174SOL    HW257155   4.312   4.054   0.346 -1.3054  0.7920  0.0460
18175SOL     OW57156   2.049   5.861   3.282 -0.1689  0.6477 -0.3186
18175SOL    HW157157   1.995   5.939   3.297 -0.3334  0.1698  1.9201
18175SOL    HW257158   2.078   5.835   3.369  0.2427 -1.5564 -1.0519
18176SOL     OW57159   4.922   3.497   3.802 -0.0890 -0.1846 -0.2771
18176SOL    HW157160   4.845   3.479   3.855 -0.3577  0.6046 -0.3786
18176SOL    HW257161   4.953   3.411   3.774 -0.4581 -0.5570  0.4233
18177SOL     OW57162   6.009   3.722   6.769  0.3450  0.0542 -0.1250
18177SOL    HW157163   5.966   3.799   6.732 -1.0583  0.4507  2.1471
18177SOL    HW257164   6.029   3.746   6.859  1.1340 -1.7638  0.2379
18178SOL     OW57165   4.815   8.914   2.153 -0.0206  0.1299 -0.0812
18178SOL    HW157166   4.724   8.887   2.143 -0.3417  2.0158 -4.0079
18178SOL    HW257167   4.810   8.997   2.200 -0.2182 -0.2271  0.5365
18179SOL     OW57168   3.789   9.546   1.743  0.1486  0.5064  0.2000
18179SOL    HW157169   3.707   9.521   1.699  0.3022 -2.6975  1.4453
18179SOL    HW257170   3.839   9.592   1.676 -0.8433 -1.5147 -2.1196
18180SOL     OW57171   1.779   7.043  10.325 -0.0269 -0.1739  0.4327
18180SOL    HW157172   1.814   6.980  10.262  1.8042 -0.3441  1.5644
18180SOL    HW257173   1.765   7.123  10.274  0.4823 -0.6068 -0.3982
18181SOL     OW57174   7.643   6.072   4.255 -0.3783 -0.7104 -0.8131
18181SOL    HW157175   7.733   6.073   4.225 -0.6677  0.1349 -1.6998
18181SOL    HW257176   7.616   6.163   4.254 -0.9600 -0.8568  0.3385
18182SOL     OW57177   2.464   2.105   7.364 -0.3608  0.4562 -0.7838
18182SOL    HW157178   2.526   2.096   7.436 -1.6081  0.9378  0.4010
18182SOL    HW257179   2.492   2.185   7.318 -0.4165  0.9934  0.0808
18183SOL     OW57180   4.827   6.557  10.114 -0.3935 -0.6895 -0.2949
18183SOL    HW157181   4.758   6.514  10.063 -0.7683  2.3324 -2.6156
18183SOL    HW257182   4.897   6.492  10.119 -0.5928 -1.4595 -4.2327
18184SOL     OW57183   5.442   5.213   9.281 -0.0135  0.0063 -0.7024
18184SOL    HW157184   5.350   5.189   9.269 -0.7523  1.4193  1.5054
18184SOL    HW257185   5.443   5.308   9.275  0.7398  0.2674  2.0876
18185SOL     OW57186   7.173   7.980   0.788 -0.0082 -0.1688 -0.1834
18185SOL    HW157187   7.204   8.050   0.846 -2.1825  0.4925  0.2640
18185SOL    HW257188   7.082   7.964   0.815  0.0246 -2.3162 -1.1070
18186SOL     OW57189   4.403   5.238   0.655  0.5598  0.4424  0.3052
18186SOL    HW157190   4.331   5.286   0.616 -0.0350  0.5743  1.5216
18186SOL    HW257191   4.467   5.228   0.584 -0.2639  1.0896 -0.5457
18187SOL     OW57192   4.777   2.750   1.564  0.2368 -0.4463  0.2115
18187SOL    HW157193   4.855   2.718   1.609 -0.0924 -1.0738  0.3529
18187SOL    HW257194   4.802   2.835   1.529  0.3225  0.3178  2.0601
18188SOL     OW57195   9.555   8.318   3.661 -0.3431  0.3023  0.0582
18188SOL    HW157196   9.536   8.262   3.586 -0.9106 -0.3868  0.6997
18188SOL    HW257197   9.634   8.280   3.699 -0.1927  0.5079 -0.0483
18189SOL     OW57198   3.518   2.978   6.727  1.0264 -0.0558 -0.1199
18189SOL    HW157199   3.540   3.027   6.647 -0.0826 -0.8197 -0.9256
18189SOL    HW257200   3.440   3.021   6.761  3.7899  3.0613  3.0967
18190SOL     OW57201   5.883   8.124  10.035 -0.4124 -0.4155 -0.1803
18190SOL    HW157202   5.910   8.061   9.968 -0.4191 -0.5259 -0.0795
18190SOL    HW257203   5.940   8.200  10.021  1.4758 -1.4370  1.3721
18191SOL     OW57204   1.227   8.779   4.003  0.1109 -0.1154  0.1831
18191SOL    HW157205   1.207   8.744   3.916  1.6242  0.6375 -0.5168
18191SOL    HW257206   1.198   8.870   4.000  0.4328 -0.0033  0.3501
18192SOL     OW57207   2.164   7.672   1.437 -0.1394  0.2664  0.1017
18192SOL    HW157208   2.230   7.727   1.478  0.3459  0.1885 -0.5663
18192SOL    HW257209   2.100   7.734   1.401 -0.9374  0.3220  1.5565
18193SOL     OW57210   0.711  10.127   1.800 -0.1160  0.3127 -0.0051
18193SOL    HW157211   0.661  10.164   1.872  0.6498  1.1739  0.1008
18193SOL    HW257212   0.717  10.033   1.820 -1.3993  0.2445  0.1282
18194SOL     OW57213   8.692   2.842   9.396  0.6904  0.2703 -0.2581
18194SOL    HW157214   8.786   2.833   9.381  0.6766  0.0708 -0.2369
18194SOL    HW257215   8.684   2.900   9.471  0.9683 -3.0831  2.6355
18195SOL     OW57216   1.055   6.362   7.655 -0.6580  0.6945 -0.0933
18195SOL    HW157217   1.038   6.454   7.632 -0.4251  0.1244 -2.8549
18195SOL    HW257218   1.026   6.312   7.579  1.0349 -1.3820  0.5171
18196SOL     OW57219   6.113   0.674   7.892 -0.0624  0.1958  0.2817
18196SOL    HW157220   6.017   0.666   7.886 -0.1021 -0.2662  1.3093
18196SOL    HW257221   6.144   0.584   7.892  0.3292  0.3324  0.6264
18197SOL     OW57222   7.624   5.966   5.782 -0.8029 -0.4695 -0.8362
18197SOL    HW157223   7.563   5.920   5.724 -2.3608  0.9452 -0.3796
18197SOL    HW257224   7.693   5.997   5.724 -1.0992 -1.1120 -1.5484
18198SOL     OW57225   5.243   7.511   6.890 -0.0272 -0.0713  0.2171
18198SOL    HW157226   5.281   7.438   6.841  3.1549  1.7654 -0.3610
18198SOL    HW257227   5.209   7.471   6.970  0.3681 -2.3393 -0.6863
18199SOL     OW57228   4.139   6.995   7.661  0.5663  0.3196 -0.3293
18199SOL    HW157229   4.114   7.059   7.727  0.6925  2.1202 -1.9308
18199SOL    HW257230   4.228   6.968   7.686  1.0586  1.8310 -0.3504
18200SOL     OW57231   9.193   0.371   6.067 -0.4947  0.5723 -0.6665
18200SOL    HW157232   9.191   0.279   6.091 -0.6013  0.4127 -1.2650
18200SOL    HW257233   9.198   0.371   5.971 -1.3934  1.1791 -0.7333
18201SOL     OW57234   8.149   6.270   6.625  0.3036  0.3469  0.2999
18201SOL    HW157235   8.117   6.348   6.580 -0.4646 -0.4264 -0.5333
18201SOL    HW257236   8.229   6.246   6.578 -0.0499  0.0085 -0.1222
18202SOL     OW57237   3.058  10.208   6.369 -0.2626  0.1437 -0.1552
18202SOL    HW157238   3.009  10.230   6.448 -1.6001 -2.7145 -0.0801
18202SOL    HW257239   2.997  10.225   6.297 -0.3753 -0.7670 -0.2808
18203SOL     OW57240   3.606   1.346   0.986 -0.0752 -0.4513  0.2086
18203SOL    HW157241   3.536   1.394   1.030  0.6565  1.3840 -0.5248
18203SOL    HW257242   3.562   1.270   0.946 -1.4499  0.1026  0.6093
18204SOL     OW57243   8.545   1.107   3.539  0.3482 -0.4334  0.9478
18204SOL    HW157244   8.542   1.069   3.451  3.1107 -2.7606  1.7071
18204SOL    HW257245   8.558   1.201   3.523 -1.1902 -0.4808 -1.0614
18205SOL     OW57246   7.295   5.021   5.127 -0.2046 -0.0921  0.3025
18205SOL    HW157247   7.333   5.059   5.207  0.6188  0.9037 -0.5339
18205SOL    HW257248   7.202   5.010   5.148  0.1601 -0.7582  1.7219
18206SOL     OW57249   7.299  10.297   3.533  0.1766  0.0822  0.4211
18206SOL    HW157250   7.251  10.353   3.471  0.8383  0.3562  0.1382
18206SOL    HW257251   7.265  10.209   3.517  2.4710 -0.4241 -2.6196
18207SOL     OW57252   2.161   4.548   3.802 -0.3893 -0.3968 -0.0192
18207SOL    HW157253   2.238   4.492   3.788  0.3066  0.2237  1.1889
18207SOL    HW257254   2.196   4.626   3.845 -1.7156 -0.1361  0.6242
18208SOL     OW57255   4.162   7.617   4.041 -0.2250 -0.6604  0.1532
18208SOL    HW157256   4.127   7.668   3.967 -1.0836  0.8321  1.5374
18208SOL    HW257257   4.133   7.528   4.023  0.1666 -0.4685 -1.6570
18209SOL     OW57258   1.425   2.862   6.242 -0.1661 -0.2853 -0.1474
18209SOL    HW157259   1.472   2.841   6.322  1.1099 -2.8905 -1.4561
18209SOL    HW257260   1.449   2.793   6.181  2.1749  3.5304 -4.1714
18210SOL     OW57261   0.756   7.469   6.294  0.8212  0.3071 -0.0732
18210SOL    HW157262   0.810   7.401   6.334 -0.8714 -1.0053  0.0938
18210SOL    HW257263   0.774   7.463   6.200 -0.8348 -1.9131 -0.3486
18211SOL     OW57264   5.697   4.790   1.621  0.5281 -0.0015 -1.0948
18211SOL    HW157265   5.705   4.704   1.662 -0.1092  0.4038 -0.0808
18211SOL    HW257266   5.656   4.773   1.536  2.5804 -0.9475 -1.9867
18212SOL     OW57267   6.487   7.883   8.176  0.2396 -0.1315 -0.1184
18212SOL    HW157268   6.554   7.950   8.160  0.2238  0.2327  1.2465
18212SOL    HW257269   6.436   7.882   8.095 -0.1725  1.9864  0.0415
18213SOL     OW57270   7.323   1.370   0.562  0.4835  0.1620  0.4884
18213SOL    HW157271   7.340   1.320   0.482  0.5097 -2.8729  2.2174
18213SOL    HW257272   7.229   1.358   0.578  0.8342 -1.0280  1.9055
18214SOL     OW57273   1.577   5.627  10.128  0.0489  0.5294 -0.6299
18214SOL    HW157274   1.648   5.689  10.114  0.3617  0.0901 -1.0598
18214SOL    HW257275   1.607   5.547  10.084 -0.3170  0.0602 -0.0412
18215SOL     OW57276   8.705   9.672   4.828  0.3395 -0.1751 -0.0235
18215SOL    HW157277   8.793   9.693   4.798  0.0250  0.4004 -0.5651
18215SOL    HW257278   8.716   9.593   4.881  0.9567 -1.1077 -1.4611
18216SOL     OW57279   2.825   8.644   8.790  0.3529  0.7879 -0.3418
18216SOL    HW157280   2.780   8.602   8.864 -0.9934 -1.0159 -2.0642
18216SOL    HW257281   2.816   8.738   8.807 -2.5980  0.4853  0.3212
18217SOL     OW57282   8.480   9.320   5.012 -0.0670  0.8114 -0.9619
18217SOL    HW157283   8.429   9.376   4.954  0.0660  1.6896 -0.2611
18217SOL    HW257284   8.558   9.372   5.033 -0.8315  1.1908  1.2156
18218SOL     OW57285   1.341   1.781   4.977  0.0664 -0.2660  0.3151
18218SOL    HW157286   1.426   1.739   4.967  0.2113  0.4675 -2.2358
18218SOL    HW257287   1.360   1.875   4.973 -0.7902 -0.0736  0.4957
18219SOL     OW57288   5.633   2.247   4.350 -0.4253  0.1321 -0.4206
18219SOL    HW157289   5.625   2.307   4.277 -0.0555 -0.8270 -1.2770
18219SOL    HW257290   5.714   2.273   4.394 -1.2340  1.4374  0.3659
18220SOL     OW57291   1.297   5.837   3.933  0.0470  0.4573  0.0236
18220SOL    HW157292   1.239   5.911   3.916 -0.3819 -0.0055 -0.5990
18220SOL    HW257293   1.384   5.867   3.908 -0.0462  0.8969  0.2203
18221SOL     OW57294   3.266  10.231   2.144 -0.0295  0.2201  0.2954
18221SOL    HW157295   3.289  10.221   2.237 -2.2016  0.0570  0.8744
18221SOL    HW257296   3.276  10.144   2.107  0.5341  0.2139  0.4586
18222SOL     OW57297   2.772   6.509   9.088  1.0860 -0.6811  0.2930
18222SOL    HW157298   2.683   6.475   9.099  0.8700 -1.2267 -2.3371
18222SOL    HW257299   2.829   6.438   9.118  0.6162 -1.1665  0.0540
18223SOL     OW57300   4.987  10.344   5.716 -0.1378  0.9908 -0.0300
18223SOL    HW157301   5.012  10.310   5.802 -0.4119  1.0315  0.0682
18223SOL    HW257302   5.034  10.290   5.653 -0.9620  0.0855  0.1017
18224SOL     OW57303   5.635   7.482   4.256  0.2717  0.3308 -0.0566
18224SOL    HW157304   5.593   7.557   4.297  0.5554  0.1988  0.4888
18224SOL    HW257305   5.564   7.437   4.209  0.0477  0.7737 -0.1489
18225SOL     OW57306   9.062   3.999   8.085 -0.2904  0.2164 -0.0335
18225SOL    HW157307   9.085   4.061   8.016  1.2811 -0.9549 -0.6167
18225SOL    HW257308   9.034   3.920   8.039  1.7727 -0.9502  0.5996
18226SOL     OW57309   4.743   2.232   8.604 -0.0167  0.3644 -0.0450
18226SOL    HW157310   4.777   2.147   8.630  0.8699  1.3802  2.4765
18226SOL    HW257311   4.650   2.218   8.589  0.2205 -1.1262 -0.2300
18227SOL     OW57312   5.681   2.955   3.966 -0.1997  0.1158 -0.2040
18227SOL    HW157313   5.733   2.959   3.886  2.0705 -2.6679  0.9718
18227SOL    HW257314   5.717   3.024   4.021 -0.7829  1.0662 -0.9693
18228SOL     OW57315   2.002   2.667   0.980 -0.0608  0.6053  0.6490
18228SOL    HW157316   1.967   2.696   0.896  1.4871 -0.5533 -0.4678
18228SOL    HW257317   1.929   2.620   1.021 -0.0658 -1.3293 -1.3813
18229SOL     OW57318   5.339   2.839   7.449 -0.2314  0.1168  0.5003
18229SOL    HW157319   5.297   2.753   7.442 -0.2480  0.1726 -0.2269
18229SOL    HW257320   5.266   2.901   7.440 -0.0008  0.2161 -0.8833
18230SOL     OW57321   7.306  10.265   8.578 -0.1856 -0.4208  0.3002
18230SOL    HW157322   7.361  10.217   8.516 -0.4834 -1.9870  1.1842
18230SOL    HW257323   7.322  10.357   8.558  0.7422 -0.8663 -1.1937
18231SOL     OW57324   4.629   2.709   4.706 -0.2674  0.0526 -0.1501
18231SOL    HW157325   4.656   2.755   4.786  0.2648  0.4608 -0.5553
18231SOL    HW257326   4.708   2.666   4.675 -0.0769  1.1607 -1.2834
18232SOL     OW57327  10.288   8.046   1.366 -0.4582  0.0556  0.6780
18232SOL    HW157328  10.219   8.082   1.422  0.0570  0.8582  0.8021
18232SOL    HW257329  10.369   8.058   1.416 -0.0408  0.4253 -0.0756
18233SOL     OW57330   3.811   0.812   9.311  0.0781 -0.8961  0.1043
18233SOL    HW157331   3.811   0.791   9.218  2.1807 -1.1589  0.1198
18233SOL    HW257332   3.793   0.729   9.355 -0.7638 -0.8005 -0.0425
18234SOL     OW57333   7.973   6.797   0.112  0.4702  0.2715 -0.3315
18234SOL    HW157334   8.043   6.790   0.047  0.4208 -0.0335 -0.3504
18234SOL    HW257335   7.911   6.728   0.089  0.7225 -0.1938  0.3661
18235SOL     OW57336   1.631   0.792   0.321  0.0722  0.0760  0.2562
18235SOL    HW157337   1.544   0.772   0.288 -0.0004  0.2458  0.3405
18235SOL    HW257338   1.616   0.862   0.385  0.5354  2.0239 -1.6403
18236SOL     OW57339   6.087   8.009   8.023 -0.2541  0.0230 -0.1110
18236SOL    HW157340   6.171   8.024   7.979 -0.6178  1.1802 -0.4514
18236SOL    HW257341   6.086   7.916   8.043  0.0011 -0.5082 -2.3816
18237SOL     OW57342   1.782   6.523   2.024  0.0985 -0.2554  0.5310
18237SOL    HW157343   1.714   6.548   2.086 -1.3957  0.8081 -1.4272
18237SOL    HW257344   1.789   6.597   1.965  3.2399 -0.2041  0.8057
18238SOL     OW57345   9.544   6.858   3.625 -0.1098  1.0419  0.0114
18238SOL    HW157346   9.526   6.872   3.532 -1.1000  3.9772  0.5590
18238SOL    HW257347   9.602   6.929   3.650 -0.3455  0.6683  1.7768
18239SOL     OW57348   9.250   3.097   5.866 -0.3681 -0.1804 -0.0477
18239SOL    HW157349   9.306   3.095   5.788  0.0338  1.5023  0.1729
18239SOL    HW257350   9.171   3.048   5.840  0.8468 -1.9650 -0.6007
18240SOL     OW57351   3.852   8.604   0.091 -0.5497 -0.1864  0.4762
18240SOL    HW157352   3.878   8.515   0.068 -1.4556 -0.1808 -0.6293
18240SOL    HW257353   3.779   8.624   0.033 -0.3283  1.3077  0.6711
18241SOL     OW57354   0.760   0.671   2.967 -0.3875 -0.1602 -0.2119
18241SOL    HW157355   0.694   0.608   2.937  0.4429 -1.1530  0.0008
18241SOL    HW257356   0.722   0.757   2.946 -2.7182 -0.5587  1.8055
18242SOL     OW57357   3.344   6.348   2.983 -0.1507 -0.1049  0.3003
18242SOL    HW157358   3.331   6.384   2.896 -1.4297  0.8691  0.8659
18242SOL    HW257359   3.270   6.289   2.996 -0.1168 -0.0357  0.8272
18243SOL     OW57360   3.434   8.997   5.152  0.1906 -0.2364 -0.4222
18243SOL    HW157361   3.432   9.077   5.100  0.3605  0.6821  0.9400
18243SOL    HW257362   3.434   8.926   5.087  1.1140  0.8679 -1.6855
18244SOL     OW57363   6.769   6.009   5.117  0.4736 -0.0894 -0.6724
18244SOL    HW157364   6.712   5.990   5.192  1.7355 -0.8082  0.1316
18244SOL    HW257365   6.817   5.928   5.102  0.8530  0.3124 -1.7345
18245SOL     OW57366   0.779   0.433   5.903 -0.0836  0.1921 -0.4757
18245SOL    HW157367   0.837   0.497   5.862  0.2740 -1.5162 -2.8111
18245SOL    HW257368   0.693   0.475   5.901  0.4817  1.4374  0.0503
18246SOL     OW57369   3.985   0.771   4.627  0.2575 -0.0738  0.0324
18246SOL    HW157370   4.072   0.742   4.599  0.9205  1.4577  0.3958
18246SOL    HW257371   3.993   0.866   4.635 -1.2602  0.0216  0.7713
18247SOL     OW57372   2.391   1.375   0.274 -0.2046 -0.8578 -0.5163
18247SOL    HW157373   2.308   1.390   0.320  1.3471 -0.1496  2.2905
18247SOL    HW257374   2.427   1.462   0.260  1.2449 -1.1913  0.7931
18248SOL     OW57375   5.569   5.323   8.227  0.7220 -0.0646  0.4232
18248SOL    HW157376   5.578   5.313   8.321 -0.1027 -0.3602  0.4785
18248SOL    HW257377   5.562   5.234   8.193 -1.5779  0.0802  0.3776
18249SOL     OW57378   2.047   3.539  10.279  0.0464  0.2663  0.4260
18249SOL    HW157379   2.047   3.625  10.321  1.1150 -0.4750  2.0067
18249SOL    HW257380   2.122   3.493  10.316 -0.5020 -1.3705 -0.3742
18250SOL     OW57381   9.724   3.197  10.264  0.1019  0.4885  0.4886
18250SOL    HW157382   9.642   3.189  10.314 -0.4127  0.7333 -0.2879
18250SOL    HW257383   9.773   3.266  10.309  0.7438 -0.9335  2.0789
18251SOL     OW57384   3.008   1.626   6.250 -0.7958 -0.0744  0.2157
18251SOL    HW157385   2.988   1.714   6.282 -1.7886 -0.2282  0.0663
18251SOL    HW257386   3.101   1.614   6.267 -0.7682  0.8037  0.7231
18252SOL     OW57387   7.986   1.602   1.308  0.2531 -0.1742  0.2095
18252SOL    HW157388   8.053   1.632   1.247 -0.6034  0.8326 -0.2667
18252SOL    HW257389   7.937   1.681   1.332  0.1953 -0.6374  1.7497
18253SOL     OW57390   2.043   8.737   4.797  0.2038 -0.7206  0.7033
18253SOL    HW157391   2.131   8.720   4.764  0.1196  1.8764 -1.2085
18253SOL    HW257392   2.017   8.819   4.754 -3.4353 -1.7372  0.6585
18254SOL     OW57393   6.587   9.247   1.530 -0.3653 -0.1956  0.5124
18254SOL    HW157394   6.658   9.192   1.565 -0.0432  1.2240  2.2536
18254SOL    HW257395   6.595   9.329   1.579 -0.8683  1.4091 -1.9283
18255SOL     OW57396   0.933   5.501   3.359  0.9456 -0.1714  0.5747
18255SOL    HW157397   0.909   5.447   3.434  2.4609 -0.2328  1.0485
18255SOL    HW257398   0.969   5.581   3.397  0.0034  0.6210 -0.1203
18256SOL     OW57399   8.847   7.828   7.037 -0.6460 -0.0029  0.2400
18256SOL    HW157400   8.841   7.736   7.011  0.7971  0.0581 -0.4148
18256SOL    HW257401   8.861   7.876   6.956  0.2722  0.5984  0.7298
18257SOL     OW57402   1.344   6.239   0.458 -0.2051  0.1095  0.0846
18257SOL    HW157403   1.278   6.171   0.444 -0.4586  0.3045  0.3198
18257SOL    HW257404   1.335   6.263   0.550  1.2058 -0.8995  0.5146
18258SOL     OW57405   7.911   8.224   3.328  0.2709  0.3790  0.6122
18258SOL    HW157406   7.861   8.286   3.275  0.3091 -0.0445  0.0762
18258SOL    HW257407   7.944   8.160   3.266  0.8684  0.2403  1.0630
18259SOL     OW57408   2.949   2.846   3.975 -0.2255  0.4482 -0.1019
18259SOL    HW157409   2.975   2.851   4.067  1.0522 -0.2785 -0.4131
18259SOL    HW257410   2.993   2.768   3.941 -1.6594  0.0081 -1.0346
18260SOL     OW57411   7.160   3.667   1.611 -1.0375 -0.3263  0.0689
18260SOL    HW157412   7.194   3.688   1.698 -1.5945  1.5571 -0.1102
18260SOL    HW257413   7.231   3.690   1.552 -0.8586 -1.0906 -0.0241
18261SOL     OW57414   3.060   4.280   1.496 -0.3634 -0.4176  0.6567
18261SOL    HW157415   3.055   4.313   1.406  4.2400 -1.9707 -0.4250
18261SOL    HW257416   2.977   4.232   1.507 -1.3156  0.1812 -2.5837
18262SOL     OW57417   2.899   9.002   2.497 -0.3312 -0.2196 -0.3318
18262SOL    HW157418   2.887   8.956   2.414  0.9908 -0.9338 -0.1617
18262SOL    HW257419   2.973   9.061   2.482 -0.9860  0.7008 -0.0608
18263SOL     OW57420   8.813   9.527   3.031 -0.3569  0.7548  0.2292
18263SOL    HW157421   8.795   9.474   3.109  0.8863  1.5327  1.0838
18263SOL    HW257422   8.884   9.585   3.058  1.3020 -0.1073 -1.9848
18264SOL     OW57423   4.167  10.125   5.245  0.8793  0.3695 -0.1504
18264SOL    HW157424   4.133  10.086   5.165  3.7152  1.7484 -2.1687
18264SOL    HW257425   4.116  10.205   5.256 -0.7761 -0.7114  0.5802
18265SOL     OW57426   4.136   1.077   6.215  0.2703 -0.2938 -0.1022
18265SOL    HW157427   4.158   1.157   6.263  0.4042  0.2907 -1.1068
18265SOL    HW257428   4.149   1.007   6.279  3.1323  0.1917  0.0117
18266SOL     OW57429   6.898   0.292   8.997 -0.2245 -0.4312 -0.2075
18266SOL    HW157430   6.828   0.357   8.990 -0.3842 -0.5593  0.1724
18266SOL    HW257431   6.938   0.290   8.911 -0.0887  0.3210 -0.1642
18267SOL     OW57432   7.571   4.077   7.601  0.8038 -0.0601 -0.0911
18267SOL    HW157433   7.526   4.111   7.523  2.9311  0.6210 -1.0860
18267SOL    HW257434   7.571   3.982   7.589 -2.5307 -0.3698  1.2264
18268SOL     OW57435   3.544   8.918   8.633  0.4277 -0.0659  0.0769
18268SOL    HW157436   3.637   8.936   8.644  0.4094 -0.0196  0.1649
18268SOL    HW257437   3.508   8.924   8.722  0.1497  1.0338 -0.0947
18269SOL     OW57438   5.500   0.028   0.439 -0.6584 -0.4750  0.3375
18269SOL    HW157439   5.461  -0.054   0.468  1.9101 -2.0476 -0.3210
18269SOL    HW257440   5.551   0.059   0.515  0.4836 -0.9339 -0.2111
18270SOL     OW57441   5.993   0.739   9.024 -0.0340  0.2592 -0.0345
18270SOL    HW157442   5.899   0.755   9.035  0.0826  1.0423 -0.1073
18270SOL    HW257443   6.020   0.803   8.957  0.4682 -0.2407 -0.3131
18271SOL     OW57444   3.513   6.048   3.254 -0.2448  0.2263 -0.0221
18271SOL    HW157445   3.602   6.043   3.289 -0.2655 -0.6278 -0.0898
18271SOL    HW257446   3.497   6.142   3.244  1.1801  0.3558 -1.3708
18272SOL     OW57447   3.625   5.495   9.448 -0.3380  0.1877 -0.1478
18272SOL    HW157448   3.549   5.483   9.505 -0.5444  2.2997  0.0888
18272SOL    HW257449   3.693   5.530   9.504  0.3462 -0.2552 -0.6773
18273SOL     OW57450   9.987   5.076   4.379  0.0102  0.3007  0.2267
18273SOL    HW157451  10.055   5.125   4.332  1.0279  0.6935  2.0054
18273SOL    HW257452  10.020   4.987   4.383  0.3861  0.4541  0.9275
18274SOL     OW57453   5.131   1.086   9.780 -0.1895  0.2067 -0.8237
18274SOL    HW157454   5.115   1.098   9.873 -1.4178 -4.6573 -0.1135
18274SOL    HW257455   5.045   1.094   9.739 -0.1116 -0.2541 -1.0880
18275SOL     OW57456   2.282   4.329   0.706 -0.3377  0.0952 -0.1808
18275SOL    HW157457   2.236   4.296   0.628 -2.4704 -0.3644  1.1697
18275SOL    HW257458   2.212   4.351   0.767  1.2553  0.7196  1.5124
18276SOL     OW57459   5.874   3.369   4.122 -0.2762  0.2355 -0.3975
18276SOL    HW157460   5.884   3.457   4.157 -2.1763  0.4053 -0.1607
18276SOL    HW257461   5.866   3.381   4.028 -1.0444  0.3853 -0.3192
18277SOL     OW57462   9.454   5.153   3.827  0.2066  0.1250 -0.4737
18277SOL    HW157463   9.420   5.190   3.746 -2.5994 -1.8129 -0.3295
18277SOL    HW257464   9.418   5.209   3.896 -0.6666 -0.4767 -0.4296
18278SOL     OW57465   4.780   1.120   6.435 -0.6986 -0.2431  0.3119
18278SOL    HW157466   4.808   1.210   6.455 -2.3892  0.2801  0.4275
18278SOL    HW257467   4.846   1.065   6.477 -0.6770  0.9146  1.8864
18279SOL     OW57468   2.421   7.318   7.944 -0.6234  0.2773  0.1515
18279SOL    HW157469   2.354   7.355   7.887 -1.6967  0.8569  1.7241
18279SOL    HW257470   2.378   7.243   7.986  0.9299 -1.6983 -1.5736
18280SOL     OW57471   1.801   1.744   6.500  0.3954  0.4827  0.0164
18280SOL    HW157472   1.783   1.791   6.419 -0.4248  2.7617  1.3936
18280SOL    HW257473   1.896   1.738   6.504  0.5393  1.9821 -0.3272
18281SOL     OW57474   3.344   7.901   4.115  0.7432  0.1064  0.2884
18281SOL    HW157475   3.358   7.872   4.205  0.9647 -0.0502  0.2028
18281SOL    HW257476   3.269   7.961   4.121  0.5906 -0.1082  0.5340
18282SOL     OW57477   7.373   4.653   7.968  0.0583 -0.4056  0.2318
18282SOL    HW157478   7.401   4.579   8.023  3.3765 -0.3896 -1.2380
18282SOL    HW257479   7.287   4.627   7.936  0.0848 -2.5329  1.6729
18283SOL     OW57480   9.619   5.169   8.566  0.1012  0.2789 -0.0479
18283SOL    HW157481   9.617   5.169   8.662  0.4669 -0.1891 -0.0375
18283SOL    HW257482   9.530   5.142   8.541  0.0600  0.2101  0.1644
18284SOL     OW57483   1.121   4.321   1.077  0.2738  0.1417 -0.1035
18284SOL    HW157484   1.097   4.374   1.000  1.7257 -2.2755 -2.4070
18284SOL    HW257485   1.057   4.249   1.076 -0.8413  0.9959  2.1703
18285SOL     OW57486   0.040   1.523   0.279 -0.7430 -0.3886  0.1491
18285SOL    HW157487   0.110   1.467   0.246 -0.9109 -0.3509 -0.2746
18285SOL    HW257488   0.078   1.567   0.355 -0.6873 -1.2715  0.6540
18286SOL     OW57489   1.724   5.803   3.148  0.3970  0.3540  0.5417
18286SOL    HW157490   1.633   5.784   3.171  0.2701 -0.8305 -0.8101
18286SOL    HW257491   1.741   5.889   3.186 -1.6084  1.0759 -0.0740
18287SOL     OW57492   8.122   2.519   9.007  0.6244  0.4722  0.1754
18287SOL    HW157493   8.172   2.487   8.932 -0.5119  0.8993 -0.7865
18287SOL    HW257494   8.061   2.582   8.970 -0.5550  0.0547  1.3322
18288SOL     OW57495   6.777   8.864   2.413  0.3768 -0.0812  0.1984
18288SOL    HW157496   6.814   8.831   2.331  5.1285 -0.3551  2.1099
18288SOL    HW257497   6.772   8.788   2.470 -0.8138  0.4492  0.8458
18289SOL     OW57498   3.249   2.494   9.078 -0.3821 -0.4995  0.1107
18289SOL    HW157499   3.168   2.450   9.103 -1.4400 -0.2742 -2.6202
18289SOL    HW257500   3.248   2.495   8.983  1.6343  1.7738  0.0080
18290SOL     OW57501   3.480   7.910   8.808  0.5356 -0.1640  0.1123
18290SOL    HW157502   3.458   7.999   8.835  1.5831  0.4314 -0.8977
18290SOL    HW257503   3.538   7.877   8.877  1.1093  0.3896 -0.0950
18291SOL     OW57504   8.223   8.075   2.054  0.0820 -0.0776 -0.0010
18291SOL    HW157505   8.277   8.079   1.974 -0.7718  1.6676 -0.5388
18291SOL    HW257506   8.242   8.157   2.099 -1.0716 -0.0677  0.4937
18292SOL     OW57507   2.656   5.576   8.888 -0.4014  0.2789 -0.1729
18292SOL    HW157508   2.707   5.540   8.960 -0.0578  1.6514  0.3178
18292SOL    HW257509   2.651   5.670   8.907 -3.7949  0.1515  0.2486
18293SOL     OW57510   2.737   7.616   8.527  0.2705 -0.0750 -0.4064
18293SOL    HW157511   2.651   7.659   8.522  0.4860  0.3972 -0.1372
18293SOL    HW257512   2.742   7.563   8.448 -0.5571 -0.6450 -0.0878
18294SOL     OW57513   8.436   2.280   9.990  0.0269 -0.0929  0.3787
18294SOL    HW157514   8.391   2.324   9.918  0.1262  2.1909  1.6201
18294SOL    HW257515   8.526   2.315   9.988  1.4451 -3.4346 -1.1260
18295SOL     OW57516   3.706   1.266   7.373  0.0405  0.8821  0.2341
18295SOL    HW157517   3.644   1.309   7.433 -2.0020 -1.0141 -0.3621
18295SOL    HW257518   3.669   1.282   7.286 -0.8910 -2.0271 -0.0063
18296SOL     OW57519   3.653   7.871   2.636  0.4317 -0.1404  0.3433
18296SOL    HW157520   3.729   7.898   2.585  0.4381 -0.5392  0.1328
18296SOL    HW257521   3.609   7.952   2.660  1.0591  0.1064  0.6751
18297SOL     OW57522   9.577   1.880   6.127  0.4130 -0.0555 -0.3805
18297SOL    HW157523   9.647   1.938   6.097  0.5186  0.0427  0.0496
18297SOL    HW257524   9.496   1.929   6.109  0.5178  0.3644  0.2735
18298SOL     OW57525   7.090   8.015   0.388  0.0809 -0.6732 -0.1398
18298SOL    HW157526   7.064   7.970   0.307  1.2386 -0.2698 -0.7577
18298SOL    HW257527   7.136   7.949   0.439 -0.6867 -0.9392  0.2209
18299SOL     OW57528   9.789   3.782   6.912  0.3316  0.5091  0.0526
18299SOL    HW157529   9.737   3.808   6.988 -0.9757 -1.5141 -0.0743
18299SOL    HW257530   9.780   3.857   6.852 -1.7789  0.6130  0.3908
18300SOL     OW57531   5.434  10.042   0.065 -0.5206  0.1475 -0.2558
18300SOL    HW157532   5.528  10.029   0.078 -0.4591  0.5023 -0.3365
18300SOL    HW257533   5.429  10.108  -0.005 -0.8236  0.5500  0.1432
18301SOL     OW57534   4.944   0.320   8.597  0.3138 -0.1380  0.2241
18301SOL    HW157535   4.917   0.329   8.688  0.1013  0.3699  0.1170
18301SOL    HW257536   4.991   0.402   8.578  3.1467 -1.5216  0.8019
18302SOL     OW57537   6.922   4.439   5.620  0.1449  0.1756  0.2941
18302SOL    HW157538   6.847   4.460   5.565  0.7823  2.0199  0.0587
18302SOL    HW257539   6.885   4.399   5.698 -1.0537  0.7753  0.0493
18303SOL     OW57540   5.861   5.954   4.203 -0.1833  0.7145 -0.4322
18303SOL    HW157541   5.880   5.996   4.119  2.1935  0.6847  0.0278
18303SOL    HW257542   5.882   6.020   4.269 -0.2447  0.1273  0.1932
18304SOL     OW57543   3.496   0.258   4.300 -0.5516  0.3936 -0.3400
18304SOL    HW157544   3.423   0.310   4.333 -1.2687 -0.9915  0.3526
18304SOL    HW257545   3.525   0.303   4.221 -0.6358  2.2372  0.6392
18305SOL     OW57546   8.790   0.108   3.231  0.2778  1.1355 -0.2698
18305SOL    HW157547   8.699   0.091   3.256  0.4655 -0.2926 -0.4614
18305SOL    HW257548   8.824   0.023   3.206  0.9358  2.0433 -2.7083
18306SOL     OW57549   6.889   2.043   8.305  0.6202  0.4218 -0.0325
18306SOL    HW157550   6.809   1.991   8.297 -1.2438  2.4529  3.1323
18306SOL    HW257551   6.926   2.017   8.390  2.1977  0.9852 -0.5190
18307SOL     OW57552   9.399   4.657   9.545  0.2139  0.5758  0.1768
18307SOL    HW157553   9.413   4.592   9.614 -1.0233  0.6629  0.5283
18307SOL    HW257554   9.407   4.608   9.464 -1.5767 -0.2472  0.4454
18308SOL     OW57555   8.337   8.231   5.103 -0.0492 -0.0978 -0.4176
18308SOL    HW157556   8.393   8.294   5.057 -1.0404  1.0825 -0.0457
18308SOL    HW257557   8.397   8.161   5.129  1.2387  1.0581 -0.1581
18309SOL     OW57558   4.204   6.013   1.080 -0.1606  0.0648  0.2788
18309SOL    HW157559   4.142   6.036   1.150  0.5344 -0.5573  1.1158
18309SOL    HW257560   4.218   6.096   1.033 -0.4638  0.5508  1.0178
18310SOL     OW57561   1.976   6.710   9.771  0.0219  0.4046 -0.1838
18310SOL    HW157562   1.889   6.716   9.811  0.2797  1.3907  0.2634
18310SOL    HW257563   2.031   6.766   9.825  0.7412  0.4978 -0.9873
18311SOL     OW57564   9.925   0.824   9.900  0.0829  0.5748  0.2200
18311SOL    HW157565   9.876   0.819   9.818  0.5698  0.0074 -0.0438
18311SOL    HW257566   9.932   0.918   9.917 -3.1431  0.7117  1.5310
18312SOL     OW57567   0.924   8.964   9.192 -0.2527  0.1097  1.0904
18312SOL    HW157568   0.942   8.884   9.242  0.5742  0.4887  1.4203
18312SOL    HW257569   0.881   9.023   9.254 -2.4758 -0.6701  0.3924
18313SOL     OW57570   8.626   9.129   7.126  0.1856 -0.3223  0.9353
18313SOL    HW157571   8.599   9.071   7.197 -2.5529 -0.7285 -0.3084
18313SOL    HW257572   8.638   9.071   7.050 -2.8900  0.5593 -0.4103
18314SOL     OW57573   4.692   3.299   3.818 -0.6244  0.8847 -0.0376
18314SOL    HW157574   4.743   3.243   3.876 -0.5045  0.5637 -0.4478
18314SOL    HW257575   4.745   3.305   3.738  0.3016  3.1174  0.6378
18315SOL     OW57576   7.481   6.209   3.586 -0.7289  0.1265 -0.1817
18315SOL    HW157577   7.514   6.237   3.501 -0.9035  0.9200  0.0007
18315SOL    HW257578   7.532   6.132   3.608 -0.4158  0.1462 -0.8313
18316SOL     OW57579   1.594   4.449   6.616 -0.9398 -0.6752 -0.0515
18316SOL    HW157580   1.640   4.532   6.628 -0.7157 -0.5951 -1.3616
18316SOL    HW257581   1.523   4.452   6.681 -0.8797  0.4884 -0.0071
18317SOL     OW57582   8.842   2.882   6.455  0.2327 -0.0261 -0.3689
18317SOL    HW157583   8.925   2.862   6.498 -0.4215 -1.1955  0.4064
18317SOL    HW257584   8.796   2.939   6.517  0.9415  1.7074 -1.3585
18318SOL     OW57585   5.850   1.482   9.033 -0.6932  0.2192  0.2434
18318SOL    HW157586   5.906   1.423   9.083 -2.0283 -0.7556  0.6505
18318SOL    HW257587   5.789   1.424   8.987 -1.1160  1.2240 -0.5017
18319SOL     OW57588   5.413   8.572   0.277 -0.7323 -0.6080 -0.4468
18319SOL    HW157589   5.437   8.637   0.212 -0.7140 -0.0076  0.1468
18319SOL    HW257590   5.467   8.592   0.353 -0.9058 -1.1622 -0.1658
18320SOL     OW57591   7.397  10.310   1.344  0.2191  0.0856 -0.6488
18320SOL    HW157592   7.389  10.240   1.279  1.0651 -1.6038  0.9425
18320SOL    HW257593   7.342  10.281   1.417  0.2655  1.2964 -0.1123
18321SOL     OW57594   4.553   4.832   4.825 -0.2826 -0.4648  0.1868
18321SOL    HW157595   4.532   4.753   4.775  1.8333 -1.5340  0.8505
18321SOL    HW257596   4.558   4.802   4.916 -2.3987  1.1040  0.8828
18322SOL     OW57597   1.351   0.757   5.781 -0.3625 -0.2021  0.2710
18322SOL    HW157598   1.260   0.739   5.804 -0.1504 -4.0813 -1.2610
18322SOL    HW257599   1.348   0.780   5.688  0.0777  2.0736  0.7598
18323SOL     OW57600   8.147   8.550  10.187 -0.1028  0.1878  0.3785
18323SOL    HW157601   8.083   8.529  10.120 -0.5041  1.2561  0.4050
18323SOL    HW257602   8.186   8.466  10.210  0.0764 -0.2052 -1.2157
18324SOL     OW57603   8.210   9.467   7.902  0.4299 -0.7272 -0.8370
18324SOL    HW157604   8.175   9.469   7.992  1.0940  0.6664 -0.5934
18324SOL    HW257605   8.140   9.426   7.851  0.3129 -2.2111  0.4137
18325SOL     OW57606   6.479   8.219   5.368  0.3015 -0.2209 -0.5074
18325SOL    HW157607   6.467   8.290   5.433  2.1961 -0.2802 -0.0508
18325SOL    HW257608   6.474   8.264   5.284  0.6954  0.3432 -0.2424
18326SOL     OW57609   0.517   2.554   1.654  0.0815  0.0271  0.2794
18326SOL    HW157610   0.545   2.623   1.594  0.6716  1.3055  1.9340
18326SOL    HW257611   0.593   2.539   1.710 -0.2523 -1.5575  0.3463
18327SOL     OW57612   6.187   1.244  10.236 -0.0683 -0.8514  0.1418
18327SOL    HW157613   6.118   1.208  10.181 -0.3578  0.0297 -0.0846
18327SOL    HW257614   6.227   1.167  10.278 -0.8650 -1.3994 -0.0869
18328SOL     OW57615   6.977   0.528   9.172  0.4295  0.1949 -0.2617
18328SOL    HW157616   6.899   0.582   9.176  2.0896  2.8876 -1.6141
18328SOL    HW257617   7.034   0.562   9.240  1.4541  0.0403 -1.0198
18329SOL     OW57618   7.141   2.558   1.274  0.0122 -0.2858 -0.6437
18329SOL    HW157619   7.165   2.598   1.358  1.2696  0.1076 -1.1593
18329SOL    HW257620   7.100   2.628   1.224  0.3891 -0.1764 -0.8049
18330SOL     OW57621   8.750   5.335   4.141  0.7897 -0.1455 -0.4174
18330SOL    HW157622   8.835   5.356   4.181  0.3241 -0.4978  0.8197
18330SOL    HW257623   8.724   5.252   4.182 -1.0951  0.9821  0.8144
18331SOL     OW57624   0.313   1.885   2.189  1.1157 -0.3461 -0.6688
18331SOL    HW157625   0.355   1.803   2.214  2.7661  0.3221 -1.1038
18331SOL    HW257626   0.274   1.868   2.104  0.2411 -1.0549 -0.1425
18332SOL     OW57627   1.820   4.395   9.816  0.4993 -0.3969  0.4916
18332SOL    HW157628   1.815   4.444   9.735 -4.2159 -0.9457  0.1937
18332SOL    HW257629   1.833   4.304   9.789 -1.0649 -0.5785  0.2885
18333SOL     OW57630   1.581   1.244   8.970  0.0598  0.5121 -0.1471
18333SOL    HW157631   1.592   1.332   8.933  1.1027  0.7127  0.6003
18333SOL    HW257632   1.515   1.203   8.914  0.5004  1.3212 -1.2978
18334SOL     OW57633   6.436   9.503   6.113 -0.8653  0.1321 -0.8873
18334SOL    HW157634   6.367   9.480   6.050 -0.9211  0.8038 -1.0763
18334SOL    HW257635   6.500   9.551   6.061 -1.4890  1.7672 -0.2014
18335SOL     OW57636   1.179   1.327  10.353 -0.3099 -0.1679  0.1187
18335SOL    HW157637   1.154   1.415  10.325 -1.3207 -0.5170 -0.1205
18335SOL    HW257638   1.223   1.289  10.276  0.9217  0.4094  0.5036
18336SOL     OW57639   1.548   6.494   7.626  0.2585 -0.0040 -0.2557
18336SOL    HW157640   1.554   6.588   7.611 -3.4507  0.1654 -1.7501
18336SOL    HW257641   1.523   6.485   7.718 -0.2509  0.5159 -0.3460
18337SOL     OW57642   2.660   3.258   9.275  0.2007  0.1626 -0.1334
18337SOL    HW157643   2.566   3.258   9.294 -0.2408  2.7376 -1.7575
18337SOL    HW257644   2.693   3.335   9.322  0.9539  0.7565 -1.5671
18338SOL     OW57645   0.906   0.736   8.536 -0.4703 -0.1875  0.3761
18338SOL    HW157646   0.967   0.704   8.470 -1.1577  0.0756 -0.4104
18338SOL    HW257647   0.915   0.832   8.532 -0.2472 -0.1862  0.9211
18339SOL     OW57648   7.852   6.184  10.283  0.2973  0.3903  0.6261
18339SOL    HW157649   7.851   6.258  10.343  0.8062  1.0630 -0.1829
18339SOL    HW257650   7.797   6.118  10.326 -0.8334  1.5248  0.9841
18340SOL     OW57651   8.643   2.769   5.378 -0.0630 -0.3041 -0.0778
18340SOL    HW157652   8.691   2.850   5.397 -0.4294  0.0235 -0.5086
18340SOL    HW257653   8.620   2.777   5.285  0.0595 -0.9912 -0.1741
18341SOL     OW57654   4.812   5.981   5.280  0.0549  0.8438  0.1807
18341SOL    HW157655   4.767   6.009   5.201  1.2767  0.3695 -0.7265
18341SOL    HW257656   4.852   6.061   5.315  0.7106  0.8297 -0.5053
18342SOL     OW57657   8.288   7.437   2.227 -0.0964 -0.0435  0.7090
18342SOL    HW157658   8.263   7.516   2.179 -0.7422  0.3625  1.6944
18342SOL    HW257659   8.259   7.365   2.170  0.4922  0.4194 -0.1882
18343SOL     OW57660   4.508  10.308   0.463  0.0457  0.2221 -0.0783
18343SOL    HW157661   4.461  10.373   0.515 -1.4129  0.1308 -1.2335
18343SOL    HW257662   4.600  10.320   0.488 -0.4017  1.4182  1.1308
18344SOL     OW57663   8.786   9.465   8.439 -0.8609  0.1466 -0.1529
18344SOL    HW157664   8.731   9.441   8.513 -1.0904  1.7866  0.2515
18344SOL    HW257665   8.732   9.448   8.362 -1.0498 -0.4651  0.1131
18345SOL     OW57666   7.208   4.601   2.107 -0.3783 -0.2746  0.1816
18345SOL    HW157667   7.237   4.646   2.028 -0.9603  1.0789  0.7057
18345SOL    HW257668   7.287   4.561   2.143  0.0346 -0.2038 -0.6385
18346SOL     OW57669   7.453   9.774   6.911  0.2002  0.0585 -0.0499
18346SOL    HW157670   7.504   9.723   6.973 -0.7214  1.7857  2.2675
18346SOL    HW257671   7.375   9.722   6.895  0.3733 -0.3327  0.3679
18347SOL     OW57672   8.204   3.657   3.184 -0.4353 -0.4750 -0.5041
18347SOL    HW157673   8.285   3.606   3.184 -0.4308 -0.4673 -0.4327
18347SOL    HW257674   8.217   3.722   3.114 -0.0739  0.0088  0.0023
18348SOL     OW57675   6.321   6.602   3.868  0.2414  0.3780 -0.0087
18348SOL    HW157676   6.257   6.575   3.803  0.4633  1.4851 -0.7132
18348SOL    HW257677   6.288   6.685   3.901  0.8070  0.4705  0.3343
18349SOL     OW57678   3.329   5.464   9.180 -0.1698  0.3599  0.2817
18349SOL    HW157679   3.284   5.515   9.247  0.4551  1.9770 -0.4698
18349SOL    HW257680   3.265   5.457   9.109 -0.2807  0.0220  0.4134
18350SOL     OW57681   4.637   8.131   8.062 -0.7834  0.4915  0.4720
18350SOL    HW157682   4.723   8.172   8.074 -1.1137  2.3004 -2.3451
18350SOL    HW257683   4.649   8.074   7.985 -1.6894 -0.6488  1.1497
18351SOL     OW57684   2.245   3.453   4.684 -0.7993 -0.3781 -0.1708
18351SOL    HW157685   2.267   3.462   4.591 -0.5054 -1.1887 -0.1835
18351SOL    HW257686   2.250   3.542   4.719  1.9454 -0.4061 -0.2905
18352SOL     OW57687   7.392   7.082   5.873  0.3706  0.1504 -0.2617
18352SOL    HW157688   7.387   7.166   5.827 -0.9630  1.1107  1.5164
18352SOL    HW257689   7.311   7.037   5.850  0.3372  0.0469  0.0543
18353SOL     OW57690  10.255   1.685   7.857  0.1554 -0.8029 -0.1534
18353SOL    HW157691  10.271   1.695   7.763 -1.5223  0.8385 -0.3258
18353SOL    HW257692  10.162   1.664   7.863  0.2415 -0.8678  1.1457
18354SOL     OW57693   1.180   7.702   8.775 -0.0874 -0.7384  0.5046
18354SOL    HW157694   1.184   7.614   8.813 -1.5737 -0.2812  1.8105
18354SOL    HW257695   1.267   7.739   8.792  0.1735 -1.5452  0.9802
18355SOL     OW57696   7.366   7.919   9.274  0.0626  0.0599  0.3112
18355SOL    HW157697   7.294   7.982   9.268 -0.4410 -0.6154 -1.4544
18355SOL    HW257698   7.426   7.958   9.337  0.7718  3.3896 -2.1245
18356SOL     OW57699   1.848   4.318   6.902  0.0148  0.0113  0.2148
18356SOL    HW157700   1.854   4.254   6.973  1.2691  2.1062  2.1700
18356SOL    HW257701   1.782   4.381   6.933  0.3465  0.8014 -0.6297
18357SOL     OW57702   8.677   8.441   2.442  0.2725 -0.0650 -0.3190
18357SOL    HW157703   8.708   8.501   2.374  1.6894 -1.3103 -0.8187
18357SOL    HW257704   8.641   8.499   2.510  1.6299  1.3699 -0.7529
18358SOL     OW57705   5.885   7.982   8.510 -0.1887 -0.6737  0.5885
18358SOL    HW157706   5.931   8.066   8.500 -0.6394 -0.7036 -2.5262
18358SOL    HW257707   5.940   7.933   8.572  1.8261  0.7630  0.0568
18359SOL     OW57708   2.512   4.145   0.330 -0.1809  0.3228 -0.5286
18359SOL    HW157709   2.581   4.211   0.326  0.1620  0.4526  3.4533
18359SOL    HW257710   2.558   4.062   0.341 -0.6425  0.1264 -0.0167
18360SOL     OW57711   8.221   2.385   6.108 -0.1053 -0.3805  0.0605
18360SOL    HW157712   8.134   2.405   6.074  0.2743  1.2304 -0.0570
18360SOL    HW257713   8.210   2.304   6.157 -1.4496 -0.7585 -0.8110
18361SOL     OW57714   5.628   7.941   7.422 -0.3314  0.0050 -0.4431
18361SOL    HW157715   5.714   7.905   7.402 -0.1636 -1.4629  2.4395
18361SOL    HW257716   5.571   7.905   7.354  0.9762 -0.4906 -1.3180
18362SOL     OW57717   4.056   5.678   0.799 -0.4212 -0.3084 -0.1890
18362SOL    HW157718   4.073   5.713   0.712  0.1494 -0.5371 -0.1782
18362SOL    HW257719   4.009   5.596   0.783  0.8529 -1.0348 -0.3592
18363SOL     OW57720   4.608  10.063   3.026 -0.2651  0.4573 -0.3888
18363SOL    HW157721   4.570  10.105   2.949 -2.2264 -0.7584 -0.1634
18363SOL    HW257722   4.579   9.972   3.020  1.8630 -0.3491  0.3654
18364SOL     OW57723   8.099   7.959   7.104  0.2338 -0.3598  0.2877
18364SOL    HW157724   8.066   8.048   7.112 -0.0488 -0.4396  0.0172
18364SOL    HW257725   8.081   7.935   7.013  1.8661 -0.0635 -0.1448
18365SOL     OW57726   8.722   3.073   0.936  0.0581 -0.0024  0.6839
18365SOL    HW157727   8.652   3.012   0.914 -0.7542  1.0727  0.2415
18365SOL    HW257728   8.708   3.094   1.028  0.1198 -0.1793  0.7354
18366SOL     OW57729  10.131   3.173   3.997 -0.1357  0.2206 -0.2015
18366SOL    HW157730  10.043   3.144   3.972  0.7462 -0.5052 -2.8383
18366SOL    HW257731  10.142   3.257   3.953  0.1066  0.8838  1.0765
18367SOL     OW57732  10.289   1.428   3.090 -0.3532 -0.1578  0.2744
18367SOL    HW157733  10.346   1.423   3.167 -0.0398 -1.1623 -0.0085
18367SOL    HW257734  10.205   1.460   3.124 -0.3623 -1.0455  1.1232
18368SOL     OW57735   2.836   6.290   0.301  0.3669 -0.4729  0.4022
18368SOL    HW157736   2.745   6.314   0.319  0.2953 -0.8458  0.5600
18368SOL    HW257737   2.849   6.209   0.351  0.7741 -0.4413  0.3497
18369SOL     OW57738   5.694   9.569   9.065 -0.5179 -0.1335 -0.4119
18369SOL    HW157739   5.634   9.540   8.997  0.3512 -2.5837 -0.2402
18369SOL    HW257740   5.639   9.579   9.143 -1.1621  0.6108 -0.9468
18370SOL     OW57741   5.364   7.836   8.355 -0.1938 -0.1192 -0.1936
18370SOL    HW157742   5.322   7.921   8.371  2.0022  1.6323 -2.8508
18370SOL    HW257743   5.442   7.838   8.411 -0.4449 -0.6916  0.1880
18371SOL     OW57744   1.045   9.473   3.733  0.2848  0.1499 -0.3180
18371SOL    HW157745   0.950   9.467   3.743  0.1504  1.7036 -0.3527
18371SOL    HW257746   1.060   9.477   3.639  0.3083  0.6951 -0.2961
18372SOL     OW57747   4.398   6.643   5.576  0.1343 -0.0395  0.3207
18372SOL    HW157748   4.349   6.617   5.654 -0.5431  1.7068  0.5262
18372SOL    HW257749   4.419   6.735   5.591  0.5736  0.1461 -1.2696
18373SOL     OW57750   3.461   5.773   5.476  0.1497  0.2324  0.1678
18373SOL    HW157751   3.410   5.712   5.528  1.7502 -1.7844 -0.5187
18373SOL    HW257752   3.427   5.860   5.500 -2.0723 -0.8788  1.2918
18374SOL     OW57753   2.253   6.991   5.221  0.1897 -0.3372 -0.1783
18374SOL    HW157754   2.319   7.046   5.263 -0.4201 -0.3548  0.8457
18374SOL    HW257755   2.303   6.925   5.174  0.9092 -0.2062  0.3869
18375SOL     OW57756   0.676   8.675   1.577 -0.0210 -0.0382 -0.1177
18375SOL    HW157757   0.754   8.714   1.536 -0.1160 -0.0662 -0.3236
18375SOL    HW257758   0.696   8.581   1.581 -0.7806 -0.3128 -1.8301
18376SOL     OW57759   0.990   3.837   7.798  0.0051 -0.4249 -0.2293
18376SOL    HW157760   1.037   3.898   7.856 -0.4166 -0.3327  0.0190
18376SOL    HW257761   0.900   3.869   7.798 -0.2407 -1.1092 -0.0087
18377SOL     OW57762   5.510   1.057   3.316 -0.0846 -0.4165  0.5832
18377SOL    HW157763   5.551   1.051   3.229 -1.2820  2.6623 -0.3120
18377SOL    HW257764   5.418   1.035   3.301 -0.5982  1.4907  0.7256
18378SOL     OW57765   6.594   9.107   5.377 -0.0987  0.3515  0.4419
18378SOL    HW157766   6.666   9.114   5.314 -0.1117  1.3377  0.5140
18378SOL    HW257767   6.634   9.075   5.457  0.5849  2.3501  0.9540
18379SOL     OW57768   8.723   1.639   8.468  0.1844 -0.0369 -0.1081
18379SOL    HW157769   8.816   1.659   8.472 -0.0873  1.2336  0.3064
18379SOL    HW257770   8.708   1.611   8.377  0.8135  0.5438 -0.3917
18380SOL     OW57771   2.348   1.211   2.636 -0.0704  0.1498  0.3194
18380SOL    HW157772   2.285   1.140   2.633  0.1203 -0.0304  0.5118
18380SOL    HW257773   2.425   1.177   2.589 -0.0852  0.3370  0.1568
18381SOL     OW57774   1.549   4.522   0.707 -0.3946 -0.3064 -0.2214
18381SOL    HW157775   1.550   4.559   0.795 -1.2379  0.6989 -0.6044
18381SOL    HW257776   1.636   4.485   0.695 -0.1316 -0.0602  0.8699
18382SOL     OW57777   3.892   2.245   3.708 -0.1933  0.2071  0.4563
18382SOL    HW157778   3.972   2.292   3.685  0.4536 -1.4288 -0.9386
18382SOL    HW257779   3.907   2.214   3.797  0.5210  0.3326  0.3868
18383SOL     OW57780   7.689   1.464  10.037 -0.2780  0.1051 -0.1646
18383SOL    HW157781   7.705   1.526  10.108 -1.2392 -0.6664  0.7786
18383SOL    HW257782   7.756   1.483   9.972  0.7589  0.7131  1.0387
18384SOL     OW57783   4.570   7.382   9.982 -0.3236  0.5983 -0.8170
18384SOL    HW157784   4.664   7.368   9.986 -0.3490  0.6215  0.1964
18384SOL    HW257785   4.559   7.476   9.998 -0.3863  1.1656 -3.6336
18385SOL     OW57786   8.829   2.537   7.529 -0.6174 -0.6048  0.0626
18385SOL    HW157787   8.776   2.458   7.534 -2.3856  0.6041  1.9688
18385SOL    HW257788   8.768   2.606   7.503  0.2569  0.6238  1.1144
18386SOL     OW57789   6.840   6.771   6.204  0.3204  0.1141  0.2972
18386SOL    HW157790   6.930   6.739   6.209  0.4961 -0.0944 -2.5501
18386SOL    HW257791   6.791   6.714   6.264  2.0088  0.1665  1.8167
18387SOL     OW57792   6.224   4.384   0.572  0.0704 -0.6310  0.0033
18387SOL    HW157793   6.143   4.357   0.529 -0.6610  1.5519 -0.0997
18387SOL    HW257794   6.212   4.360   0.664 -0.1027 -1.5594 -0.2568
18388SOL     OW57795   3.441   5.099   2.324 -0.0110 -0.6577  0.3649
18388SOL    HW157796   3.417   5.051   2.245 -1.6761  1.1001 -0.3027
18388SOL    HW257797   3.524   5.141   2.303 -0.9155  0.6040 -0.9058
18389SOL     OW57798   9.591   9.997   3.319  0.0889 -0.1984 -0.7447
18389SOL    HW157799   9.530  10.033   3.255  2.0202  0.9337 -2.0837
18389SOL    HW257800   9.580  10.051   3.397 -0.5518  0.0352 -0.9934
18390SOL     OW57801   8.310   2.239   5.388  0.3129  0.6666 -0.1529
18390SOL    HW157802   8.399   2.247   5.422  0.1367  0.8840  0.2617
18390SOL    HW257803   8.267   2.322   5.412  0.4942  1.2811 -1.8370
18391SOL     OW57804   9.335   0.842   6.476 -0.5207 -0.1153  0.3539
18391SOL    HW157805   9.324   0.824   6.383  0.9722 -0.9185  0.3069
18391SOL    HW257806   9.403   0.781   6.505  1.2665  2.1619  1.2813
18392SOL     OW57807   0.276   6.796   9.825 -0.3774  0.1572  0.1135
18392SOL    HW157808   0.368   6.814   9.807 -0.4160  1.0448  0.7633
18392SOL    HW257809   0.240   6.879   9.856 -1.5508 -0.0066 -0.7061
18393SOL     OW57810   0.467   0.719   1.374 -0.0153 -0.0286 -0.1903
18393SOL    HW157811   0.522   0.778   1.323 -0.9839  0.0641 -1.1764
18393SOL    HW257812   0.383   0.720   1.329 -0.9331  0.0802  1.4633
18394SOL     OW57813   9.686   8.128   8.647  0.2459 -0.2456  0.3544
18394SOL    HW157814   9.719   8.212   8.677  0.5584  0.5938 -2.1678
18394SOL    HW257815   9.592   8.143   8.633  0.2135 -0.4583  0.3413
18395SOL     OW57816   9.005   2.031   4.640  0.0029 -0.1477  0.6261
18395SOL    HW157817   9.074   2.062   4.583 -0.6380 -1.1478 -0.7465
18395SOL    HW257818   9.045   2.026   4.727  2.2172 -2.3816 -0.4057
18396SOL     OW57819   3.534   1.214   5.647  0.5121 -0.2886  0.8532
18396SOL    HW157820   3.486   1.178   5.722  0.0124 -0.1769  0.5968
18396SOL    HW257821   3.506   1.306   5.644 -0.9458 -0.7244 -0.5805
18397SOL     OW57822   4.748   5.462   9.658 -0.0953  0.4760  0.0887
18397SOL    HW157823   4.841   5.449   9.637 -0.6444  0.4173 -2.7163
18397SOL    HW257824   4.744   5.550   9.695  1.1284  0.3008  0.6802
18398SOL     OW57825   5.264   7.547   1.556  0.0401  0.3675  0.2310
18398SOL    HW157826   5.257   7.596   1.638 -3.2593 -0.7338  0.7903
18398SOL    HW257827   5.348   7.502   1.561 -0.9372 -1.4664  4.1978
18399SOL     OW57828   6.315   1.413   6.542  0.6017  0.0728 -0.3136
18399SOL    HW157829   6.319   1.508   6.553 -2.1295  0.5800 -2.4741
18399SOL    HW257830   6.230   1.388   6.576  0.3723 -1.2220 -1.7028
18400SOL     OW57831   3.826   6.477   0.456 -0.0069  0.3695  0.1225
18400SOL    HW157832   3.799   6.555   0.503 -0.8219 -0.1234  0.5039
18400SOL    HW257833   3.829   6.503   0.364 -3.0921  0.1801 -0.1380
18401SOL     OW57834   9.619   5.178   7.051 -0.0610  0.1657 -0.1146
18401SOL    HW157835   9.528   5.157   7.073 -0.0478  0.0513 -0.1676
18401SOL    HW257836   9.666   5.170   7.134  0.4757 -2.8219 -0.5739
18402SOL     OW57837   9.816   3.681  10.307  0.3490 -0.4399  0.4509
18402SOL    HW157838   9.890   3.740  10.322  0.3980 -1.0175  3.0619
18402SOL    HW257839   9.784   3.703  10.220  2.8728  0.6141 -0.3034
18403SOL     OW57840   0.026   6.881   5.853  0.1076 -0.4705 -0.1542
18403SOL    HW157841  -0.036   6.935   5.902  1.8518  1.4600  0.0567
18403SOL    HW257842   0.035   6.925   5.768 -0.3290 -1.8743 -0.9527
18404SOL     OW57843   9.596   0.419   8.561 -0.2628 -0.3393  0.0334
18404SOL    HW157844   9.566   0.427   8.652 -2.0435  1.1955 -0.6291
18404SOL    HW257845   9.675   0.473   8.558  1.1682 -2.2397  1.1549
18405SOL     OW57846   6.362   1.348   5.509  0.0118  0.4978  0.6869
18405SOL    HW157847   6.350   1.436   5.545  0.2777  0.2999  1.2684
18405SOL    HW257848   6.317   1.291   5.570  1.6112  0.0132  1.4553
18406SOL     OW57849   8.788   5.410   5.136  0.3056  0.2044 -0.4028
18406SOL    HW157850   8.775   5.332   5.082  0.5164 -0.3686  0.3561
18406SOL    HW257851   8.706   5.418   5.185 -0.3002  1.3361 -1.5545
18407SOL     OW57852   9.888   6.174   0.174 -0.1094  0.5018  0.2357
18407SOL    HW157853   9.956   6.227   0.132  0.7620  0.1268  1.1494
18407SOL    HW257854   9.832   6.239   0.218  0.1370  0.7588  0.1744
18408SOL     OW57855   5.190   8.664   7.517  0.3034 -0.3532 -0.0232
18408SOL    HW157856   5.235   8.746   7.536  0.1768 -0.2500 -0.1630
18408SOL    HW257857   5.149   8.638   7.599  0.2469 -0.2159 -0.0090
18409SOL     OW57858   7.760   3.903   4.183 -0.2860 -0.6677 -0.5391
18409SOL    HW157859   7.671   3.926   4.210  0.2589  1.4508 -0.4323
18409SOL    HW257860   7.772   3.814   4.216 -1.5745 -0.1775  1.4219
18410SOL     OW57861   9.540   0.151   1.905 -0.1182 -0.0308 -0.4945
18410SOL    HW157862   9.583   0.231   1.873 -0.6518  1.3584  1.9645
18410SOL    HW257863   9.561   0.085   1.840 -0.6219  2.3612 -3.2889
18411SOL     OW57864   4.580   1.752   1.428  0.0967  0.5475  0.0709
18411SOL    HW157865   4.604   1.826   1.372  2.3558 -0.4082 -0.3635
18411SOL    HW257866   4.534   1.792   1.501  0.6553  2.3222 -0.4791
18412SOL     OW57867   3.036   8.584   3.241  0.1811 -0.1034  0.3626
18412SOL    HW157868   3.100   8.638   3.288 -2.4427  1.2423  2.6521
18412SOL    HW257869   3.054   8.495   3.270  0.5402  0.3531  1.5960
18413SOL     OW57870   4.351   2.440   4.772  0.1309  0.3483  0.0973
18413SOL    HW157871   4.368   2.522   4.725  0.4376  0.1616 -0.1235
18413SOL    HW257872   4.256   2.430   4.768 -0.0417  1.3097  1.1735
18414SOL     OW57873   3.433   3.944   5.622  0.3424  0.3065 -0.3963
18414SOL    HW157874   3.515   3.925   5.576 -0.9291  0.3988 -2.8338
18414SOL    HW257875   3.400   4.023   5.580 -2.9740 -1.9221 -2.4344
18415SOL     OW57876  10.325   3.851   0.111  0.1282 -0.5381 -0.3506
18415SOL    HW157877  10.401   3.794   0.113 -0.1741 -0.9851  2.4625
18415SOL    HW257878  10.361   3.940   0.117  0.4935 -0.4960 -2.4246
18416SOL     OW57879  10.306   4.197   2.977 -0.3895  0.1008  0.1355
18416SOL    HW157880  10.394   4.226   2.952 -0.6790  0.2213 -0.7800
18416SOL    HW257881  10.286   4.247   3.056  0.5829 -0.3462  0.6903
18417SOL     OW57882   7.208   5.073   3.167  0.4435 -0.3496 -0.3815
18417SOL    HW157883   7.282   5.131   3.181  0.2911 -0.1809 -0.2667
18417SOL    HW257884   7.132   5.122   3.199  0.2400 -0.3971 -0.7880
18418SOL     OW57885   0.839   7.670   1.260 -0.4490  0.4321 -0.2851
18418SOL    HW157886   0.894   7.591   1.270 -1.5545 -0.3403 -0.1046
18418SOL    HW257887   0.880   7.735   1.318  0.2007 -0.1702 -0.0511
18419SOL     OW57888  10.289   8.586   0.041  0.4820 -0.0092 -0.1901
18419SOL    HW157889  10.346   8.512   0.022 -0.7380 -0.3919 -2.9587
18419SOL    HW257890  10.210   8.547   0.078  0.2228 -0.0057 -0.7308
18420SOL     OW57891   1.290  10.091   1.884  0.0074 -0.1462 -0.1400
18420SOL    HW157892   1.231  10.120   1.954 -1.2604 -0.7856 -0.9145
18420SOL    HW257893   1.285   9.996   1.887  0.2452 -0.1855 -0.8619
18421SOL     OW57894  10.184   1.611   0.820  0.4554  0.1325 -0.2713
18421SOL    HW157895  10.253   1.656   0.771 -1.3365  0.6616 -2.4781
18421SOL    HW257896  10.217   1.521   0.829  2.5540  0.9712  1.1453
18422SOL     OW57897   4.978   0.666   0.779  0.4754 -0.0616  1.1528
18422SOL    HW157898   4.930   0.583   0.778  1.1119 -0.5259  3.2112
18422SOL    HW257899   5.066   0.643   0.749 -0.0331  0.4587 -0.9307
18423SOL     OW57900   2.377   5.450   1.454  0.2966 -0.7361 -0.2107
18423SOL    HW157901   2.397   5.408   1.371  0.6586  0.2634 -0.6513
18423SOL    HW257902   2.426   5.533   1.452 -0.8347 -0.0171  0.3526
18424SOL     OW57903   5.653   7.390   6.068 -0.5269  0.0284 -0.2035
18424SOL    HW157904   5.621   7.479   6.086 -2.0415  0.1580 -2.9659
18424SOL    HW257905   5.748   7.398   6.072 -0.6479  1.4900  0.7348
18425SOL     OW57906   3.125   9.707   0.513  0.2620  0.2741 -0.1152
18425SOL    HW157907   3.204   9.660   0.487  1.1948  1.4213  0.5317
18425SOL    HW257908   3.063   9.691   0.442  1.3545  0.0173 -1.0423
18426SOL     OW57909   5.855   1.929   6.872  0.0376 -0.0518  0.3181
18426SOL    HW157910   5.849   1.834   6.885 -1.4838 -0.0116  0.0568
18426SOL    HW257911   5.948   1.949   6.885  0.6106 -1.7560 -0.8637
18427SOL     OW57912   1.601   6.900   3.769  0.1822  0.3725  0.6650
18427SOL    HW157913   1.601   6.831   3.704  3.3710  0.9441 -0.1004
18427SOL    HW257914   1.563   6.860   3.847 -1.3023 -1.0975 -0.7395
18428SOL     OW57915   5.306   8.366   0.066 -0.7020  0.0654  0.4211
18428SOL    HW157916   5.307   8.401   0.155  0.4394  0.5790  0.2272
18428SOL    HW257917   5.389   8.319   0.058 -0.9634 -0.2952 -0.2544
18429SOL     OW57918   4.859   7.577   6.817 -0.0778  0.3701 -0.0150
18429SOL    HW157919   4.869   7.533   6.902  1.4526  0.6269 -0.0299
18429SOL    HW257920   4.791   7.643   6.832 -1.6104 -1.2406  0.3063
18430SOL     OW57921   6.496   2.519   6.173 -0.1085  0.0303 -0.4799
18430SOL    HW157922   6.586   2.547   6.156  0.8979 -0.6992  2.9137
18430SOL    HW257923   6.485   2.441   6.118  1.0747  0.4989 -1.4335
18431SOL     OW57924   8.154   4.869   7.714  0.7453  0.1005 -0.7809
18431SOL    HW157925   8.168   4.925   7.789  2.0446 -1.2675  0.0557
18431SOL    HW257926   8.202   4.911   7.643  1.4047  0.2501 -0.2578
18432SOL     OW57927   6.708   8.701   4.647  0.5185  0.6479 -0.6436
18432SOL    HW157928   6.725   8.730   4.557 -0.4205  0.4453 -0.9022
18432SOL    HW257929   6.634   8.641   4.639 -0.3958  1.5702  0.4001
18433SOL     OW57930   0.847   0.011   4.689  0.4397 -0.3999 -0.3092
18433SOL    HW157931   0.754   0.009   4.666  0.7636  0.3127 -1.7947
18433SOL    HW257932   0.848   0.023   4.784 -1.0043  1.5949 -0.4857
18434SOL     OW57933   2.115   0.388   8.413  0.3366 -0.3641  0.0084
18434SOL    HW157934   2.144   0.478   8.400  1.8975 -0.8482  0.0419
18434SOL    HW257935   2.025   0.388   8.380 -0.4298  1.6731  1.8621
18435SOL     OW57936   3.036   5.748   9.595 -0.4810  0.4398 -0.3784
18435SOL    HW157937   2.968   5.708   9.649 -0.8300  1.8241  0.2511
18435SOL    HW257938   2.989   5.810   9.539  0.1994  1.1190 -0.2180
18436SOL     OW57939   1.278   2.050   3.586 -0.4696 -0.1090  0.2396
18436SOL    HW157940   1.227   2.116   3.541 -0.8952  0.1162  1.0232
18436SOL    HW257941   1.328   2.098   3.652 -0.9837 -0.5684  0.9962
18437SOL     OW57942   8.984   7.854   0.825 -0.7023  0.4269  0.4188
18437SOL    HW157943   8.975   7.773   0.776 -0.4082  0.4406  0.3426
18437SOL    HW257944   9.040   7.832   0.900 -0.0719  0.7134  0.0382
18438SOL     OW57945   2.662   1.554   1.751 -0.1919  0.8140 -0.0569
18438SOL    HW157946   2.595   1.566   1.819  0.6858 -0.1622  1.0128
18438SOL    HW257947   2.694   1.642   1.733 -0.9941  1.1693  0.1937
18439SOL     OW57948   7.280   2.146   5.551  0.6136 -0.2027  0.1996
18439SOL    HW157949   7.295   2.054   5.574 -1.2296 -0.6235 -0.1532
18439SOL    HW257950   7.351   2.166   5.489 -0.4161 -2.2206 -1.8127
18440SOL     OW57951   3.256   1.438   8.846  0.1798 -0.0283  0.4234
18440SOL    HW157952   3.306   1.517   8.870 -0.4952  0.5499 -0.0168
18440SOL    HW257953   3.166   1.459   8.869 -0.2083 -0.1602 -0.8810
18441SOL     OW57954   5.394   6.188   6.395  0.0859 -0.3477 -0.0767
18441SOL    HW157955   5.440   6.194   6.311 -0.6592 -1.6290 -0.5975
18441SOL    HW257956   5.346   6.271   6.402 -0.7206 -0.6659 -1.4619
18442SOL     OW57957   4.248   6.470   3.826  0.3072 -0.2649 -0.1763
18442SOL    HW157958   4.302   6.509   3.895 -0.0366  0.8389 -0.5021
18442SOL    HW257959   4.173   6.433   3.872  1.2594 -1.7149  0.2705
18443SOL     OW57960   2.953   9.496   8.201  0.3630  0.4609 -0.0837
18443SOL    HW157961   2.970   9.586   8.229  1.4688  0.0096  0.7880
18443SOL    HW257962   2.991   9.442   8.271 -1.6986 -0.6857  0.2281
18444SOL     OW57963   4.137   8.159   8.041  0.0656  0.3865 -0.3481
18444SOL    HW157964   4.094   8.152   7.955  0.0910  0.6200 -0.3814
18444SOL    HW257965   4.065   8.155   8.104  0.1912 -1.9028 -0.2658
18445SOL     OW57966   9.443   3.511   9.346  0.2999 -0.0771 -0.1649
18445SOL    HW157967   9.446   3.441   9.280 -1.0291 -0.9224  0.6465
18445SOL    HW257968   9.351   3.533   9.355  0.5018  0.3621  1.0732
18446SOL     OW57969   7.955   4.606   8.864 -0.1330 -0.3832  0.1596
18446SOL    HW157970   8.015   4.566   8.927 -0.1556  0.5707  0.8056
18446SOL    HW257971   8.006   4.678   8.826 -0.8552  0.4480  0.7230
18447SOL     OW57972   6.299   4.334   3.459 -0.2072  0.1620  0.1876
18447SOL    HW157973   6.297   4.255   3.513  0.5565 -0.8907 -1.2468
18447SOL    HW257974   6.367   4.389   3.499  1.1873 -1.1226 -0.3529
18448SOL     OW57975   7.603   9.764   1.961  0.0125  0.6701  0.1177
18448SOL    HW157976   7.667   9.800   1.898 -0.0513  0.5380 -0.0233
18448SOL    HW257977   7.654   9.750   2.041  0.1422  0.6441  0.0317
18449SOL     OW57978   8.982   4.769   5.492  0.0718  0.0822  0.1027
18449SOL    HW157979   8.968   4.702   5.425 -1.3797 -0.3311  0.7929
18449SOL    HW257980   9.024   4.842   5.445 -1.2642 -0.0398 -1.3501
18450SOL     OW57981   8.919   4.097  10.013  0.0525  0.1109  0.3507
18450SOL    HW157982   8.849   4.100   9.948 -0.2237 -1.1593  0.5615
18450SOL    HW257983   8.996   4.067   9.965 -0.0456 -0.4039  0.5030
18451SOL     OW57984   8.561   1.125   8.134 -0.0702 -0.1023 -0.4435
18451SOL    HW157985   8.622   1.184   8.177 -0.5602  0.6319 -0.7465
18451SOL    HW257986   8.577   1.040   8.176  2.8823 -0.5467 -2.1557
18452SOL     OW57987   1.361   5.059   8.139  0.1108 -0.2300 -0.3828
18452SOL    HW157988   1.282   5.021   8.103  0.4974 -0.1420 -1.3539
18452SOL    HW257989   1.423   5.060   8.066  1.0286 -0.3618  0.3731
18453SOL     OW57990   7.396   9.427   1.338  0.4716  0.0767  0.1542
18453SOL    HW157991   7.327   9.387   1.284 -1.1319  0.1516  2.0275
18453SOL    HW257992   7.471   9.435   1.279 -0.5462 -1.6493 -1.4961
18454SOL     OW57993   1.902   3.089   8.027 -0.4905 -0.0831 -0.1166
18454SOL    HW157994   1.989   3.087   7.987 -0.1719 -1.8924  0.5628
18454SOL    HW257995   1.901   3.169   8.079  0.5647  0.2291 -0.5488
18455SOL     OW57996   9.503   2.920   2.743  0.1544 -0.1943 -0.2878
18455SOL    HW157997   9.457   2.976   2.680 -0.4731  0.2793  0.5685
18455SOL    HW257998   9.498   2.968   2.826  1.0355 -0.7672  0.1087
18456SOL     OW57999   8.551   2.633   7.692  0.1899  0.0724 -0.1924
18456SOL    HW158000   8.552   2.715   7.642 -2.0973 -0.8838 -1.9453
18456SOL    HW258001   8.494   2.575   7.643  1.1473 -2.3782  1.4016
18457SOL     OW58002  10.163   3.830   0.854  0.0491 -0.4337  0.4174
18457SOL    HW158003  10.247   3.787   0.873  0.4937  0.5970  0.8750
18457SOL    HW258004  10.131   3.786   0.776  2.0993  0.5882 -1.1174
18458SOL     OW58005   5.203  10.128   3.759 -0.2212 -0.1203 -0.0644
18458SOL    HW158006   5.150  10.203   3.733  0.4493  0.3932  0.0275
18458SOL    HW258007   5.160  10.093   3.837  0.1904  0.9721  0.6680
18459SOL     OW58008   6.103   2.919   0.311 -0.3255  0.5860  0.2010
18459SOL    HW158009   6.098   2.962   0.396  2.8877 -0.6090  1.1178
18459SOL    HW258010   6.073   2.830   0.327 -0.0335  0.4480 -0.0169
18460SOL     OW58011   6.594   8.511   2.511 -0.6743  0.1066  0.1114
18460SOL    HW158012   6.501   8.518   2.534 -0.1665  2.0942  1.7823
18460SOL    HW258013   6.593   8.492   2.417 -2.7703  0.4707  0.0011
18461SOL     OW58014   0.308   4.747   9.261 -0.2144  0.1577 -0.4607
18461SOL    HW158015   0.324   4.687   9.189  0.2235 -0.5215  0.1891
18461SOL    HW258016   0.224   4.719   9.297  0.0334 -0.1306 -0.0998
18462SOL     OW58017   1.543   1.346   1.322 -0.7968  0.5926  0.2490
18462SOL    HW158018   1.476   1.360   1.388 -0.8449  2.1950 -0.1003
18462SOL    HW258019   1.599   1.423   1.328 -0.7505  0.7331 -1.4813
18463SOL     OW58020   9.837   9.536   7.075 -0.0857 -0.2208  0.2718
18463SOL    HW158021   9.787   9.465   7.034  0.2117 -0.3919  0.1985
18463SOL    HW258022   9.783   9.565   7.149  0.3264 -1.3131  1.0184
18464SOL     OW58023   1.968   4.213   9.618  0.0300  0.0168 -0.2941
18464SOL    HW158024   2.042   4.198   9.559  0.4790 -0.5377  0.4013
18464SOL    HW258025   1.950   4.128   9.657  0.7229  0.6498  1.5051
18465SOL     OW58026   0.690   4.393   7.377  0.1689  0.3663  0.0925
18465SOL    HW158027   0.697   4.343   7.296  1.0737  0.9099 -0.1747
18465SOL    HW258028   0.601   4.377   7.407  0.2419 -0.9385 -0.2915
18466SOL     OW58029   8.418  10.001   8.798 -0.0900  0.0453  0.4522
18466SOL    HW158030   8.347  10.064   8.784 -1.3257 -1.5492 -0.8032
18466SOL    HW258031   8.377   9.931   8.850 -0.2757 -2.1296 -2.3976
18467SOL     OW58032   7.713   9.952  10.359 -0.3591 -0.4974 -0.0108
18467SOL    HW158033   7.662   9.981  10.283 -0.9217 -3.4900 -0.9121
18467SOL    HW258034   7.659   9.974  10.435 -1.4788 -0.7037 -0.7355
18468SOL     OW58035   4.447   0.457   4.508 -0.1312  0.0037 -0.1998
18468SOL    HW158036   4.490   0.372   4.499 -1.4686 -0.8492  1.0194
18468SOL    HW258037   4.487   0.495   4.586  1.7457  1.3495 -1.7250
18469SOL     OW58038   8.421   0.549   0.160  0.2354 -0.2486  0.4082
18469SOL    HW158039   8.475   0.480   0.198  1.7372 -0.4554 -1.9173
18469SOL    HW258040   8.470   0.580   0.085 -3.3056 -1.2343 -2.6122
18470SOL     OW58041   0.491   0.043   4.039  0.4156 -0.3448 -0.0714
18470SOL    HW158042   0.439   0.070   4.115  0.2687 -1.2086  0.1523
18470SOL    HW258043   0.570   0.004   4.077  0.5249 -0.4160 -0.3714
18471SOL     OW58044   4.756   7.388   2.392 -0.0075 -0.0068 -0.5593
18471SOL    HW158045   4.846   7.356   2.381  0.2946 -0.1622  1.8816
18471SOL    HW258046   4.763   7.483   2.384  0.0919 -0.1088 -1.8778
18472SOL     OW58047   5.202   5.458   4.284 -0.0489 -0.1382 -0.0557
18472SOL    HW158048   5.182   5.364   4.284 -1.1550  0.0831  0.2286
18472SOL    HW258049   5.219   5.479   4.375 -0.6005  0.0923 -0.0033
18473SOL     OW58050   0.463   8.041   4.536  0.1602 -0.2093 -0.2260
18473SOL    HW158051   0.542   8.083   4.571  0.6059 -1.9557  0.9898
18473SOL    HW258052   0.492   7.955   4.507 -1.4748 -1.3385  1.3206
18474SOL     OW58053   7.480   1.228   6.978  0.0700 -0.0036  0.2946
18474SOL    HW158054   7.442   1.142   6.996 -0.2135  0.0829  0.1067
18474SOL    HW258055   7.501   1.226   6.884 -2.7329  1.2039 -0.4624
18475SOL     OW58056   2.556   3.125   4.071  0.0105  0.1508 -0.8345
18475SOL    HW158057   2.544   3.166   3.985  1.8398  0.3861 -1.0011
18475SOL    HW258058   2.490   3.055   4.073 -0.1636  0.2417 -2.3659
18476SOL     OW58059   2.498   3.894   4.842  0.6702 -0.3664  0.3419
18476SOL    HW158060   2.554   3.909   4.918 -0.5965  1.1050  1.0389
18476SOL    HW258061   2.520   3.964   4.782  1.0044 -0.9868 -0.2757
18477SOL     OW58062   3.310   4.438   8.705 -0.2764  0.2873  0.0385
18477SOL    HW158063   3.376   4.436   8.636 -0.0925 -0.0260  0.2245
18477SOL    HW258064   3.335   4.512   8.760 -0.7845  0.9395 -0.5820
18478SOL     OW58065   9.750   1.343  10.353  0.2683 -0.5969 -0.0167
18478SOL    HW158066   9.721   1.420  10.304 -1.6006 -0.7969  0.6634
18478SOL    HW258067   9.833   1.318  10.313  1.6670  2.5945  0.6632
18479SOL     OW58068   9.352   1.933   7.611  0.1861  0.4749 -0.5497
18479SOL    HW158069   9.413   1.992   7.657  0.4580 -0.2115 -0.0129
18479SOL    HW258070   9.386   1.930   7.522  0.0087  1.3425 -0.6627
18480SOL     OW58071   1.072   5.140   0.445  0.0557  0.1483  0.5449
18480SOL    HW158072   1.162   5.152   0.416  0.0329 -0.7259  0.0845
18480SOL    HW258073   1.080   5.092   0.527 -0.0327 -1.8650 -0.5632
18481SOL     OW58074   9.422   0.029   7.834 -0.0704 -0.2526  0.1712
18481SOL    HW158075   9.407  -0.036   7.904  1.2911  0.8860  1.5886
18481SOL    HW258076   9.505   0.070   7.857 -0.9153  2.0741 -0.6299
18482SOL     OW58077   8.325   3.198   0.713 -0.4547  0.1392 -0.1815
18482SOL    HW158078   8.266   3.237   0.778  1.9552  1.5968  1.3045
18482SOL    HW258079   8.390   3.267   0.697  0.9306 -1.4281 -1.5921
18483SOL     OW58080   7.293   5.289   2.246 -0.0481 -0.4860  0.3378
18483SOL    HW158081   7.243   5.262   2.170 -0.8384  0.7106  0.4153
18483SOL    HW258082   7.230   5.333   2.303  1.1810  1.7093  0.1089
18484SOL     OW58083   1.330   4.317   1.454  0.4745  0.3345 -0.4382
18484SOL    HW158084   1.375   4.324   1.370  1.3793  0.9687  0.0839
18484SOL    HW258085   1.270   4.392   1.456  0.1232  0.0599 -0.7108
18485SOL     OW58086   7.805   7.117   1.606  1.3752 -0.5164 -0.3508
18485SOL    HW158087   7.792   7.212   1.607  1.6057 -0.4862 -0.1363
18485SOL    HW258088   7.864   7.102   1.532 -0.2881 -0.7117 -1.6823
18486SOL     OW58089   6.921   0.608   7.114  0.3860 -0.4923  0.3731
18486SOL    HW158090   6.966   0.690   7.139 -1.7163  1.0317 -0.5313
18486SOL    HW258091   6.869   0.585   7.190 -1.9918  1.2601 -0.5810
18487SOL     OW58092   7.507   6.427   2.430 -0.5776  0.2279  0.8892
18487SOL    HW158093   7.580   6.368   2.447 -0.3949 -0.2600 -1.2764
18487SOL    HW258094   7.533   6.511   2.469 -0.0812 -0.6326  2.4765
18488SOL     OW58095   5.793   1.524   4.639  0.2255 -0.3713 -0.5304
18488SOL    HW158096   5.840   1.600   4.673  1.7790 -1.4543 -0.1530
18488SOL    HW258097   5.702   1.538   4.666  0.6728  0.8338  0.4527
18489SOL     OW58098   8.701   1.090   8.523  0.3253 -0.5325 -0.0457
18489SOL    HW158099   8.665   1.123   8.605 -2.5401  4.6178 -2.9189
18489SOL    HW258100   8.629   1.040   8.483  0.4904 -0.1494 -0.8408
18490SOL     OW58101   9.947   0.132   7.646 -0.2349 -0.1019  0.0091
18490SOL    HW158102  10.005   0.057   7.658 -0.2128  0.1686  1.8998
18490SOL    HW258103   9.859   0.094   7.642 -0.2578 -0.2468  1.3250
18491SOL     OW58104   6.488   4.771   5.602  0.1822  0.6196  0.5736
18491SOL    HW158105   6.499   4.771   5.698  0.0154  2.0649  0.6184
18491SOL    HW258106   6.470   4.862   5.581 -0.9840  0.1139 -0.7140
18492SOL     OW58107   7.524   5.429   7.086  0.2268  0.1815  0.1057
18492SOL    HW158108   7.608   5.412   7.128 -0.2316 -3.0755 -0.0674
18492SOL    HW258109   7.521   5.524   7.076  2.3043  0.7298  3.3002
18493SOL     OW58110   8.858   3.988   5.384 -0.2000  0.3380  0.4004
18493SOL    HW158111   8.865   3.895   5.407 -0.5340  0.0989 -0.4225
18493SOL    HW258112   8.946   4.011   5.354 -0.0627  0.3431  0.8034
18494SOL     OW58113   8.173   1.208   9.150  0.3843 -0.4540 -0.2595
18494SOL    HW158114   8.082   1.183   9.162  0.9028 -2.9497 -1.0224
18494SOL    HW258115   8.189   1.274   9.218 -1.1631 -2.1519  1.8861
18495SOL     OW58116   9.011   4.174   8.306 -1.0077  0.1357 -0.2374
18495SOL    HW158117   8.961   4.116   8.362 -1.1201  0.8063  0.3769
18495SOL    HW258118   9.013   4.131   8.221 -0.2821 -1.2165  0.4345
18496SOL     OW58119   2.798   8.448   5.301  0.1735 -0.0788  0.1587
18496SOL    HW158120   2.773   8.454   5.209 -1.0300 -0.6191  0.4363
18496SOL    HW258121   2.886   8.409   5.300 -0.0666 -0.6138 -0.7419
18497SOL     OW58122   5.097   9.733   5.260 -0.2233 -0.0402  0.2492
18497SOL    HW158123   5.163   9.781   5.310 -0.1397 -2.1764  2.3552
18497SOL    HW258124   5.014   9.774   5.286  0.0786  3.5778 -3.4387
18498SOL     OW58125   3.434   3.500   6.126 -0.7019  0.2286  0.1272
18498SOL    HW158126   3.383   3.486   6.046  1.5057  0.4925 -1.4040
18498SOL    HW258127   3.507   3.438   6.119 -0.5893  0.0637  2.1000
18499SOL     OW58128   4.481   5.540   0.175  0.7946  0.4429 -0.3684
18499SOL    HW158129   4.451   5.625   0.208  1.3852  1.2327 -1.7505
18499SOL    HW258130   4.506   5.558   0.084 -0.3304 -1.5129 -1.1051
18500SOL     OW58131   2.634   3.019   6.181 -0.1214  0.3965 -0.2020
18500SOL    HW158132   2.556   3.016   6.126  0.0096  1.3812 -0.4740
18500SOL    HW258133   2.683   2.939   6.159 -0.7965  0.0381 -0.4118
18501SOL     OW58134   5.267   5.367   8.634  0.5524  0.1109 -0.4938
18501SOL    HW158135   5.184   5.382   8.680  2.4572  1.1429  3.0247
18501SOL    HW258136   5.287   5.275   8.649  0.4071  0.0480 -0.6830
18502SOL     OW58137   6.680   6.016   8.913 -0.1320 -0.4946  0.4273
18502SOL    HW158138   6.738   6.082   8.876  1.1732 -1.9751 -0.3072
18502SOL    HW258139   6.724   5.988   8.993 -0.7970 -0.2933  0.8640
18503SOL     OW58140   6.347   0.785   8.010 -0.1882  0.1797  0.0991
18503SOL    HW158141   6.266   0.752   7.971 -0.5395  1.2297 -0.1130
18503SOL    HW258142   6.325   0.801   8.102 -0.0714 -0.0313  0.1624
18504SOL     OW58143   5.020   1.050   6.804  0.5215 -0.7659 -0.0100
18504SOL    HW158144   4.955   1.011   6.862  0.3082 -1.8905 -0.9556
18504SOL    HW258145   5.103   1.042   6.851  0.2192 -0.7998  0.5242
18505SOL     OW58146   7.671   5.356   9.637  0.4007 -0.1980  0.3006
18505SOL    HW158147   7.646   5.318   9.721  0.1019 -0.9050 -0.1034
18505SOL    HW258148   7.713   5.284   9.590  0.6645  0.2251 -0.1194
18506SOL     OW58149   5.400   1.231   8.769 -0.1041 -0.0281 -0.3281
18506SOL    HW158150   5.463   1.169   8.805 -0.7199 -0.7251 -0.4242
18506SOL    HW258151   5.442   1.265   8.689  1.0723  1.1877  0.7604
18507SOL     OW58152   6.097   4.199   9.838 -0.0887 -0.0614 -0.3287
18507SOL    HW158153   6.116   4.126   9.897 -0.8735 -0.3539 -0.4252
18507SOL    HW258154   6.121   4.277   9.888  0.5670 -0.3660 -0.1491
18508SOL     OW58155   7.729   3.668   4.314  0.2563  0.2719 -0.2411
18508SOL    HW158156   7.687   3.615   4.246 -0.6006 -1.1779  1.3327
18508SOL    HW258157   7.672   3.658   4.390  1.1720  1.8569  0.7062
18509SOL     OW58158   6.524   4.406   3.084  0.7234 -0.1908 -0.2311
18509SOL    HW158159   6.535   4.312   3.095  1.4231 -0.0052  0.7402
18509SOL    HW258160   6.430   4.421   3.094  0.6563 -0.7407 -0.0230
18510SOL     OW58161   3.950   2.783   1.961 -0.7452 -0.0347  0.7675
18510SOL    HW158162   4.038   2.763   1.995 -0.4777 -0.5356 -0.1835
18510SOL    HW258163   3.931   2.870   1.995 -0.0160 -0.0587  1.2685
18511SOL     OW58164   5.499   4.860   5.603 -0.1614  0.2166 -0.1068
18511SOL    HW158165   5.447   4.892   5.529 -0.6750  0.3649  0.3096
18511SOL    HW258166   5.504   4.935   5.663 -0.2062 -0.0643  0.2538
18512SOL     OW58167   3.012   1.000   3.060 -0.3388  0.0922 -0.1355
18512SOL    HW158168   2.958   1.061   3.111  1.9365  1.4173  0.8357
18512SOL    HW258169   3.063   1.056   3.002  1.1452 -0.9352  0.1234
18513SOL     OW58170   7.436   2.824   1.726  0.6708  0.0711  0.2121
18513SOL    HW158171   7.513   2.873   1.754  1.0944  0.1326 -0.9643
18513SOL    HW258172   7.433   2.748   1.784  2.3809 -0.5938 -0.4720
18514SOL     OW58173   1.571   6.672   9.208  0.6377 -0.0847 -0.3473
18514SOL    HW158174   1.628   6.681   9.284  1.2251  0.1648 -0.8105
18514SOL    HW258175   1.483   6.688   9.242  0.8360 -0.5054  0.3779
18515SOL     OW58176   0.976   7.814   2.493 -0.3164  0.2977  0.0687
18515SOL    HW158177   1.010   7.902   2.475 -0.3890  0.2923 -0.0977
18515SOL    HW258178   0.911   7.828   2.563  0.5330  0.2093  0.9001
18516SOL     OW58179   4.237   1.997  10.258  0.3154  0.5224 -0.7381
18516SOL    HW158180   4.185   2.068  10.295 -1.2233 -1.7136  1.7202
18516SOL    HW258181   4.322   2.004  10.302  0.0476  0.6305 -0.2349
18517SOL     OW58182   0.194  10.183   3.252  0.0915 -0.3770  0.3556
18517SOL    HW158183   0.249  10.111   3.285 -2.2194 -0.6326  4.2388
18517SOL    HW258184   0.215  10.257   3.308 -0.8741  0.5988 -0.5292
18518SOL     OW58185   2.115   2.304   7.713  0.1838 -0.2533 -0.0591
18518SOL    HW158186   2.135   2.362   7.786 -0.7242  1.8129 -1.3527
18518SOL    HW258187   2.195   2.302   7.661  0.4656 -0.8099  0.3892
18519SOL     OW58188   0.486   9.650  10.275  0.1841 -0.4571  0.1974
18519SOL    HW158189   0.417   9.671  10.213  0.5771 -1.2879 -0.5333
18519SOL    HW258190   0.563   9.698  10.243  0.5233 -1.2936 -0.2717
18520SOL     OW58191   6.963   3.231   6.920 -0.0041  0.5217  0.5855
18520SOL    HW158192   7.038   3.177   6.893  0.2659  1.3620 -0.4371
18520SOL    HW258193   6.910   3.173   6.974  2.1752  0.3618  2.7326
18521SOL     OW58194   9.145   8.633   9.200 -0.5170  0.2060 -0.4409
18521SOL    HW158195   9.144   8.593   9.287 -1.9834  0.3222 -0.3904
18521SOL    HW258196   9.231   8.609   9.164 -0.2077 -0.5076  0.7193
18522SOL     OW58197   4.752   7.260   4.660 -0.3691  0.3224  0.1329
18522SOL    HW158198   4.753   7.166   4.678  2.2631 -0.0476 -1.4131
18522SOL    HW258199   4.844   7.286   4.660 -1.0256  2.9879  0.7226
18523SOL     OW58200   5.173   2.639   5.067  0.0225  0.1380  0.4571
18523SOL    HW158201   5.145   2.639   5.158 -2.5781 -1.0037 -0.2475
18523SOL    HW258202   5.113   2.699   5.023  0.3988 -0.3072 -0.7089
18524SOL     OW58203  10.033   7.459   4.520  0.0870  0.4610 -0.0150
18524SOL    HW158204  10.088   7.470   4.442  0.2086 -2.3944 -0.4566
18524SOL    HW258205   9.970   7.531   4.516  0.6904  0.9413 -2.2371
18525SOL     OW58206   4.788   4.960   2.398 -0.0924  0.4057  0.4113
18525SOL    HW158207   4.711   5.013   2.379 -0.3767 -0.3449 -0.6405
18525SOL    HW258208   4.765   4.910   2.477 -0.5392  0.4546  0.3109
18526SOL     OW58209   1.035   3.835   2.657 -0.7112  0.1208  0.4984
18526SOL    HW158210   1.103   3.870   2.599 -2.4422  1.5611 -0.7649
18526SOL    HW258211   1.033   3.896   2.731  0.2649 -0.7173  1.2623
18527SOL     OW58212   0.907   4.310   9.154 -0.5098  0.6734  0.7286
18527SOL    HW158213   0.842   4.378   9.175  0.1856  1.3971  0.5645
18527SOL    HW258214   0.865   4.258   9.085 -1.4200  0.3573  1.4876
18528SOL     OW58215   5.246   2.618   8.708 -0.7097  0.3303  0.2711
18528SOL    HW158216   5.160   2.584   8.732 -0.3319  0.2093  1.4889
18528SOL    HW258217   5.304   2.589   8.778  0.2647  0.7067 -0.3595
18529SOL     OW58218   8.326   6.716   9.214  0.9266  0.6546 -0.6672
18529SOL    HW158219   8.230   6.712   9.208  0.8111  3.2289 -1.3795
18529SOL    HW258220   8.356   6.716   9.123  1.7615 -1.4346 -0.4638
18530SOL     OW58221   4.925   9.185   6.259  0.1057 -0.2967  0.0419
18530SOL    HW158222   4.954   9.095   6.242  1.9436 -0.1799  2.1383
18530SOL    HW258223   4.888   9.183   6.347  0.9562  1.1578  0.4680
18531SOL     OW58224   8.070   2.725   7.031 -0.1088 -0.2809  0.2688
18531SOL    HW158225   8.139   2.786   7.055  0.0187 -0.8149  1.3224
18531SOL    HW258226   8.003   2.779   6.989  0.1528  0.5227  0.8685
18532SOL     OW58227   1.948   3.336   1.033  0.6036 -0.5659  0.0038
18532SOL    HW158228   2.000   3.257   1.047  0.9110 -0.6538 -1.4711
18532SOL    HW258229   2.004   3.408   1.062  1.2556 -0.7250 -0.8182
18533SOL     OW58230   6.685   7.179   3.572  0.3554  0.7014  0.1112
18533SOL    HW158231   6.690   7.177   3.477  1.3086  1.6035  0.1334
18533SOL    HW258232   6.769   7.145   3.602  0.0956  0.5056  0.6422
18534SOL     OW58233   4.940   0.113   2.045 -0.5716 -0.3506 -0.2498
18534SOL    HW158234   4.847   0.091   2.045 -0.2070 -1.9913 -0.2229
18534SOL    HW258235   4.978   0.059   2.115  0.6608 -0.8994 -1.2924
18535SOL     OW58236   8.482   0.432   5.345  0.5986  0.1488 -0.8697
18535SOL    HW158237   8.457   0.345   5.315 -0.3921  0.4621 -0.9935
18535SOL    HW258238   8.539   0.466   5.275 -0.6820  0.3877 -1.8345
18536SOL     OW58239   9.475   6.183   7.280  0.4431  0.3622 -0.2224
18536SOL    HW158240   9.567   6.206   7.267  0.4928  0.9369  0.9930
18536SOL    HW258241   9.478   6.108   7.339  0.1414  0.1361 -0.4963
18537SOL     OW58242   7.955   7.787   5.007 -0.1923  0.0825  0.1590
18537SOL    HW158243   8.016   7.860   5.015  0.3751 -0.3706  0.0638
18537SOL    HW258244   7.944   7.774   4.913 -1.0169  0.6314  0.1729
18538SOL     OW58245   6.859   4.944   4.801  0.7700 -0.0849  0.8007
18538SOL    HW158246   6.864   5.037   4.820 -2.2761 -0.5065  5.4931
18538SOL    HW258247   6.781   4.935   4.745 -0.7909  0.1686  2.7965
18539SOL     OW58248   9.297   0.146   1.989 -0.2626 -0.6308  0.2642
18539SOL    HW158249   9.265   0.074   1.936 -0.0835 -0.7923  0.3746
18539SOL    HW258250   9.381   0.169   1.951 -1.5919  1.4674 -1.6232
18540SOL     OW58251   8.685   3.849   9.708  0.4278 -0.1813  0.4707
18540SOL    HW158252   8.661   3.792   9.781 -3.7158  1.2650  0.4699
18540SOL    HW258253   8.749   3.799   9.658 -0.2449 -3.2430  2.4363
18541SOL     OW58254   9.459   4.197   2.410  0.5947 -0.2110 -0.4035
18541SOL    HW158255   9.532   4.238   2.456 -1.3470  1.9166  0.9819
18541SOL    HW258256   9.398   4.269   2.391 -1.5955 -1.9935 -0.6363
18542SOL     OW58257   0.967   5.756   9.896  0.6001 -0.1651  0.2349
18542SOL    HW158258   0.876   5.770   9.922  0.0755 -1.4261 -0.7936
18542SOL    HW258259   0.962   5.723   9.806  2.2141  1.7706 -0.6462
18543SOL     OW58260   0.795   2.958  10.348 -0.3946  0.2395 -0.4010
18543SOL    HW158261   0.861   2.890  10.362  0.0497  1.0360  1.7525
18543SOL    HW258262   0.715   2.922  10.388 -0.9247 -0.1256 -1.7288
18544SOL     OW58263   6.742   6.669   1.544 -0.2797  0.1774 -0.1917
18544SOL    HW158264   6.758   6.576   1.528  1.6202  0.3090  0.6817
18544SOL    HW258265   6.719   6.704   1.459 -0.9963 -1.0832 -0.5427
18545SOL     OW58266   9.536   8.369   7.085  0.0599  1.0235  0.4596
18545SOL    HW158267   9.504   8.338   7.000 -0.1630 -0.4426  1.0592
18545SOL    HW258268   9.592   8.444   7.063  1.1535 -0.1851 -1.1253
18546SOL     OW58269   3.437   3.609   0.084  0.1141  0.0677 -0.1920
18546SOL    HW158270   3.462   3.698   0.109 -2.6760  0.2141  2.7948
18546SOL    HW258271   3.514   3.556   0.105  0.5892  1.3365  1.4832
18547SOL     OW58272   6.752   4.891   3.197 -0.5059 -0.2557 -0.2256
18547SOL    HW158273   6.739   4.959   3.131 -0.3695  1.4033  1.3828
18547SOL    HW258274   6.756   4.938   3.280 -0.0619 -2.2096  0.9315
18548SOL     OW58275   0.438   8.016   1.670 -0.2844  0.0696  0.1182
18548SOL    HW158276   0.423   8.034   1.577  1.2730  0.8618 -0.0062
18548SOL    HW258277   0.402   8.092   1.715 -1.3681 -0.4790  0.2185
18549SOL     OW58278   9.779   1.398   7.864 -0.0969  0.3888 -0.0292
18549SOL    HW158279   9.757   1.352   7.783  0.3012  0.5602 -0.2393
18549SOL    HW258280   9.721   1.360   7.930  0.7600 -0.9880 -0.0268
18550SOL     OW58281   9.022   3.977   1.395 -0.0762  0.0258 -0.5107
18550SOL    HW158282   9.078   4.055   1.401 -0.4174  0.1570  1.4701
18550SOL    HW258283   9.058   3.916   1.459  0.7906 -1.9399 -2.6946
18551SOL     OW58284   0.641   4.931   4.514  0.0955  0.0636  0.2071
18551SOL    HW158285   0.626   4.847   4.559 -0.2042  0.4503  0.8320
18551SOL    HW258286   0.728   4.957   4.542  0.1697 -0.0092  0.0487
18552SOL     OW58287   4.073   2.769  10.245 -0.1213 -0.4495  0.4700
18552SOL    HW158288   4.023   2.824  10.186 -0.5248 -0.0604  1.1568
18552SOL    HW258289   4.165   2.791  10.227 -0.1478 -1.5800 -1.1841
18553SOL     OW58290   0.600   4.776   6.434 -0.4884  0.0348 -0.5878
18553SOL    HW158291   0.601   4.768   6.339  0.3793  1.0379 -0.6840
18553SOL    HW258292   0.687   4.749   6.463 -1.2604 -1.8775  0.1093
18554SOL     OW58293  10.221   3.944   3.002  0.1133 -0.1700  0.5326
18554SOL    HW158294  10.252   4.027   3.040 -0.5538 -0.2425  1.2710
18554SOL    HW258295  10.212   3.886   3.077 -1.5082 -0.2384  0.3195
18555SOL     OW58296   6.679   0.505   1.523 -0.2824  0.5842  0.1675
18555SOL    HW158297   6.670   0.420   1.480 -1.1208  0.3905  0.7088
18555SOL    HW258298   6.660   0.569   1.454 -0.2426  0.3187 -0.0911
18556SOL     OW58299   0.477   4.585   9.667  0.2576 -0.1886 -0.0879
18556SOL    HW158300   0.432   4.502   9.650  1.2384 -0.9320  0.7825
18556SOL    HW258301   0.495   4.584   9.761 -1.6776  2.0643  0.3758
18557SOL     OW58302   6.133   4.323   1.352 -0.0933 -0.4687 -0.7045
18557SOL    HW158303   6.171   4.239   1.329  1.8194 -0.1512  0.9850
18557SOL    HW258304   6.203   4.387   1.333 -1.2290  0.6698 -1.2511
18558SOL     OW58305   7.108   7.457   6.445 -0.3057 -0.0011 -0.1158
18558SOL    HW158306   7.090   7.388   6.382 -1.4093  0.6936 -0.6016
18558SOL    HW258307   7.200   7.480   6.432  0.2292 -1.7080  0.4122
18559SOL     OW58308   2.449  10.338   0.049  0.3849  0.3779  0.5933
18559SOL    HW158309   2.475  10.249   0.028  1.2207  0.3806  1.5561
18559SOL    HW258310   2.441  10.381  -0.037 -1.6327 -1.0169  0.0259
18560SOL     OW58311   3.880   7.407   4.451 -0.8521 -0.1742 -0.0166
18560SOL    HW158312   3.815   7.345   4.483 -1.9672  1.6033  1.4329
18560SOL    HW258313   3.950   7.405   4.516  0.7481 -2.2290 -1.6765
18561SOL     OW58314   6.005   9.521   0.986 -0.0377  0.7320  0.5707
18561SOL    HW158315   6.081   9.544   1.040  0.9643  1.0415 -0.9086
18561SOL    HW258316   6.036   9.530   0.896 -1.2554 -1.0851 -0.0857
18562SOL     OW58317   7.469   4.849   7.255 -0.3998  0.3026 -0.0066
18562SOL    HW158318   7.562   4.860   7.236 -0.0733 -0.0393  1.3068
18562SOL    HW258319   7.434   4.938   7.257  0.0352  0.4714  0.1720
18563SOL     OW58320   0.165   4.112   0.980  0.6384 -0.2992  0.4963
18563SOL    HW158321   0.129   4.194   1.012 -0.7489 -0.1400 -1.3207
18563SOL    HW258322   0.187   4.063   1.060  0.2481  1.2729  1.6197
18564SOL     OW58323   1.871   0.749   6.852 -0.6882 -0.0676 -0.6092
18564SOL    HW158324   1.952   0.761   6.801 -1.1418 -1.4078 -1.7096
18564SOL    HW258325   1.860   0.832   6.899  0.0114  1.0862 -2.3548
18565SOL     OW58326   2.999   6.350   6.013  0.0634 -0.0697  0.0313
18565SOL    HW158327   3.007   6.255   6.002 -0.5991  0.0204 -1.5180
18565SOL    HW258328   2.940   6.361   6.087  1.1290 -0.8307  1.0461
18566SOL     OW58329   6.945   7.567   6.844 -0.0275 -0.0786  0.5534
18566SOL    HW158330   6.900   7.587   6.927 -0.5178 -1.1329  0.5610
18566SOL    HW258331   7.023   7.518   6.871  0.4765  0.6633  0.4612
18567SOL     OW58332   1.300   6.770   9.257  0.1693 -0.1169 -0.0299
18567SOL    HW158333   1.225   6.714   9.274 -0.9807  1.4362  0.3069
18567SOL    HW258334   1.299   6.785   9.163  0.7063 -0.9382 -0.1732
18568SOL     OW58335   8.692   7.028   9.538  0.3484 -0.2938  0.4327
18568SOL    HW158336   8.641   6.971   9.479 -0.1619 -0.1741  0.7549
18568SOL    HW258337   8.644   7.027   9.620  3.0046 -3.5799  2.2031
18569SOL     OW58338   5.136   3.340   5.355  0.1718 -0.0043  0.3482
18569SOL    HW158339   5.183   3.267   5.316 -0.3551 -0.9371  1.3862
18569SOL    HW258340   5.102   3.390   5.281  0.0171 -1.1652 -0.3787
18570SOL     OW58341   6.905   6.661   9.238  0.1020 -0.4121 -0.1165
18570SOL    HW158342   6.989   6.661   9.285  0.0446 -0.8163 -0.0101
18570SOL    HW258343   6.909   6.738   9.182 -1.4547  2.5187  3.4043
18571SOL     OW58344   9.841   6.349   9.659 -0.1450  0.1441 -0.2515
18571SOL    HW158345   9.793   6.277   9.617 -0.4687 -0.3710  0.9516
18571SOL    HW258346   9.810   6.428   9.615  0.3371 -0.4480 -1.7153
18572SOL     OW58347   8.086   7.034   9.757  0.2440  1.0042  0.7448
18572SOL    HW158348   8.140   6.955   9.764  1.7068  1.9824  1.0770
18572SOL    HW258349   8.020   7.025   9.826 -0.7887 -0.7512 -0.3997
18573SOL     OW58350   0.858   8.009   4.278 -0.0334  0.7080  0.1268
18573SOL    HW158351   0.817   7.931   4.240 -1.4560  1.1496  0.6666
18573SOL    HW258352   0.915   8.042   4.208 -0.7377  0.1642 -0.7387
18574SOL     OW58353   3.814   3.877   1.774  0.2433  0.2068 -0.0123
18574SOL    HW158354   3.885   3.888   1.709  1.6309  1.3675  1.6122
18574SOL    HW258355   3.734   3.896   1.725  0.9371 -1.5225 -2.0180
18575SOL     OW58356   5.080   9.262   2.342 -0.8264  0.5279  0.1659
18575SOL    HW158357   5.132   9.201   2.288 -1.0170 -0.1837  0.7760
18575SOL    HW258358   5.057   9.333   2.281 -0.3975  0.1182 -0.4963
18576SOL     OW58359   9.338   0.021   5.832  0.3064 -0.0869  0.2175
18576SOL    HW158360   9.357   0.003   5.740  1.5225  2.1942 -0.0450
18576SOL    HW258361   9.416   0.067   5.864 -2.1862  4.1707  0.8348
18577SOL     OW58362   3.940   6.873   1.403 -0.3070 -0.1803 -0.3393
18577SOL    HW158363   3.989   6.804   1.447 -0.9283 -0.0750  0.5488
18577SOL    HW258364   3.893   6.918   1.474 -0.2894  0.8471 -0.9533
18578SOL     OW58365   2.936   1.010   5.387  0.2501  0.2554 -0.2518
18578SOL    HW158366   2.965   0.939   5.445 -0.0911  0.0930 -0.2717
18578SOL    HW258367   2.865   1.052   5.436  0.4579  0.5842 -0.2386
18579SOL     OW58368   3.003   7.482   3.148 -0.1992  0.4445 -0.3110
18579SOL    HW158369   3.042   7.396   3.165 -0.7392  0.0634 -0.9093
18579SOL    HW258370   3.015   7.531   3.229  1.7356  0.4472 -0.5441
18580SOL     OW58371   0.356   4.090   3.538 -0.3157  0.5943 -0.0379
18580SOL    HW158372   0.411   4.168   3.529 -0.5336  0.8578  0.8292
18580SOL    HW258373   0.347   4.078   3.632  0.2756 -0.8873 -0.1423
18581SOL     OW58374   4.210   9.133   3.570  0.2498 -0.3186 -0.1000
18581SOL    HW158375   4.207   9.126   3.666  2.5451 -1.0951 -0.0069
18581SOL    HW258376   4.166   9.054   3.539 -1.1595  0.2939  0.2641
18582SOL     OW58377   0.859   8.746   7.477 -0.7551 -0.0401 -0.0192
18582SOL    HW158378   0.842   8.840   7.468 -2.0784 -0.3045 -0.5165
18582SOL    HW258379   0.923   8.740   7.548 -1.1570  1.1928  0.4832
18583SOL     OW58380   8.945   1.606   0.579  0.0433  0.0392 -0.4625
18583SOL    HW158381   8.999   1.528   0.566 -1.6532 -1.0822 -1.1079
18583SOL    HW258382   8.928   1.608   0.673  1.5052  0.6611 -0.1752
18584SOL     OW58383   0.339   6.870   1.317 -0.4507 -0.1516  0.2029
18584SOL    HW158384   0.286   6.943   1.287  0.3024  0.0214 -0.7584
18584SOL    HW258385   0.283   6.793   1.306 -0.1455 -0.1295 -1.9138
18585SOL     OW58386   5.743   4.522   4.876  0.6563 -0.7336 -0.5896
18585SOL    HW158387   5.732   4.614   4.852  0.3650 -0.9087 -1.1461
18585SOL    HW258388   5.780   4.481   4.798  1.5190 -0.9458 -0.0875
18586SOL     OW58389   6.497   4.932   7.897  0.4033 -0.7864  0.1787
18586SOL    HW158390   6.521   4.840   7.907  0.8188 -0.8139 -0.8976
18586SOL    HW258391   6.402   4.932   7.889  0.4327 -1.1688 -0.1908
18587SOL     OW58392   7.265   7.302   4.104  0.4162 -0.1538  0.1405
18587SOL    HW158393   7.235   7.393   4.107 -0.8151 -0.5512  0.4831
18587SOL    HW258394   7.348   7.302   4.153  0.5722  0.8319 -0.1179
18588SOL     OW58395   3.444   0.787   7.022 -0.1376 -0.4665 -0.1265
18588SOL    HW158396   3.449   0.866   6.969  0.0819 -1.2381 -1.2744
18588SOL    HW258397   3.481   0.813   7.107  0.3646  0.5192 -0.6332
18589SOL     OW58398   8.437   7.218   1.744  0.1381  0.1317  0.3270
18589SOL    HW158399   8.507   7.167   1.703  2.1814  1.1007  2.3632
18589SOL    HW258400   8.483   7.276   1.806 -2.3665  1.9486  0.6212
18590SOL     OW58401   5.833   7.324   4.608 -0.9691 -0.1566  0.3475
18590SOL    HW158402   5.894   7.376   4.660 -1.4173  0.5073  0.2271
18590SOL    HW258403   5.864   7.332   4.518 -0.0319 -1.5301  0.5070
18591SOL     OW58404   7.857   8.686   2.209  0.4103 -0.0291  0.0507
18591SOL    HW158405   7.790   8.632   2.251  1.0591 -0.2563  0.8139
18591SOL    HW258406   7.930   8.626   2.194  0.1550  0.0056 -1.5606
18592SOL     OW58407   9.012   9.899   7.862  0.1416 -0.2052  0.5286
18592SOL    HW158408   8.969   9.965   7.807  1.8787  1.2696  0.8494
18592SOL    HW258409   8.961   9.898   7.943  1.3002  2.4275  1.4030
18593SOL     OW58410   4.145   7.010   8.925  0.0458  0.6514 -0.4600
18593SOL    HW158411   4.171   7.035   8.836  1.3566  0.9280 -0.0229
18593SOL    HW258412   4.200   6.935   8.946 -0.4207  0.4465  0.0306
18594SOL     OW58413   9.501   8.801   4.448 -0.0544 -0.2498 -0.6720
18594SOL    HW158414   9.564   8.744   4.491 -0.0947  0.9603  1.0812
18594SOL    HW258415   9.468   8.749   4.374  2.3448 -1.2061 -1.1458
18595SOL     OW58416   3.083   1.584   0.006 -0.2410  0.1642  0.0094
18595SOL    HW158417   3.069   1.641   0.081  0.9046  0.2644  0.1569
18595SOL    HW258418   3.105   1.643  -0.066 -0.1853 -0.0190 -0.1240
18596SOL     OW58419   2.647   0.973   7.131 -0.0295  0.4280 -0.0195
18596SOL    HW158420   2.588   1.020   7.190 -0.9761 -2.3745  1.3869
18596SOL    HW258421   2.735   0.996   7.162 -0.4363  1.4187  0.4582
18597SOL     OW58422   5.429   0.156   3.929  0.3711 -0.5613  0.1532
18597SOL    HW158423   5.339   0.126   3.934  1.0205 -2.6688  0.3115
18597SOL    HW258424   5.432   0.233   3.986 -1.0948 -1.0513  0.9355
18598SOL     OW58425   0.166   4.724   2.194  0.8855 -0.2091 -0.0648
18598SOL    HW158426   0.223   4.693   2.264  1.1116  1.0063  0.3096
18598SOL    HW258427   0.098   4.657   2.187  1.1496 -0.6049  0.9650
18599SOL     OW58428   6.718   1.477   0.973  0.7839  0.7456  0.0897
18599SOL    HW158429   6.692   1.426   1.050 -0.0005  0.0912 -0.5874
18599SOL    HW258430   6.651   1.545   0.966 -1.0770 -1.1408 -1.8508
18600SOL     OW58431   4.033   7.225   9.983  0.4825 -0.0943  0.0256
18600SOL    HW158432   4.110   7.255   9.934 -1.5950  0.6167 -3.1188
18600SOL    HW258433   4.038   7.130   9.979  0.1107 -0.0867 -2.2359
18601SOL     OW58434   7.444   2.750   4.468  0.2601  0.1576  0.3033
18601SOL    HW158435   7.483   2.675   4.423  1.2839  1.9086 -1.9360
18601SOL    HW258436   7.492   2.757   4.550  1.4196 -0.5442 -0.2912
18602SOL     OW58437   7.628   3.026   1.811  0.1546  0.8927  0.0672
18602SOL    HW158438   7.696   2.961   1.824  0.6977  1.3044 -0.6620
18602SOL    HW258439   7.635   3.085   1.887  0.2898  0.6593  0.2351
18603SOL     OW58440   6.940   5.502   0.022  0.6114 -0.1141 -0.6168
18603SOL    HW158441   7.006   5.463   0.079  0.0173 -2.5369 -1.4704
18603SOL    HW258442   6.975   5.494  -0.066  0.1710  0.7523 -0.8929
18604SOL     OW58443   7.988   5.315   4.522 -0.1629 -0.0402  0.7689
18604SOL    HW158444   7.973   5.366   4.443  1.6382 -0.5589  0.0314
18604SOL    HW258445   7.992   5.224   4.491 -1.2921 -0.4507  1.7553
18605SOL     OW58446   3.912   3.673   0.200 -0.2356 -0.1284  0.4749
18605SOL    HW158447   4.001   3.705   0.188 -0.4556  0.2764 -0.1026
18605SOL    HW258448   3.857   3.751   0.199 -0.8669 -0.5433 -1.8260
18606SOL     OW58449   1.604   9.893   5.223  0.2696 -0.7818 -0.3051
18606SOL    HW158450   1.674   9.902   5.158  0.5875  0.7275  0.2100
18606SOL    HW258451   1.616   9.968   5.282 -0.4708 -1.6895  1.0583
18607SOL     OW58452   0.029   3.126   7.367 -0.1005  0.6976 -0.0728
18607SOL    HW158453  -0.043   3.187   7.354  0.4971  1.4768  0.1746
18607SOL    HW258454   0.080   3.163   7.440  1.2112  0.8141 -1.0066
18608SOL     OW58455   3.406   9.828   4.853 -0.2099  0.6623 -0.6860
18608SOL    HW158456   3.439   9.752   4.804 -2.0810  0.4464 -1.7440
18608SOL    HW258457   3.402   9.898   4.788  1.5038  1.7233  0.2823
18609SOL     OW58458   2.579   0.406   4.461  0.4945 -0.1056  0.0534
18609SOL    HW158459   2.507   0.353   4.425 -0.7300  2.3501 -1.3178
18609SOL    HW258460   2.559   0.411   4.555  0.0624 -1.1929  0.0381
18610SOL     OW58461   9.751   1.686   9.548 -0.4248  0.1324  0.1096
18610SOL    HW158462   9.734   1.592   9.552 -0.0795  0.0861  0.7450
18610SOL    HW258463   9.740   1.716   9.639  1.9127  0.2564  0.4239
18611SOL     OW58464   9.127   5.419   5.737 -0.2177 -0.4174 -0.0181
18611SOL    HW158465   9.211   5.450   5.769 -1.0799 -0.4767  2.5562
18611SOL    HW258466   9.148   5.344   5.682  1.4244 -0.3614  0.4924
18612SOL     OW58467   6.443   3.426   3.980 -0.2809 -0.1043 -0.1504
18612SOL    HW158468   6.355   3.398   4.002 -0.2230 -1.3910 -1.3877
18612SOL    HW258469   6.432   3.480   3.901  0.0783 -0.8703 -0.7411
18613SOL     OW58470   1.379   0.843   9.143 -0.0114 -0.0529  0.4682
18613SOL    HW158471   1.387   0.794   9.224 -0.4323  0.0309  0.5588
18613SOL    HW258472   1.300   0.896   9.154  0.7331  1.0637  0.6063
18614SOL     OW58473   1.469   3.989   6.326 -0.3751 -0.3363 -0.7086
18614SOL    HW158474   1.540   3.926   6.324 -0.6282 -0.7434  1.2896
18614SOL    HW258475   1.510   4.072   6.301 -0.0059 -1.1934 -3.1719
18615SOL     OW58476   7.260   9.290   3.508  0.0198  0.1964  0.3149
18615SOL    HW158477   7.180   9.342   3.503 -0.1718 -0.0284  1.0565
18615SOL    HW258478   7.326   9.344   3.464  0.0842  1.5940  2.0140
18616SOL     OW58479   9.664  10.327   0.748 -0.2376  0.0755  0.0935
18616SOL    HW158480   9.599  10.270   0.788 -0.9164  0.1138 -0.9122
18616SOL    HW258481   9.739  10.325   0.808 -1.3558  0.4696  1.5675
18617SOL     OW58482   7.472   2.090   3.198 -0.1428 -0.7432 -0.4168
18617SOL    HW158483   7.414   2.161   3.171  0.3567  0.2599  1.0097
18617SOL    HW258484   7.439   2.012   3.152 -1.7519  0.0724 -0.6935
18618SOL     OW58485   9.634   9.682   5.886 -0.1622  0.3089 -0.0263
18618SOL    HW158486   9.686   9.603   5.898 -1.0508 -0.1330  1.1054
18618SOL    HW258487   9.619   9.715   5.975 -2.5062 -0.0532 -0.2237
18619SOL     OW58488   8.289   7.209   9.892 -0.1778 -0.1403 -0.3086
18619SOL    HW158489   8.259   7.282   9.839 -0.8021 -0.7413 -0.8034
18619SOL    HW258490   8.246   7.132   9.854 -1.1188 -0.5269  1.4169
18620SOL     OW58491   4.295   7.812   9.251  0.4133 -0.3320  0.4645
18620SOL    HW158492   4.368   7.870   9.228  0.2532 -0.1101  0.5098
18620SOL    HW258493   4.303   7.800   9.346  0.9694 -1.1048  0.3332
18621SOL     OW58494   9.550   0.141   8.161  1.3375  0.0118  0.5559
18621SOL    HW158495   9.540   0.229   8.197 -3.2675 -0.0744  0.0900
18621SOL    HW258496   9.585   0.155   8.073  3.1552  1.0691  1.3926
18622SOL     OW58497   3.806   1.234   0.827 -0.1318  0.2026  0.2486
18622SOL    HW158498   3.742   1.223   0.756  0.6668  0.6354 -0.5523
18622SOL    HW258499   3.767   1.300   0.884 -0.7179 -0.0470  0.1509
18623SOL     OW58500   0.456   0.182   1.981  0.3950 -0.2435  0.3100
18623SOL    HW158501   0.478   0.272   1.955  0.1933 -0.1452  0.4798
18623SOL    HW258502   0.507   0.168   2.061  1.0659 -0.5679 -0.1594
18624SOL     OW58503   3.014   5.514  10.273  0.0575  0.3201  0.1249
18624SOL    HW158504   3.022   5.522  10.178 -0.2413 -0.1681  0.0525
18624SOL    HW258505   2.921   5.529  10.290 -0.3375 -1.7559  0.0821
18625SOL     OW58506   2.675   7.288   8.656 -0.4111  0.0547 -0.0709
18625SOL    HW158507   2.685   7.382   8.645 -2.7239  0.3184 -0.4124
18625SOL    HW258508   2.680   7.252   8.567  2.7916 -0.4980  0.2286
18626SOL     OW58509   5.557   0.753   6.568 -0.1747 -0.1832  0.4762
18626SOL    HW158510   5.578   0.761   6.475  1.4280 -0.7329  0.7543
18626SOL    HW258511   5.558   0.659   6.586 -1.6579 -0.1529  0.8157
18627SOL     OW58512   2.489   4.448   7.547  0.7759  0.0680  0.9514
18627SOL    HW158513   2.567   4.494   7.576  1.5576  0.8894 -2.0644
18627SOL    HW258514   2.416   4.503   7.575  1.5541  1.5924  0.1071
18628SOL     OW58515   4.561   4.098   0.106 -0.3913  0.1069  0.2788
18628SOL    HW158516   4.574   4.187   0.074  1.4270  0.2069  1.1922
18628SOL    HW258517   4.493   4.107   0.173 -1.0489  0.6036 -0.4403
18629SOL     OW58518   9.903   6.264   2.154  0.5567  0.3375  0.0164
18629SOL    HW158519   9.861   6.181   2.130 -0.1206  0.3158  1.1887
18629SOL    HW258520   9.975   6.273   2.092 -0.9262  0.1920 -1.8087
18630SOL     OW58521   5.589   3.858   8.123  0.2114 -0.5816 -0.6487
18630SOL    HW158522   5.618   3.769   8.143  0.0608 -0.2949  1.0678
18630SOL    HW258523   5.669   3.911   8.129 -0.2095 -0.0903  2.1108
18631SOL     OW58524   3.084   5.284   2.688  0.1533  0.5447  0.2472
18631SOL    HW158525   2.992   5.299   2.665 -0.1487 -0.0035  1.0383
18631SOL    HW258526   3.133   5.321   2.615 -0.7437 -1.0650 -1.2641
18632SOL     OW58527   2.749   4.708   6.312  0.3648 -0.0774 -0.0667
18632SOL    HW158528   2.762   4.727   6.219  1.9590  0.9916  0.3348
18632SOL    HW258529   2.837   4.714   6.351 -0.1757 -1.0521  1.4252
18633SOL     OW58530   8.037   9.277   9.059 -0.2704 -0.8119 -0.0692
18633SOL    HW158531   7.986   9.223   8.999 -1.4710  0.2634 -0.0785
18633SOL    HW258532   8.011   9.367   9.038  1.8253 -0.1993 -0.2009
18634SOL     OW58533   3.674   3.503   4.789 -0.1105  0.3005  0.4698
18634SOL    HW158534   3.742   3.441   4.762 -2.6300 -2.9254  0.8704
18634SOL    HW258535   3.663   3.561   4.713  0.3947 -1.6421 -1.1992
18635SOL     OW58536   2.939   2.758   5.077  0.2034  0.3329 -0.1235
18635SOL    HW158537   2.871   2.757   5.009  0.2500 -0.3224 -0.1762
18635SOL    HW258538   2.919   2.833   5.132 -1.4620 -0.7089  0.7620
18636SOL     OW58539   0.645   0.934   2.965 -0.4280  0.4517  0.2173
18636SOL    HW158540   0.668   0.974   2.881  0.3226  0.0366  0.2081
18636SOL    HW258541   0.690   0.988   3.030 -0.9432  0.7254  0.3486
18637SOL     OW58542   4.489   8.964   4.841 -0.4767  0.1204  0.1016
18637SOL    HW158543   4.444   8.881   4.825 -1.3384  0.3737  1.0421
18637SOL    HW258544   4.577   8.939   4.868 -0.1725 -0.4105 -1.3184
18638SOL     OW58545   6.930   8.025   4.301  0.1460 -0.0200  0.4980
18638SOL    HW158546   6.892   7.978   4.376 -0.4212  0.8417  0.7591
18638SOL    HW258547   6.980   7.958   4.254 -0.2690 -0.7826  1.1221
18639SOL     OW58548   6.585   7.525   3.453 -0.1089 -0.1850 -0.8039
18639SOL    HW158549   6.536   7.445   3.474  2.5098 -1.7155 -0.1305
18639SOL    HW258550   6.630   7.548   3.534  0.2123  1.2365 -1.3598
18640SOL     OW58551   4.993   1.836   8.358  0.0672 -0.1327  0.0006
18640SOL    HW158552   5.008   1.841   8.264  1.7816  3.9417  0.2723
18640SOL    HW258553   4.903   1.866   8.371 -0.3663 -1.2598 -0.3383
18641SOL     OW58554   0.276   5.678   0.970 -0.3846 -0.2511 -0.1593
18641SOL    HW158555   0.215   5.606   0.985 -0.8174  0.1963  0.2647
18641SOL    HW258556   0.224   5.757   0.987  0.6237  0.1125  1.4467
18642SOL     OW58557   5.932   5.571   6.644  0.1425  0.0733  0.4469
18642SOL    HW158558   5.885   5.547   6.724 -0.2336 -2.5142 -0.4546
18642SOL    HW258559   6.007   5.511   6.642  0.2603  0.2397 -1.0277
18643SOL     OW58560   9.166   1.864   8.809 -0.0216 -0.2510  0.3551
18643SOL    HW158561   9.102   1.816   8.757 -0.8422  0.4547  0.6902
18643SOL    HW258562   9.124   1.876   8.894  1.5420 -1.9106  1.4297
18644SOL     OW58563   4.966   8.777   7.873 -0.0315 -0.4624 -0.2719
18644SOL    HW158564   5.039   8.784   7.934  1.6451 -2.0868 -1.9799
18644SOL    HW258565   4.912   8.706   7.910 -0.4225  0.2877  0.6384
18645SOL     OW58566   1.941   3.953   5.088  0.0557  0.5613 -0.0372
18645SOL    HW158567   1.948   4.032   5.035  1.5731  1.0038  0.7614
18645SOL    HW258568   1.873   3.901   5.045  1.5953  0.6295 -2.7296
18646SOL     OW58569   5.640   0.405   6.922 -0.6960 -0.7097 -0.4113
18646SOL    HW158570   5.664   0.401   6.830 -0.3035 -0.3802 -0.3262
18646SOL    HW258571   5.546   0.421   6.922 -0.8159 -1.3615 -0.7505
18647SOL     OW58572   5.286   7.422   5.818  0.0615  0.2882 -0.4888
18647SOL    HW158573   5.221   7.408   5.887 -0.5635 -1.0434 -1.3306
18647SOL    HW258574   5.248   7.491   5.763  0.7140  1.6071  0.6293
18648SOL     OW58575   5.795   9.979   6.630  0.1069 -0.1790  0.6508
18648SOL    HW158576   5.831   9.931   6.555  1.5676  0.6122  0.8006
18648SOL    HW258577   5.867   9.983   6.693 -0.3412  1.1703  1.1185
18649SOL     OW58578   1.827   5.350   2.976 -0.9472  0.1890  0.4773
18649SOL    HW158579   1.824   5.424   3.037  1.2017  1.4060 -0.7348
18649SOL    HW258580   1.741   5.310   2.981 -1.5695  1.6454  2.5732
18650SOL     OW58581   2.133   2.504   9.755 -0.4556  0.2884 -0.7417
18650SOL    HW158582   2.195   2.433   9.739 -0.1809  0.8380 -2.2474
18650SOL    HW258583   2.137   2.559   9.676 -0.1023  2.4121  0.6537
18651SOL     OW58584   6.743   4.927   7.489  0.0542  0.9737  0.1794
18651SOL    HW158585   6.837   4.934   7.469 -0.1899 -1.3793 -2.4237
18651SOL    HW258586   6.701   4.920   7.404 -2.2697 -0.2593  1.3430
18652SOL     OW58587   7.769   4.933   7.529 -0.1921  0.9731 -0.3395
18652SOL    HW158588   7.735   5.018   7.556  0.7306  1.4801 -0.7081
18652SOL    HW258589   7.754   4.931   7.434 -0.9909  0.3509 -0.2078
18653SOL     OW58590   6.438   8.356   1.508  0.4166 -0.7115 -0.5010
18653SOL    HW158591   6.490   8.393   1.437  0.3663 -0.8996 -0.6369
18653SOL    HW258592   6.385   8.289   1.466 -0.1304 -0.3454 -0.4111
18654SOL     OW58593   5.175   0.637   4.566  0.1235  0.4667 -0.1000
18654SOL    HW158594   5.094   0.675   4.531 -1.7228 -1.4182  1.8766
18654SOL    HW258595   5.211   0.586   4.493 -0.0814  1.7968 -1.1811
18655SOL     OW58596   3.116   6.306   0.513  0.5832  0.0507  0.5455
18655SOL    HW158597   3.039   6.254   0.536  0.7782  0.0164  1.1416
18655SOL    HW258598   3.083   6.396   0.506  0.2272 -0.1437 -0.5799
18656SOL     OW58599   7.139   8.722   8.301 -0.4371  0.2533 -0.0583
18656SOL    HW158600   7.227   8.756   8.286 -0.5795  0.0042 -1.6286
18656SOL    HW258601   7.150   8.628   8.310 -0.6587  0.0514 -1.6339
18657SOL     OW58602   1.396   3.787   3.545 -0.0074  0.1510  0.1256
18657SOL    HW158603   1.403   3.882   3.542  0.6005  0.1028 -0.2936
18657SOL    HW258604   1.310   3.770   3.582 -0.3229  0.8706 -0.2555
18658SOL     OW58605   9.783   4.763  10.185  0.2669 -0.2079  0.3752
18658SOL    HW158606   9.687   4.762  10.186  0.2144  0.3345 -1.5334
18658SOL    HW258607   9.807   4.855  10.183  0.9168 -0.2792  2.2605
18659SOL     OW58608   7.609   0.969   5.942  0.0340 -0.1828 -0.3633
18659SOL    HW158609   7.682   0.915   5.912  1.9565  2.2670 -0.4719
18659SOL    HW258610   7.628   0.986   6.034 -1.4077 -0.9734  0.0995
18660SOL     OW58611   0.494   1.599   9.323  0.2280 -0.3286 -0.0865
18660SOL    HW158612   0.424   1.642   9.273  0.3734 -0.8283 -0.7480
18660SOL    HW258613   0.540   1.546   9.257  0.9071 -0.4029  0.4423
18661SOL     OW58614   5.610   2.495   2.586 -0.6030  0.2770 -0.2024
18661SOL    HW158615   5.543   2.543   2.538 -0.1281  0.9494 -0.2038
18661SOL    HW258616   5.633   2.422   2.529 -0.3960  0.7936 -0.7855
18662SOL     OW58617   9.331   9.170   3.129  0.1796 -0.4238 -0.4118
18662SOL    HW158618   9.354   9.155   3.038  1.5442 -2.9358  0.2682
18662SOL    HW258619   9.403   9.222   3.164  0.5466 -0.9855 -0.3357
18663SOL     OW58620   5.956  10.339   1.142 -0.4459 -0.0737  0.0094
18663SOL    HW158621   5.879  10.384   1.178 -0.1508 -0.2919  0.9496
18663SOL    HW258622   5.953  10.252   1.182  0.1701 -0.1603 -0.1320
18664SOL     OW58623   8.035   2.107   7.375  0.2188  0.2924 -0.2658
18664SOL    HW158624   7.960   2.057   7.409 -0.7271  1.3211 -0.7696
18664SOL    HW258625   8.033   2.189   7.423  1.0124  0.3502 -0.3215
18665SOL     OW58626   1.638   2.788   3.938  0.3761  0.2814 -0.1687
18665SOL    HW158627   1.604   2.707   3.900  0.2677 -0.5375  1.5475
18665SOL    HW258628   1.718   2.807   3.888  1.2514 -1.7514  0.3513
18666SOL     OW58629   6.748   2.244   8.473 -0.4476 -0.4620  0.6082
18666SOL    HW158630   6.783   2.168   8.428 -0.7746  0.3490 -1.1120
18666SOL    HW258631   6.659   2.254   8.438  0.6227  2.5052 -1.7143
18667SOL     OW58632   2.243   1.376   5.880  0.4128 -0.0721 -0.1866
18667SOL    HW158633   2.151   1.353   5.870  0.5400 -0.1890 -1.2535
18667SOL    HW258634   2.249   1.465   5.845  0.8301 -0.3560 -0.8670
18668SOL     OW58635   8.786   3.791   0.105  0.2831  0.2280 -0.2616
18668SOL    HW158636   8.789   3.837   0.021 -0.6100 -1.6983 -1.4008
18668SOL    HW258637   8.875   3.798   0.139  0.6459  1.0955 -1.3344
18669SOL     OW58638   5.227   7.436   7.150 -0.3203  0.3626 -0.5293
18669SOL    HW158639   5.218   7.524   7.188 -2.0585  1.2104 -2.6452
18669SOL    HW258640   5.177   7.379   7.208  1.6406  0.5010  1.4252
18670SOL     OW58641   3.300   3.710   3.556  0.5355  0.0153 -0.1672
18670SOL    HW158642   3.253   3.642   3.605  1.9800 -0.0645  1.2180
18670SOL    HW258643   3.313   3.673   3.469 -0.6491 -0.5485 -0.1170
18671SOL     OW58644   4.457   9.414   5.020 -0.1315 -0.4007 -0.3070
18671SOL    HW158645   4.387   9.349   5.009 -0.1623 -0.7160  1.3884
18671SOL    HW258646   4.451   9.440   5.112  1.6584 -0.0656 -0.2384
18672SOL     OW58647   4.256   6.532   2.218 -0.4490 -0.1308 -0.9978
18672SOL    HW158648   4.300   6.589   2.155 -1.3448  2.5266  0.6052
18672SOL    HW258649   4.187   6.587   2.255 -0.8905 -2.0376  1.2332
18673SOL     OW58650  10.267   3.213   2.440  0.3968  0.2918  0.6851
18673SOL    HW158651  10.194   3.263   2.476 -0.2740 -0.2620  0.1026
18673SOL    HW258652  10.344   3.250   2.484  0.3009  3.7851 -1.6383
18674SOL     OW58653   2.482   3.731   6.508  0.0610  0.2101  0.5056
18674SOL    HW158654   2.532   3.649   6.498  0.7095  0.8510 -2.9759
18674SOL    HW258655   2.540   3.789   6.557  0.9576 -0.4159  0.2121
18675SOL     OW58656   6.723   6.742   3.163  0.4785 -0.2283  0.5931
18675SOL    HW158657   6.634   6.747   3.129  1.2536  2.2733 -1.3493
18675SOL    HW258658   6.719   6.788   3.247 -0.3227 -1.5193  1.2950
18676SOL     OW58659  10.157   0.477   7.316 -0.0770 -0.6319  0.6316
18676SOL    HW158660  10.111   0.550   7.356 -1.9822 -1.5933  0.3103
18676SOL    HW258661  10.156   0.408   7.383  0.4164 -0.8545  0.4189
18677SOL     OW58662   0.311   7.217   4.330  0.2474  0.4074  0.8267
18677SOL    HW158663   0.388   7.168   4.358 -0.5817 -0.1150  2.2825
18677SOL    HW258664   0.342   7.271   4.257  1.5758 -1.0079  0.3080
18678SOL     OW58665   5.263   0.359   2.083  0.3007 -0.3159  0.7216
18678SOL    HW158666   5.284   0.434   2.140 -1.2969 -0.1108  1.1134
18678SOL    HW258667   5.210   0.302   2.139 -1.8180  0.1739 -0.6595
18679SOL     OW58668   9.875   8.412   0.364 -0.0834  0.1260 -0.0076
18679SOL    HW158669   9.799   8.429   0.420  0.6728  0.9056  0.8263
18679SOL    HW258670   9.904   8.324   0.388 -0.6547 -0.1352 -0.2584
18680SOL     OW58671   1.064   6.223   5.652  0.1428 -0.2406  0.7735
18680SOL    HW158672   1.003   6.157   5.685 -0.7345 -0.6020 -1.4266
18680SOL    HW258673   1.011   6.302   5.640  0.5995  0.0907  0.9076
18681SOL     OW58674   3.567   7.465   1.413  1.0541  0.4444  0.3482
18681SOL    HW158675   3.525   7.549   1.396  2.2139  1.0601  0.4590
18681SOL    HW258676   3.653   7.487   1.448  1.2555 -0.7902  0.6887
18682SOL     OW58677   5.167   7.202   3.086 -0.6461 -0.0521 -0.3980
18682SOL    HW158678   5.072   7.203   3.078 -0.6427 -1.0567 -0.7639
18682SOL    HW258679   5.187   7.112   3.112 -0.0085  0.8863  2.7522
18683SOL     OW58680   1.247   6.056   7.716  0.0476 -0.0028 -1.0597
18683SOL    HW158681   1.160   6.044   7.754 -0.5026 -1.6210 -2.6748
18683SOL    HW258682   1.307   6.043   7.790 -1.0195 -1.4180 -0.3845
18684SOL     OW58683   1.515   1.466   3.219 -0.0028 -0.0699  0.2240
18684SOL    HW158684   1.505   1.381   3.175  1.2552  0.9666 -2.2842
18684SOL    HW258685   1.600   1.498   3.189 -0.4821  2.1316  1.0381
18685SOL     OW58686   5.851   4.265   0.957  0.3076  0.0408  0.3018
18685SOL    HW158687   5.824   4.299   0.871 -0.7557 -1.3193  0.0602
18685SOL    HW258688   5.946   4.276   0.958  0.2486  0.8384 -0.7113
18686SOL     OW58689   3.533   6.866   4.902 -0.8245  0.5060 -0.3786
18686SOL    HW158690   3.491   6.885   4.986  3.2803 -0.3052  2.1680
18686SOL    HW258691   3.514   6.942   4.848 -4.1402  0.8054  0.9969
18687SOL     OW58692   5.424   0.066   9.116 -0.1727 -0.0314 -0.2776
18687SOL    HW158693   5.345   0.118   9.130  0.5926  1.4979 -1.3845
18687SOL    HW258694   5.468   0.066   9.201 -0.7370  0.1599  0.0172
18688SOL     OW58695   3.605   2.618   4.508 -0.1207 -0.0433 -0.0712
18688SOL    HW158696   3.530   2.574   4.466  0.3475 -1.3042  0.3521
18688SOL    HW258697   3.652   2.547   4.551  2.6517  0.3147 -2.2538
18689SOL     OW58698   6.361   2.214   9.717  0.5218  0.1668  0.3220
18689SOL    HW158699   6.374   2.180   9.806  0.4198 -0.7463 -0.0069
18689SOL    HW258700   6.436   2.272   9.703  0.4874  0.3984  1.0377
18690SOL     OW58701   9.219   0.084   6.070 -0.0018  0.2544 -0.1626
18690SOL    HW158702   9.248   0.065   5.981 -0.9652 -0.3836 -0.3614
18690SOL    HW258703   9.282   0.038   6.126  1.1473  1.4055 -0.4628
18691SOL     OW58704   6.498   7.519   2.916 -0.2849  0.1687  0.0235
18691SOL    HW158705   6.509   7.499   2.823 -1.3087 -0.2394 -0.0211
18691SOL    HW258706   6.403   7.516   2.930 -0.2553  1.6093  0.7720
18692SOL     OW58707  10.326   4.608   1.454 -0.5824  0.6373 -0.2940
18692SOL    HW158708  10.286   4.525   1.430 -2.6276  1.7586 -0.9704
18692SOL    HW258709  10.347   4.650   1.371 -1.3717  1.6065 -0.0250
18693SOL     OW58710   5.035   4.060   3.192  0.0946 -0.1501  0.0727
18693SOL    HW158711   5.110   4.065   3.132 -0.5992 -0.1330 -0.8266
18693SOL    HW258712   5.069   4.020   3.271  0.6027 -2.1011 -1.0724
18694SOL     OW58713   5.970   2.784   7.442 -0.0739  0.0426 -0.2897
18694SOL    HW158714   5.906   2.731   7.395 -0.1057 -0.0915 -0.0962
18694SOL    HW258715   6.032   2.720   7.478  0.5980  0.2157 -1.1098
18695SOL     OW58716   4.130   5.562   7.972 -0.2447 -0.4290  0.1982
18695SOL    HW158717   4.100   5.548   7.882  1.0560 -0.6158 -0.2274
18695SOL    HW258718   4.210   5.510   7.980  1.9914  2.6692  0.1211
18696SOL     OW58719   2.205   5.788   2.972  0.2865 -0.3555 -0.3546
18696SOL    HW158720   2.118   5.750   2.963 -0.7328  1.0726  2.1946
18696SOL    HW258721   2.191   5.882   2.959  1.6711 -0.2302 -1.0452
18697SOL     OW58722   4.692   0.118   5.345 -0.0397 -0.3950  0.0114
18697SOL    HW158723   4.675   0.032   5.306  0.8162  0.1822 -1.7443
18697SOL    HW258724   4.756   0.159   5.286  0.5669  0.9417  1.5186
18698SOL     OW58725   3.113   5.908   3.375  0.0179  0.5210  0.0356
18698SOL    HW158726   3.204   5.881   3.368 -0.4952 -1.6187  0.7683
18698SOL    HW258727   3.066   5.851   3.314 -0.9482  0.9279  0.3745
18699SOL     OW58728   5.084   8.725   9.002  0.6894  0.3140 -0.6167
18699SOL    HW158729   5.141   8.697   9.073 -0.4582  0.1873  0.2854
18699SOL    HW258730   5.053   8.644   8.962 -0.9433  0.2736  0.6266
18700SOL     OW58731   4.400   8.626   8.316 -0.1787  0.2985  0.9044
18700SOL    HW158732   4.436   8.568   8.383  1.6999 -0.4575 -0.6411
18700SOL    HW258733   4.377   8.567   8.244  0.7011  1.3326 -0.2725
18701SOL     OW58734   8.700   1.941   4.391 -0.2228 -0.1671 -0.1328
18701SOL    HW158735   8.657   1.936   4.306 -1.0134 -0.9775  0.3079
18701SOL    HW258736   8.639   1.991   4.446  0.4622  0.7001 -0.1330
18702SOL     OW58737   1.908   9.104   2.124  0.2636 -0.0945 -0.0166
18702SOL    HW158738   1.942   9.015   2.133 -1.6418 -1.3580 -3.7005
18702SOL    HW258739   1.972   9.149   2.069  0.8735  0.7303  1.2848
18703SOL     OW58740  10.093   1.939   5.919  0.2897  0.0256  0.5189
18703SOL    HW158741  10.127   2.020   5.956 -3.0208  1.3292  1.0183
18703SOL    HW258742  10.082   1.958   5.826 -0.1591  0.0572  0.5752
18704SOL     OW58743   2.690   9.695   7.766  0.4618  0.4710 -0.2444
18704SOL    HW158744   2.642   9.716   7.846  1.8498 -0.5556  0.9310
18704SOL    HW258745   2.672   9.768   7.707 -0.3658  1.4167  1.1162
18705SOL     OW58746   1.418   1.465   9.379  0.1345  0.0899  0.3255
18705SOL    HW158747   1.396   1.539   9.322 -0.4544 -0.7722 -0.5835
18705SOL    HW258748   1.494   1.424   9.338 -0.0076 -0.2658  0.4179
18706SOL     OW58749   2.574   8.380   9.149 -0.3362  0.6319 -0.2921
18706SOL    HW158750   2.657   8.418   9.122  0.9134 -1.8348 -0.2093
18706SOL    HW258751   2.526   8.366   9.068 -0.3994  1.4242 -0.4008
18707SOL     OW58752   4.694   3.943   8.308 -0.4198  0.0271 -0.2890
18707SOL    HW158753   4.708   3.902   8.394  0.7425 -1.5538 -1.1817
18707SOL    HW258754   4.703   4.037   8.325 -1.0801 -0.1716  1.4523
18708SOL     OW58755   1.661   6.159   6.425 -0.4055 -0.4047 -0.1812
18708SOL    HW158756   1.623   6.160   6.512 -1.3535 -1.1661 -0.5735
18708SOL    HW258757   1.717   6.081   6.424 -1.8579 -1.4796 -0.8358
18709SOL     OW58758   5.876   3.589   2.345 -0.4097  0.6112 -0.1417
18709SOL    HW158759   5.791   3.605   2.387 -0.9197 -1.0896 -0.4415
18709SOL    HW258760   5.910   3.511   2.390  0.5804  0.7437 -0.6455
18710SOL     OW58761   3.006   5.539   9.219 -0.8223 -0.1280  0.1334
18710SOL    HW158762   3.009   5.630   9.189  1.8052  0.3012  1.3455
18710SOL    HW258763   2.963   5.492   9.148 -0.5805  1.7928 -1.3856
18711SOL     OW58764   5.475   6.009   1.279  0.4281 -0.4399 -0.2722
18711SOL    HW158765   5.483   6.088   1.333  0.4377 -1.8831  1.9248
18711SOL    HW258766   5.415   6.036   1.209  0.4767  1.5402  0.3611
18712SOL     OW58767   1.859   1.124   2.272 -0.6951  0.2563 -0.7165
18712SOL    HW158768   1.853   1.085   2.360  0.2416  1.2566 -0.1829
18712SOL    HW258769   1.778   1.173   2.262  0.8648  3.7063  1.4303
18713SOL     OW58770   9.763   4.540   4.329 -0.1504  0.1123  0.3107
18713SOL    HW158771   9.815   4.602   4.277  1.3153 -1.0911  0.2766
18713SOL    HW258772   9.674   4.575   4.326  0.3319  1.3229 -1.0768
18714SOL     OW58773   6.171   3.664   7.184 -0.0714  0.3075 -0.4073
18714SOL    HW158774   6.196   3.574   7.163  0.3731  0.0754  0.9778
18714SOL    HW258775   6.214   3.682   7.268 -0.5919  1.6279 -0.3898
18715SOL     OW58776   8.625   1.157   1.342 -0.2116  0.0592  0.1554
18715SOL    HW158777   8.668   1.093   1.287  1.9837  1.7974 -0.2848
18715SOL    HW258778   8.687   1.173   1.413 -1.3099  0.7076  1.0010
18716SOL     OW58779   4.573   0.416   1.315 -0.2338 -0.5437 -0.3583
18716SOL    HW158780   4.549   0.323   1.312 -0.9477 -0.4086  0.7109
18716SOL    HW258781   4.648   0.423   1.255 -1.5454 -1.3814 -2.1947
18717SOL     OW58782   0.177   3.239   2.825 -0.0619  0.5131 -0.3039
18717SOL    HW158783   0.128   3.160   2.849  1.2190  0.3305  1.9536
18717SOL    HW258784   0.268   3.217   2.841  0.2943  2.5757  0.7982
18718SOL     OW58785   1.630   3.880   5.485  0.3109  0.3147  0.6922
18718SOL    HW158786   1.717   3.851   5.459  0.3192  0.2918  0.7440
18718SOL    HW258787   1.589   3.910   5.404 -0.4835 -1.8181  0.2201
18719SOL     OW58788   4.420   8.747   0.351  0.2970  0.3086 -0.0669
18719SOL    HW158789   4.486   8.756   0.283  0.2633 -0.0537 -0.1515
18719SOL    HW258790   4.366   8.674   0.322  1.2219 -0.8943  1.1157
18720SOL     OW58791   8.739   7.013   4.730 -0.1184 -0.1164 -0.3180
18720SOL    HW158792   8.738   6.995   4.824  1.3473  2.1783  0.2133
18720SOL    HW258793   8.820   6.974   4.699 -0.8294 -1.2849 -0.7648
18721SOL     OW58794   2.217   6.818   6.075  0.1922  0.2169 -0.5627
18721SOL    HW158795   2.287   6.868   6.116 -0.1121 -0.7802  1.2491
18721SOL    HW258796   2.253   6.792   5.990  2.0842 -0.3987  0.3738
18722SOL     OW58797   9.537   6.322  10.155  0.1611 -0.1294 -0.2286
18722SOL    HW158798   9.573   6.347  10.070  0.4963  0.4876  0.0862
18722SOL    HW258799   9.565   6.392  10.214  0.1382 -0.6706  0.4404
18723SOL     OW58800   5.105   3.477   7.895 -0.2532  0.1792 -0.1106
18723SOL    HW158801   5.088   3.386   7.870 -1.9040  0.8563 -1.6779
18723SOL    HW258802   5.054   3.490   7.975 -0.7908 -0.0276 -0.4139
18724SOL     OW58803   8.318   8.894   3.546 -0.2020 -0.1886  0.2483
18724SOL    HW158804   8.380   8.831   3.582 -1.1914 -0.5834  1.3193
18724SOL    HW258805   8.373   8.966   3.513  0.8148 -0.4707  1.2793
18725SOL     OW58806   7.060   8.509   3.500 -0.1084  0.2167 -0.4266
18725SOL    HW158807   7.023   8.476   3.582  0.8604 -2.6065 -1.0174
18725SOL    HW258808   7.151   8.528   3.520  0.0356 -0.1303 -0.7191
18726SOL     OW58809   8.306   1.194   9.491 -0.2278  0.1583 -0.0187
18726SOL    HW158810   8.332   1.111   9.531 -0.5396  0.0470 -0.0431
18726SOL    HW258811   8.376   1.213   9.427 -0.3262 -0.2571 -0.2548
18727SOL     OW58812   4.900   7.470   6.525 -0.1926 -0.3866 -0.2424
18727SOL    HW158813   4.882   7.563   6.511 -0.1012 -0.1107  1.2778
18727SOL    HW258814   4.915   7.462   6.620 -1.0393 -2.0790 -0.1941
18728SOL     OW58815   8.898   8.249   9.221  0.0102 -0.3396  0.2116
18728SOL    HW158816   8.983   8.244   9.179 -0.0505  1.1522 -0.1534
18728SOL    HW258817   8.917   8.276   9.311 -0.0620  0.1518  0.0869
18729SOL     OW58818   8.174   4.251   1.992  0.3734 -0.5289  0.5912
18729SOL    HW158819   8.091   4.298   1.987  0.5590  0.6191  4.9469
18729SOL    HW258820   8.152   4.166   2.029  0.9806 -0.9316  0.0680
18730SOL     OW58821   4.518   5.234   4.294  0.4989  0.3385  0.1967
18730SOL    HW158822   4.572   5.223   4.216  1.3692 -1.9380  1.0143
18730SOL    HW258823   4.578   5.219   4.367 -0.7735 -0.0212  1.2149
18731SOL     OW58824   4.457   0.495   8.829  0.2566 -0.0029 -0.4256
18731SOL    HW158825   4.533   0.550   8.846 -0.1783  0.8905 -1.2915
18731SOL    HW258826   4.468   0.465   8.738 -0.4536  0.1993 -0.5873
18732SOL     OW58827   9.386   8.813   8.838 -0.2308  0.0816 -0.2219
18732SOL    HW158828   9.384   8.829   8.932 -0.2381  0.5503 -0.3024
18732SOL    HW258829   9.321   8.872   8.801 -0.3122 -0.1834 -0.5119
18733SOL     OW58830   8.295   2.358  10.223  0.1691 -0.0547  0.0127
18733SOL    HW158831   8.205   2.377  10.196  0.6951  0.5240 -1.4132
18733SOL    HW258832   8.340   2.333  10.143  1.1086 -1.1022  0.8305
18734SOL     OW58833   3.417   5.575   3.279 -0.4264 -0.1683 -0.2605
18734SOL    HW158834   3.410   5.603   3.188  1.6827 -2.5076 -1.2573
18734SOL    HW258835   3.424   5.657   3.329 -1.9935  1.1665 -2.1045
18735SOL     OW58836   1.379   4.886   5.138  0.6159  0.0295  0.6506
18735SOL    HW158837   1.341   4.961   5.091 -1.6338 -0.0855  2.1866
18735SOL    HW258838   1.366   4.812   5.079 -3.6540 -0.4362  1.8694
18736SOL     OW58839   2.462   4.386   9.729  0.0106  0.3723 -0.2952
18736SOL    HW158840   2.510   4.335   9.794 -0.6777  0.0590 -0.0207
18736SOL    HW258841   2.376   4.401   9.769 -1.4182 -2.1434 -2.1811
18737SOL     OW58842   6.954   2.413   7.754 -0.5688 -0.3476 -0.1896
18737SOL    HW158843   7.008   2.477   7.800  0.1987 -0.6977 -0.5835
18737SOL    HW258844   6.889   2.466   7.708  0.2203  0.1834 -0.7241
18738SOL     OW58845   7.652  10.357   4.589 -0.0549 -0.0066 -0.1669
18738SOL    HW158846   7.680  10.446   4.567 -1.1742  0.2217 -0.7240
18738SOL    HW258847   7.665  10.350   4.683  0.3070  0.6414 -0.1643
18739SOL     OW58848   6.595   6.991   4.874  0.7146  0.6341 -0.0929
18739SOL    HW158849   6.513   6.958   4.836  0.4765  1.0443  0.0555
18739SOL    HW258850   6.598   6.951   4.961 -0.4190  2.2689  0.7541
18740SOL     OW58851   9.000   0.594   2.735 -0.0496  0.1932  0.5560
18740SOL    HW158852   8.983   0.659   2.667 -0.2707 -0.5939 -0.1583
18740SOL    HW258853   8.927   0.604   2.797 -1.4827 -1.0326 -0.8504
18741SOL     OW58854   7.339   6.637   7.636  0.2483 -0.4535  0.7916
18741SOL    HW158855   7.266   6.665   7.581  0.7645  1.4301  0.9787
18741SOL    HW258856   7.360   6.549   7.606 -0.8235 -0.2662 -0.5922
18742SOL     OW58857   6.091   7.888   4.663 -0.4365 -0.4049  0.2327
18742SOL    HW158858   6.032   7.945   4.711  0.8713  1.3224 -0.1022
18742SOL    HW258859   6.120   7.823   4.727  1.4417  1.9573  1.9750
18743SOL     OW58860   3.595   4.652   2.137  0.2581  0.0092 -0.2683
18743SOL    HW158861   3.681   4.642   2.177 -0.5284  0.2071  1.5843
18743SOL    HW258862   3.534   4.657   2.212 -1.3488 -0.0639 -1.5159
18744SOL     OW58863   4.657   4.368   8.792  0.1526  0.2165  0.6896
18744SOL    HW158864   4.571   4.366   8.833 -0.6373  0.7363 -0.8575
18744SOL    HW258865   4.718   4.384   8.864 -1.1471  0.9580  1.6693
18745SOL     OW58866   3.200  10.299   3.896 -0.4523  0.0301 -0.0657
18745SOL    HW158867   3.268  10.273   3.834  0.0986  0.4394  0.3561
18745SOL    HW258868   3.206  10.394   3.900 -0.4114  0.0017  0.6844
18746SOL     OW58869   8.604   9.407   0.673 -0.5373 -0.4993  0.2415
18746SOL    HW158870   8.542   9.374   0.738  0.9381 -0.5392  1.7074
18746SOL    HW258871   8.637   9.488   0.711 -0.1009 -0.1853 -0.7802
18747SOL     OW58872   2.654   6.626   0.191  0.6243  0.0811 -0.2018
18747SOL    HW158873   2.702   6.708   0.194 -0.7295  0.8980  1.4968
18747SOL    HW258874   2.665   6.589   0.279  0.4064 -1.0642 -0.6402
18748SOL     OW58875   8.259   2.325   4.011 -0.2241 -0.7660 -0.1378
18748SOL    HW158876   8.240   2.419   4.006  0.7653 -0.3086  2.8702
18748SOL    HW258877   8.336   2.313   3.956  0.0771  0.3261  0.0239
18749SOL     OW58878   0.660   7.680   2.544 -0.1753 -0.4645  1.0594
18749SOL    HW158879   0.591   7.615   2.538 -0.1424 -0.4673  0.7163
18749SOL    HW258880   0.734   7.633   2.584  0.3975 -1.0983 -0.6539
18750SOL     OW58881   2.067   7.606   5.916 -0.0004 -0.0235 -0.0847
18750SOL    HW158882   2.122   7.548   5.863  0.6117 -0.7381  1.2949
18750SOL    HW258883   2.012   7.547   5.968 -0.3257  0.6530  0.3539
18751SOL     OW58884   9.931   1.677  10.177 -0.8847 -0.5058 -0.2674
18751SOL    HW158885   9.856   1.619  10.189 -0.1242 -1.4279  0.1446
18751SOL    HW258886   9.945   1.716  10.263 -1.8954  0.9673 -0.7194
18752SOL     OW58887   1.362   5.971   6.261  0.0098 -0.3296 -0.0972
18752SOL    HW158888   1.347   5.886   6.220 -1.1757  0.6403 -1.7852
18752SOL    HW258889   1.317   5.966   6.345 -1.7261 -0.7463 -1.0160
18753SOL     OW58890   4.687   3.226   9.500 -0.0935  0.1062  0.5081
18753SOL    HW158891   4.717   3.316   9.491 -0.6649  0.1242 -1.8923
18753SOL    HW258892   4.682   3.211   9.595  0.1624  2.5205  0.9539
18754SOL     OW58893   4.778   7.147   7.083  0.6861 -0.1550 -0.1692
18754SOL    HW158894   4.693   7.115   7.051  0.6622  0.4691 -0.7629
18754SOL    HW258895   4.809   7.205   7.013  1.0358  0.5853  0.5866
18755SOL     OW58896   6.049   4.623   1.645  0.1561 -0.0723  0.4567
18755SOL    HW158897   6.008   4.549   1.691 -0.1975  0.6727  1.3697
18755SOL    HW258898   6.141   4.617   1.668 -0.1131  0.6527  1.7991
18756SOL     OW58899   2.347   4.319   5.858 -0.2067 -0.2680  0.2943
18756SOL    HW158900   2.291   4.276   5.923 -0.0669  1.4191  1.5935
18756SOL    HW258901   2.318   4.283   5.774 -1.2938 -1.5320  1.1675
18757SOL     OW58902   9.041   4.298  10.258  0.0778 -0.3516  0.5015
18757SOL    HW158903   8.993   4.217  10.241 -1.6599  0.6413  0.4497
18757SOL    HW258904   9.027   4.352  10.180  0.4032  0.3708  0.9226
18758SOL     OW58905   4.930   5.282   2.796  0.0212 -0.4790  0.3295
18758SOL    HW158906   4.917   5.244   2.709  2.4760 -2.2526  0.6247
18758SOL    HW258907   4.896   5.216   2.856 -1.0739  0.4554  0.7626
18759SOL     OW58908   2.135   3.390   7.828 -0.8440  0.2511 -0.2925
18759SOL    HW158909   2.077   3.421   7.759 -1.9456  1.9507  1.3223
18759SOL    HW258910   2.207   3.453   7.829 -1.0108  0.4376  0.3273
18760SOL     OW58911   3.399   0.967   1.945  1.3404 -0.1682  0.6048
18760SOL    HW158912   3.426   0.912   1.871 -0.3252 -0.8833  0.4788
18760SOL    HW258913   3.441   0.927   2.021 -0.5504 -2.2652  0.6503
18761SOL     OW58914   3.206   3.754   4.592  0.5396  0.1699 -0.4138
18761SOL    HW158915   3.261   3.815   4.641  0.8312 -0.6625  0.3103
18761SOL    HW258916   3.243   3.667   4.610 -0.6335 -0.3511 -0.3981
18762SOL     OW58917   4.798   3.570   1.915 -0.3413  0.1050 -0.3443
18762SOL    HW158918   4.739   3.516   1.863 -2.4507  0.4712  1.5545
18762SOL    HW258919   4.840   3.627   1.851 -1.8976 -0.3063 -1.7928
18763SOL     OW58920   8.201   8.394   0.331  0.6530  0.5861 -0.2175
18763SOL    HW158921   8.241   8.481   0.332 -0.0115  0.9367  2.4352
18763SOL    HW258922   8.234   8.352   0.410 -1.4840 -0.4085  0.1933
18764SOL     OW58923   9.221   4.659   2.638  0.0923  0.2129 -0.1252
18764SOL    HW158924   9.216   4.578   2.587  1.1940 -0.3682  0.6650
18764SOL    HW258925   9.184   4.636   2.724  1.9317  0.0433  0.6715
18765SOL     OW58926   8.220   5.002   7.471 -0.9406 -0.0826 -0.3724
18765SOL    HW158927   8.254   5.091   7.484 -0.2331 -0.1858 -1.3380
18765SOL    HW258928   8.250   4.979   7.383 -1.3140 -1.1938 -0.2146
18766SOL     OW58929   7.745   2.432   8.501 -0.4071  0.5400 -0.1102
18766SOL    HW158930   7.772   2.343   8.476  2.3364  1.3142 -0.2449
18766SOL    HW258931   7.717   2.423   8.592  1.1191 -0.3062  0.3296
18767SOL     OW58932   8.283   6.915   4.075 -0.0812  0.2831 -0.4591
18767SOL    HW158933   8.248   7.000   4.049  0.1108  0.3124 -0.6289
18767SOL    HW258934   8.337   6.887   4.000  0.7013  0.4948  0.0099
18768SOL     OW58935   9.341   1.957   6.316 -0.3374  0.1427  0.7500
18768SOL    HW158936   9.393   2.031   6.345  0.9402 -0.1501 -0.6890
18768SOL    HW258937   9.332   1.969   6.221 -0.9017 -1.0345  0.6342
18769SOL     OW58938   0.327   0.125   2.549  0.1653  0.1276  0.5874
18769SOL    HW158939   0.298   0.189   2.614  0.1528 -0.2178  0.9258
18769SOL    HW258940   0.338   0.044   2.599  1.2381  0.1355  0.3748
18770SOL     OW58941   9.330   6.543   8.201 -0.3000 -0.5894 -0.1635
18770SOL    HW158942   9.417   6.540   8.162 -0.1162  0.9024  0.0790
18770SOL    HW258943   9.345   6.541   8.295 -0.7063 -3.3431 -0.0739
18771SOL     OW58944   3.664   5.199   4.139  0.0041  0.1019  0.0056
18771SOL    HW158945   3.663   5.217   4.233  1.8560  2.0925 -0.2689
18771SOL    HW258946   3.573   5.208   4.112 -0.1636  2.8251  1.1339
18772SOL     OW58947   8.756   7.108   3.000  1.0312  0.3743  0.0860
18772SOL    HW158948   8.709   7.169   3.058 -1.3796 -0.7656 -0.5218
18772SOL    HW258949   8.814   7.163   2.949  1.7108  1.6646  2.1305
18773SOL     OW58950   6.521   5.265   7.496  0.2397 -0.5002  0.0779
18773SOL    HW158951   6.491   5.333   7.556  0.7362  1.0354 -1.3541
18773SOL    HW258952   6.501   5.183   7.541 -2.3216  0.5119  0.9643
18774SOL     OW58953   1.791   5.859   8.413 -0.5015  0.2440 -0.7091
18774SOL    HW158954   1.824   5.800   8.481 -0.5119 -0.7373 -1.5373
18774SOL    HW258955   1.869   5.905   8.382 -0.4922  0.6822 -0.0755
18775SOL     OW58956   2.099   6.899   1.167 -0.0754 -0.7650 -0.4178
18775SOL    HW158957   2.008   6.906   1.140 -0.3343 -0.2839  0.5146
18775SOL    HW258958   2.099   6.829   1.232 -0.2248  0.6855  1.2336
18776SOL     OW58959   6.030   7.589   3.402  0.0701  0.3549 -0.6881
18776SOL    HW158960   6.107   7.596   3.458 -0.5043 -0.7659  0.2855
18776SOL    HW258961   5.956   7.603   3.461 -0.5237  0.0619 -1.3448
18777SOL     OW58962   8.844   2.212   6.814  0.0647  0.6810 -0.3565
18777SOL    HW158963   8.929   2.182   6.780  0.2616 -0.1412  0.8252
18777SOL    HW258964   8.791   2.225   6.736 -0.0680 -2.8099 -1.0028
18778SOL     OW58965   8.555   9.082   1.700  0.0769  0.3843 -0.0903
18778SOL    HW158966   8.587   9.049   1.784  1.2813 -1.6204 -1.2748
18778SOL    HW258967   8.633   9.116   1.657 -0.4148  0.7549 -0.6964
18779SOL     OW58968   2.177   7.748   5.428  0.5894  0.4440  0.2259
18779SOL    HW158969   2.130   7.778   5.506  0.9565 -0.4950  0.8390
18779SOL    HW258970   2.255   7.705   5.464  0.1329 -1.1256 -0.5919
18780SOL     OW58971   6.974   4.857   2.886  0.6975 -0.2104 -0.3062
18780SOL    HW158972   7.063   4.881   2.913  0.7005 -1.4621  0.9305
18780SOL    HW258973   6.949   4.787   2.947 -1.2666  0.3428 -0.4155
18781SOL     OW58974   2.836   7.601   7.396  0.2122 -0.3941 -0.2849
18781SOL    HW158975   2.802   7.613   7.485  1.3418 -0.1860  0.1379
18781SOL    HW258976   2.763   7.625   7.339 -0.3715 -0.0510  0.5871
18782SOL     OW58977   4.539   5.901  10.248 -0.0315 -0.6417 -0.7795
18782SOL    HW158978   4.520   5.943  10.164  0.3597 -0.5979 -0.8467
18782SOL    HW258979   4.462   5.920  10.302 -0.1362 -0.3818 -1.0189
18783SOL     OW58980   1.543   1.618   4.995 -0.3827  0.2018  0.0306
18783SOL    HW158981   1.563   1.570   5.075  0.3174  1.2606  0.5243
18783SOL    HW258982   1.629   1.642   4.959 -0.7003  1.4776  0.0663
18784SOL     OW58983   5.916   4.828   5.080 -0.1606  0.4485 -0.2114
18784SOL    HW158984   5.879   4.788   5.002 -0.9748 -0.8686  0.8168
18784SOL    HW258985   6.006   4.797   5.082 -0.3538 -0.1170 -0.2268
18785SOL     OW58986   8.437   0.667   2.804  0.2533 -0.2415 -0.2264
18785SOL    HW158987   8.481   0.729   2.747  1.5519 -0.1148  0.8761
18785SOL    HW258988   8.477   0.582   2.783 -0.7187 -0.5468 -0.9299
18786SOL     OW58989   4.968  10.300  10.120 -0.2222 -0.7378 -0.2331
18786SOL    HW158990   4.943  10.225  10.065 -1.3959 -0.1430 -0.5574
18786SOL    HW258991   4.988  10.262  10.205 -2.9555 -1.2750  0.2773
18787SOL     OW58992   0.860   2.354   5.842  0.1055 -0.0150  0.2848
18787SOL    HW158993   0.778   2.396   5.867 -0.2263 -0.2708 -0.3648
18787SOL    HW258994   0.845   2.261   5.854 -0.1231 -0.1653 -0.9836
18788SOL     OW58995   9.488   5.851   3.717  0.0260  0.3952 -0.4068
18788SOL    HW158996   9.562   5.865   3.777 -0.3508 -1.4835  0.6127
18788SOL    HW258997   9.415   5.897   3.758  0.0715  0.1871 -0.0858
18789SOL     OW58998   4.375   3.997   8.579  0.1516 -0.4947  0.2600
18789SOL    HW158999   4.377   4.063   8.510  0.6022 -0.4614  0.3048
18789SOL    HW259000   4.451   4.016   8.633  0.3194 -1.0875  0.2398
18790SOL     OW59001   8.671   6.958   8.283 -0.4115  0.1696  0.0224
18790SOL    HW159002   8.662   6.993   8.372  1.2093  0.1423  0.2305
18790SOL    HW259003   8.674   6.863   8.295 -0.4155  0.1554 -0.0903
18791SOL     OW59004   6.952   8.447   3.756 -0.0196 -0.8884 -0.0372
18791SOL    HW159005   6.879   8.427   3.815 -1.5449  0.3468 -1.3961
18791SOL    HW259006   7.029   8.447   3.812 -1.1678 -1.4108  1.6303
18792SOL     OW59007   2.023  10.255   3.509 -0.3540  0.2312  0.0182
18792SOL    HW159008   2.058  10.166   3.520 -0.0243  0.3490 -0.0503
18792SOL    HW259009   2.060  10.303   3.583  0.3292  0.5670 -0.5340
18793SOL     OW59010   4.385   1.588   7.791  0.0969 -0.0837 -0.0182
18793SOL    HW159011   4.300   1.544   7.779  0.0427 -0.1131  0.4276
18793SOL    HW259012   4.448   1.531   7.748  0.0187 -0.5822  0.5154
18794SOL     OW59013   5.254   5.881   5.738  0.3908  0.1019 -0.4589
18794SOL    HW159014   5.167   5.889   5.699  0.5121  0.8108 -0.6066
18794SOL    HW259015   5.268   5.965   5.783  0.8453 -0.1505 -0.1237
18795SOL     OW59016   5.560   8.413   1.189  0.2502 -1.0137 -0.2983
18795SOL    HW159017   5.534   8.415   1.281 -0.0025  0.0066 -0.3747
18795SOL    HW259018   5.518   8.490   1.151  2.1008 -0.2013 -0.7984
18796SOL     OW59019   5.496   8.182   0.056 -0.5443  0.1357 -0.5322
18796SOL    HW159020   5.492   8.091   0.028  0.1638 -0.6757  1.7434
18796SOL    HW259021   5.501   8.178   0.152  2.4755  2.4150 -0.4270
18797SOL     OW59022   9.078   6.254   3.330  0.0559  0.9719  0.4809
18797SOL    HW159023   9.148   6.200   3.294  0.5233  1.4861  0.6026
18797SOL    HW259024   9.010   6.192   3.355  0.2031  0.5155 -0.2196
18798SOL     OW59025   7.919   2.540   5.246 -0.0643 -0.5442 -0.2606
18798SOL    HW159026   7.991   2.477   5.239 -0.1304 -0.5332 -1.2068
18798SOL    HW259027   7.941   2.608   5.183  0.1757  0.5766  1.0011
18799SOL     OW59028   8.957   3.947   2.809 -0.3681  0.1020 -0.4708
18799SOL    HW159029   9.000   3.928   2.892  0.5907  0.7457 -0.7959
18799SOL    HW259030   8.923   4.036   2.819  0.2419  0.4019 -0.9392
18800SOL     OW59031   6.752   3.679   0.668 -0.2177  0.5850  0.0631
18800SOL    HW159032   6.665   3.698   0.632 -0.6487 -0.3182  0.5976
18800SOL    HW259033   6.812   3.730   0.613 -0.9221 -0.0840 -1.3993
18801SOL     OW59034   6.097   4.952   9.917 -0.4280  0.2580  0.0088
18801SOL    HW159035   6.104   4.979   9.826 -0.1677 -0.0786 -0.0761
18801SOL    HW259036   6.184   4.917   9.938  0.0650  1.8789  0.8989
18802SOL     OW59037   4.703   0.018  10.171  0.6267 -0.3142  0.3584
18802SOL    HW159038   4.615   0.014  10.133 -0.1947  2.8097  1.5553
18802SOL    HW259039   4.761  -0.005  10.100 -1.0881  0.0149 -1.2247
18803SOL     OW59040   7.697   4.169   4.535  0.1299 -0.3202 -0.0208
18803SOL    HW159041   7.782   4.210   4.548 -0.7213  1.6220 -0.3139
18803SOL    HW259042   7.715   4.075   4.541  2.3788  0.0131 -0.6822
18804SOL     OW59043   9.612   7.902   4.592 -0.4581 -0.2204 -0.1332
18804SOL    HW159044   9.650   7.864   4.671  2.0686  0.6930 -0.8438
18804SOL    HW259045   9.569   7.982   4.621  0.3828  0.0660  0.3238
18805SOL     OW59046   2.800   8.843   8.341 -0.0102 -0.3606  0.1472
18805SOL    HW159047   2.893   8.836   8.362  0.2470 -2.9340 -1.3450
18805SOL    HW259048   2.759   8.875   8.422  2.1112  0.4918  0.9367
18806SOL     OW59049   7.116   6.094   4.381 -0.0675  0.2488  0.0749
18806SOL    HW159050   7.139   6.162   4.317 -1.0500  1.3957  0.9118
18806SOL    HW259051   7.021   6.087   4.376 -0.0963 -0.1119  0.9555
18807SOL     OW59052   8.775   4.332   5.327 -0.2610 -0.1568 -0.0082
18807SOL    HW159053   8.785   4.249   5.279 -1.2300 -1.1002  1.3330
18807SOL    HW259054   8.747   4.394   5.260  2.3196 -0.3801 -1.4308
18808SOL     OW59055   5.519   8.421   7.403  0.4756  0.0505  0.5336
18808SOL    HW159056   5.500   8.483   7.333  0.2922 -0.9535 -0.3208
18808SOL    HW259057   5.441   8.366   7.409 -1.2345  2.4495  4.1673
18809SOL     OW59058   5.260   9.976   1.923  0.2452  0.2183 -0.2484
18809SOL    HW159059   5.198  10.001   1.992 -1.4242 -0.0652 -1.5646
18809SOL    HW259060   5.335   9.939   1.969 -1.2229 -0.8638  1.3838
18810SOL     OW59061   0.789   0.596   8.201  0.0680  0.2199  0.3266
18810SOL    HW159062   0.845   0.538   8.254  0.3464 -0.3434 -0.5671
18810SOL    HW259063   0.792   0.680   8.247  0.4116 -0.2144  1.1332
18811SOL     OW59064   7.814   3.929   9.783  0.0405 -0.2581 -0.0061
18811SOL    HW159065   7.800   3.974   9.867 -1.4989 -1.1120  0.2319
18811SOL    HW259066   7.752   3.856   9.785  0.1271 -0.4121 -1.8133
18812SOL     OW59067   6.380   3.675   7.423  0.2496 -0.2457 -0.3430
18812SOL    HW159068   6.416   3.672   7.511  0.5674  1.7070 -0.3711
18812SOL    HW259069   6.389   3.585   7.390  1.0304 -0.7739  1.2374
18813SOL     OW59070   1.817   1.832   7.030  0.0302  0.3055 -0.0403
18813SOL    HW159071   1.843   1.900   7.092 -0.9261  0.3625  0.3084
18813SOL    HW259072   1.763   1.772   7.081 -0.6002  0.2430 -0.7629
18814SOL     OW59073   1.903   5.712   5.747 -0.0435  0.1940 -0.1831
18814SOL    HW159074   1.879   5.646   5.812 -2.7305  1.0162 -0.2100
18814SOL    HW259075   1.981   5.677   5.704  0.6493 -1.3026  2.1070
18815SOL     OW59076   4.856   1.466   5.429 -0.0684  0.0283  0.5999
18815SOL    HW159077   4.901   1.495   5.508  0.5280  1.3624 -0.1830
18815SOL    HW259078   4.885   1.376   5.416  3.2588  1.0842 -0.3786
18816SOL     OW59079   1.925   9.972   3.622  0.1817 -0.3587  0.1251
18816SOL    HW159080   1.998   9.914   3.600  0.7448 -0.2700  1.6102
18816SOL    HW259081   1.894  10.005   3.538  0.9980 -1.4237 -0.6257
18817SOL     OW59082   4.327   3.990  10.272  0.1041  0.5070  0.0939
18817SOL    HW159083   4.332   3.896  10.289 -3.6713 -0.0835 -1.2392
18817SOL    HW259084   4.406   4.009  10.221 -0.2509 -2.5513 -1.8483
18818SOL     OW59085   3.545   3.064   9.160  0.3478  0.3330  0.2941
18818SOL    HW159086   3.467   3.081   9.213  0.3601 -0.0916  0.4520
18818SOL    HW259087   3.576   3.151   9.134 -1.6335  0.4613 -1.9421
18819SOL     OW59088   7.261   5.725   9.676  0.1335  0.5874  0.9706
18819SOL    HW159089   7.238   5.646   9.627  0.1681  1.6011 -0.7742
18819SOL    HW259090   7.357   5.725   9.676  0.2209 -0.6291  3.2112
18820SOL     OW59091   7.517   9.501   7.051  0.3179 -0.7861 -0.0501
18820SOL    HW159092   7.528   9.412   7.019  1.1658 -0.5529 -0.4240
18820SOL    HW259093   7.437   9.497   7.104  1.5158 -2.2645  1.7545
18821SOL     OW59094   5.447  10.214  10.189  0.1633 -0.2459 -0.5776
18821SOL    HW159095   5.367  10.232  10.140 -0.6390 -0.1598  0.7144
18821SOL    HW259096   5.503  10.167  10.127 -1.0707 -0.7425 -1.3586
18822SOL     OW59097   4.904   0.898   0.922 -0.2889 -0.1149  0.0294
18822SOL    HW159098   4.940   0.818   0.885  1.7916  1.0334 -0.6037
18822SOL    HW259099   4.877   0.950   0.847  1.6609  1.1928  0.1443
18823SOL     OW59100   7.128   8.643   8.744 -0.6787  0.1395 -0.4439
18823SOL    HW159101   7.168   8.558   8.727  0.5753  0.7742 -0.7959
18823SOL    HW259102   7.139   8.691   8.662  1.9576  1.9040  0.8153
18824SOL     OW59103   3.193   4.509   5.161  0.2780 -0.0940  0.3704
18824SOL    HW159104   3.144   4.505   5.079  0.0212 -0.5470  0.5411
18824SOL    HW259105   3.252   4.584   5.150 -0.3070  0.3303  0.0911
18825SOL     OW59106   6.871   5.969   2.320  0.5423 -0.3946 -0.0732
18825SOL    HW159107   6.941   6.006   2.372  0.5451 -2.4071  1.4751
18825SOL    HW259108   6.896   5.987   2.229  1.4063  1.6664  0.5193
18826SOL     OW59109   8.994   3.677   0.986 -0.5534 -0.2388  0.4679
18826SOL    HW159110   9.002   3.770   1.008  0.1842 -0.0512 -0.5238
18826SOL    HW259111   9.071   3.658   0.934 -2.2752 -0.5816 -2.1346
18827SOL     OW59112   6.109   2.580   6.082  0.1535  0.0205 -0.0070
18827SOL    HW159113   6.159   2.505   6.048  0.3556  0.7707 -1.4479
18827SOL    HW259114   6.172   2.652   6.085 -0.7679  0.9606 -1.7702
18828SOL     OW59115   5.596   5.350   0.477  0.1772 -0.3306  0.2330
18828SOL    HW159116   5.668   5.292   0.452  1.5421  0.1385  2.6804
18828SOL    HW259117   5.608   5.428   0.423  0.7358 -0.7533 -0.2699
18829SOL     OW59118   9.517  10.105   5.234  0.4573 -0.3673  0.0562
18829SOL    HW159119   9.490  10.116   5.325 -0.5111  2.1774 -0.4671
18829SOL    HW259120   9.611  10.121   5.235  0.1033  2.0028  0.3423
18830SOL     OW59121   5.981   0.195   2.245 -0.2902 -0.6873 -0.5098
18830SOL    HW159122   5.917   0.192   2.174 -1.0965  1.2488  0.0633
18830SOL    HW259123   6.057   0.148   2.211 -1.2035 -1.1086 -2.0621
18831SOL     OW59124   3.885   8.438   8.754 -0.0384  0.3045 -0.7341
18831SOL    HW159125   3.964   8.393   8.725 -0.0769  0.4897 -1.1253
18831SOL    HW259126   3.898   8.530   8.729  1.1520  1.0827  2.2311
18832SOL     OW59127   8.810   2.223   4.320 -0.0723 -0.2199 -0.4326
18832SOL    HW159128   8.862   2.143   4.332  3.1542  1.5659 -1.1515
18832SOL    HW259129   8.761   2.208   4.239  1.2333 -1.1486 -1.0827
18833SOL     OW59130   3.052   2.795   6.701  0.4101  0.1391 -0.4804
18833SOL    HW159131   3.056   2.880   6.746 -2.2093  0.6833 -1.1014
18833SOL    HW259132   2.982   2.748   6.746  0.5000 -0.9172 -1.4108
18834SOL     OW59133   8.609   4.054   7.104 -0.2253  0.2947 -0.7837
18834SOL    HW159134   8.553   3.987   7.067  1.0711  0.0743 -2.4232
18834SOL    HW259135   8.689   4.008   7.129 -0.8329  0.5225  1.9186
18835SOL     OW59136   8.186   8.045   0.991 -0.0879 -0.0253 -0.2431
18835SOL    HW159137   8.147   8.000   1.066 -0.7237 -0.1058 -0.6214
18835SOL    HW259138   8.156   8.135   0.997  0.6000  0.1922  0.1032
18836SOL     OW59139  10.030   9.941   1.794  0.0605 -0.8952  0.7438
18836SOL    HW159140   9.981   9.919   1.873 -1.9643  5.3253  1.8007
18836SOL    HW259141   9.964   9.942   1.725 -0.4055  2.4256  1.0837
18837SOL     OW59142   4.898   5.878   4.365 -0.1004 -0.5475  0.2166
18837SOL    HW159143   4.960   5.933   4.414 -0.2131 -1.2584  1.1797
18837SOL    HW259144   4.934   5.790   4.373 -1.0638 -0.9175  0.5059
18838SOL     OW59145   9.587   7.089   2.930 -0.1550 -0.1005 -0.0904
18838SOL    HW159146   9.590   7.184   2.926 -3.7662  0.4502  3.3273
18838SOL    HW259147   9.621   7.068   3.017 -1.1765 -1.6995 -0.0414
18839SOL     OW59148   8.828   0.930   5.576 -0.5090  0.4809 -0.0468
18839SOL    HW159149   8.869   0.844   5.580  1.2000  1.2444 -0.5301
18839SOL    HW259150   8.755   0.919   5.515 -0.8435 -0.7972  0.5276
18840SOL     OW59151   9.939   6.849   3.450 -0.1474  0.1707  0.5439
18840SOL    HW159152   9.879   6.887   3.513 -1.9990 -1.1690 -0.2897
18840SOL    HW259153   9.945   6.757   3.476  3.3051  0.6156  1.8518
18841SOL     OW59154   4.576   2.786   8.700 -0.3701 -0.5584 -0.1905
18841SOL    HW159155   4.607   2.718   8.641  0.4065  0.3290 -0.8315
18841SOL    HW259156   4.637   2.859   8.688 -1.2551  0.3066  0.3788
18842SOL     OW59157   1.918   5.211   4.200 -0.3373  1.0337 -0.1775
18842SOL    HW159158   1.912   5.291   4.253 -1.0472  0.6211  0.3828
18842SOL    HW259159   1.849   5.155   4.234  0.5924 -0.0952 -0.1050
18843SOL     OW59160   6.103   9.695   2.831 -0.5817  0.1760  0.1490
18843SOL    HW159161   6.014   9.709   2.799 -0.9301 -0.7957  0.6512
18843SOL    HW259162   6.131   9.613   2.790  0.4964  1.0123 -0.8483
18844SOL     OW59163   3.442   6.260   6.814 -0.0479  0.8146 -0.3237
18844SOL    HW159164   3.401   6.346   6.827  0.9129  1.1131  0.8511
18844SOL    HW259165   3.379   6.198   6.852  0.1001  1.1787  0.5480
18845SOL     OW59166   3.204   2.374   7.601  0.1553 -0.5298  0.1316
18845SOL    HW159167   3.277   2.424   7.636 -0.1490 -0.5894  0.8779
18845SOL    HW259168   3.127   2.411   7.643 -0.0573 -1.7740  0.8966
18846SOL     OW59169   1.214   8.593   9.059 -0.7202 -0.4838  0.1787
18846SOL    HW159170   1.140   8.633   9.106 -0.7308  0.1147 -0.3345
18846SOL    HW259171   1.214   8.502   9.088 -1.8573 -0.5731 -0.0526
18847SOL     OW59172   7.553   8.204   9.008  0.2448  0.0889  0.2814
18847SOL    HW159173   7.584   8.114   9.011 -0.0087  0.0250  1.8853
18847SOL    HW259174   7.555   8.227   8.916  2.9769 -0.6125  0.0887
18848SOL     OW59175   7.240   5.107   9.649 -0.2355  0.2122  0.8068
18848SOL    HW159176   7.322   5.131   9.693  1.1947  1.0444 -2.0768
18848SOL    HW259177   7.242   5.012   9.646  1.2342  0.2349 -0.1775
18849SOL     OW59178   4.382   1.220   8.607  0.0342 -0.4119 -0.4467
18849SOL    HW159179   4.468   1.257   8.624 -0.2939  1.1864 -1.9455
18849SOL    HW259180   4.370   1.229   8.512 -1.3282 -1.6499 -0.4345
18850SOL     OW59181   5.033   9.374   4.645  0.4725 -0.0827 -0.3010
18850SOL    HW159182   5.096   9.342   4.580  0.5822  0.2600 -0.3660
18850SOL    HW259183   5.038   9.470   4.638  0.2136 -0.0499 -0.0480
18851SOL     OW59184   3.877   0.897   0.943 -0.4484  0.8430 -0.2275
18851SOL    HW159185   3.827   0.918   0.864 -1.1167 -0.2229 -0.1014
18851SOL    HW259186   3.836   0.948   1.012 -1.8069 -0.5018  0.0011
18852SOL     OW59187   7.459   8.834   2.580 -0.1505 -0.3161  0.1095
18852SOL    HW159188   7.386   8.796   2.530 -1.0243  1.7652 -0.3154
18852SOL    HW259189   7.456   8.790   2.665 -1.5831 -0.6426 -0.0868
18853SOL     OW59190   3.253   0.467   7.464  0.0932  0.9465 -0.1563
18853SOL    HW159191   3.347   0.463   7.481 -0.2931 -0.1199  2.1471
18853SOL    HW259192   3.214   0.424   7.539 -2.2640  1.3735 -1.0636
18854SOL     OW59193   8.554  10.084   0.810  0.0126  0.4887 -0.3531
18854SOL    HW159194   8.487  10.016   0.801  1.2255 -0.6799 -0.9555
18854SOL    HW259195   8.611  10.071   0.734  2.1918 -0.0114  1.2901
18855SOL     OW59196   8.286   4.825   3.871 -0.3428 -0.0297 -0.0967
18855SOL    HW159197   8.338   4.882   3.928 -0.4885  0.2948 -0.2839
18855SOL    HW259198   8.196   4.856   3.882 -0.5204 -0.6738  0.3262
18856SOL     OW59199   2.288   6.001   5.436 -0.1543 -0.2376  0.2723
18856SOL    HW159200   2.317   5.910   5.444  0.1463 -0.0219  2.4565
18856SOL    HW259201   2.356   6.043   5.383 -0.3829 -1.3009 -0.8938
18857SOL     OW59202   5.074   7.329  10.185  0.4256 -0.3020  0.3630
18857SOL    HW159203   5.048   7.296  10.271 -2.0209  1.5304  0.4083
18857SOL    HW259204   5.111   7.415  10.202 -1.9228  0.9542 -0.5226
18858SOL     OW59205   8.385  10.199   6.101 -0.3193 -0.3769 -0.1409
18858SOL    HW159206   8.324  10.272   6.098 -0.5099 -0.4281  1.5375
18858SOL    HW259207   8.468  10.238   6.129 -0.2599 -0.7025  0.1471
18859SOL     OW59208   6.225   5.449   6.100 -0.0507  0.0489  0.2799
18859SOL    HW159209   6.248   5.403   6.180 -1.5588 -1.1677  0.0641
18859SOL    HW259210   6.178   5.527   6.130 -3.1567 -1.7938  0.6770
18860SOL     OW59211   7.454   2.847   4.938  0.0890 -0.4234 -0.4427
18860SOL    HW159212   7.445   2.802   5.022 -0.4613  0.1975 -0.1589
18860SOL    HW259213   7.364   2.870   4.914  0.4440  4.2540  1.5239
18861SOL     OW59214   2.090   7.045   3.593  0.0981  0.3295 -0.3873
18861SOL    HW159215   2.019   6.985   3.616 -0.2873  0.1933 -1.8675
18861SOL    HW259216   2.094   7.043   3.498  1.8423  0.6337 -0.3589
18862SOL     OW59217   1.214   5.698   9.379 -0.6288  0.2740  0.0719
18862SOL    HW159218   1.260   5.761   9.324 -1.6695  1.0128  0.0136
18862SOL    HW259219   1.239   5.723   9.469  1.9104 -1.5855 -0.0075
18863SOL     OW59220   2.596   9.851  10.077 -0.3978 -0.7030 -0.4245
18863SOL    HW159221   2.668   9.789  10.087 -1.1720 -1.3492  1.4444
18863SOL    HW259222   2.532   9.804  10.022 -1.2706 -1.8907  1.5173
18864SOL     OW59223   1.468   2.839   2.138 -0.2097 -0.0702 -0.0860
18864SOL    HW159224   1.419   2.858   2.218  1.8024 -1.8607  1.6928
18864SOL    HW259225   1.522   2.763   2.160  3.3461  1.6856 -1.8499
18865SOL     OW59226   8.303   6.278   2.888  0.2211 -0.3110 -0.2131
18865SOL    HW159227   8.334   6.276   2.798  3.1521  3.2199  0.4906
18865SOL    HW259228   8.355   6.211   2.933 -0.7643 -1.5983 -0.9006
18866SOL     OW59229   3.672   6.561   9.942  0.2519 -0.1811 -0.5769
18866SOL    HW159230   3.734   6.488   9.935  0.0190 -0.2885 -1.8637
18866SOL    HW259231   3.722   6.637   9.913  0.0969 -0.0767 -0.5702
18867SOL     OW59232   7.933   1.087   9.148  0.1554 -0.5685 -0.1106
18867SOL    HW159233   7.904   1.004   9.186  0.3477 -0.7944 -0.4493
18867SOL    HW259234   7.925   1.074   9.054  0.2835 -0.2385 -0.1676
18868SOL     OW59235   4.076   0.100   5.262 -0.4638  0.1753  0.3478
18868SOL    HW159236   4.011   0.166   5.287 -1.1688 -0.7224  0.9691
18868SOL    HW259237   4.098   0.120   5.171 -1.2409  0.7945  0.2916
18869SOL     OW59238   9.946   2.237   6.115 -0.1224  0.2186 -0.1626
18869SOL    HW159239   9.996   2.306   6.159  1.8258 -0.6281 -0.9503
18869SOL    HW259240   9.968   2.157   6.164  0.1937 -0.3453 -1.2059
18870SOL     OW59241   7.846   8.691   4.150 -0.3713  0.5207 -0.1411
18870SOL    HW159242   7.855   8.721   4.059 -0.2828 -1.2587 -0.7629
18870SOL    HW259243   7.875   8.765   4.203  1.1487  1.0343 -1.6140
18871SOL     OW59244   7.877   7.983   7.423  0.2606 -0.0708 -1.0095
18871SOL    HW159245   7.790   8.007   7.453  1.0267  0.8515  0.6324
18871SOL    HW259246   7.867   7.896   7.385 -1.6744  0.7455 -2.4725
18872SOL     OW59247   9.262   7.210   4.972  0.2425  0.0641  0.4697
18872SOL    HW159248   9.309   7.130   4.996  1.3505  0.7698  0.7249
18872SOL    HW259249   9.280   7.222   4.879 -0.5193 -0.3530  0.2563
18873SOL     OW59250   2.217   3.996   9.875 -0.4643  0.1884 -0.3140
18873SOL    HW159251   2.198   4.073   9.928 -0.8391  1.3797 -2.0660
18873SOL    HW259252   2.174   3.924   9.921 -1.9371  1.3960  0.3018
18874SOL     OW59253   0.930   2.933   7.264 -1.1930 -0.5719 -0.0957
18874SOL    HW159254   0.925   2.971   7.351 -1.6438 -0.2622 -0.2544
18874SOL    HW259255   1.024   2.926   7.246 -1.1064 -0.1374  0.1950
18875SOL     OW59256   7.248   8.968   7.017 -0.1219 -0.7964 -0.7974
18875SOL    HW159257   7.164   8.928   6.995 -0.1140 -0.3804 -1.6093
18875SOL    HW259258   7.241   9.058   6.987  0.4622 -0.6387 -0.4769
18876SOL     OW59259   3.279   0.008   7.566  0.2570  0.1062  0.8825
18876SOL    HW159260   3.273  -0.087   7.558 -0.6631  0.2441 -0.3076
18876SOL    HW259261   3.372   0.025   7.582  1.0103 -0.8038 -1.9999
18877SOL     OW59262   9.155   8.246   1.896  0.4847  0.0963  0.3798
18877SOL    HW159263   9.097   8.219   1.967 -0.4757 -0.1786 -0.4762
18877SOL    HW259264   9.142   8.179   1.828  1.2290  0.4611 -0.1342
18878SOL     OW59265   3.025   3.604   8.450 -0.3363 -0.1209 -0.5521
18878SOL    HW159266   2.982   3.621   8.366 -0.2836 -2.3244 -1.0760
18878SOL    HW259267   3.108   3.651   8.444 -0.3852 -0.1510 -1.6970
18879SOL     OW59268   9.817   3.980   6.742  0.2300 -0.0489  0.5781
18879SOL    HW159269   9.898   4.031   6.749 -0.0149  0.2222  1.8254
18879SOL    HW259270   9.772   4.017   6.667  2.0748 -1.4302 -1.3115
18880SOL     OW59271   5.893   5.376   6.991 -0.2383  0.8936  0.2263
18880SOL    HW159272   5.893   5.301   7.051 -0.6605 -0.3675 -1.2794
18880SOL    HW259273   5.868   5.338   6.906 -0.8579  2.8135 -0.4942
18881SOL     OW59274   9.218   9.299   0.202  0.1316  0.4377 -0.0041
18881SOL    HW159275   9.273   9.249   0.263  0.8238  1.1993  0.0167
18881SOL    HW259276   9.169   9.359   0.258  1.1483  1.4952 -0.2132
18882SOL     OW59277   8.893   1.487   4.999 -0.3968  0.0908 -0.3420
18882SOL    HW159278   8.821   1.445   5.044 -0.3249 -0.2386 -0.5247
18882SOL    HW259279   8.866   1.490   4.907 -0.8037  1.3066 -0.2011
18883SOL     OW59280   7.885   7.373   1.572 -0.0599 -0.6295  0.4068
18883SOL    HW159281   7.964   7.319   1.578  3.0646  2.6051 -4.2016
18883SOL    HW259282   7.910   7.455   1.614 -1.0748  0.2818 -0.6984
18884SOL     OW59283   0.731   1.930   9.057  0.5948 -0.1061  0.0541
18884SOL    HW159284   0.728   2.023   9.033  0.8190 -0.3944 -1.1661
18884SOL    HW259285   0.668   1.888   8.998  0.7968 -0.7853  0.3125
18885SOL     OW59286   2.355   5.478   6.103  0.2494  0.4029  0.8430
18885SOL    HW159287   2.399   5.560   6.123 -0.3467  0.4924  1.8614
18885SOL    HW259288   2.417   5.429   6.048 -0.1631  2.3324 -1.4926
18886SOL     OW59289   9.579   0.026   9.335 -0.4529  0.2538 -0.3054
18886SOL    HW159290   9.574  -0.069   9.350 -1.9114  0.5015  0.9303
18886SOL    HW259291   9.559   0.036   9.242 -1.3177 -0.5813 -0.2269
18887SOL     OW59292   2.219   1.824   3.287 -0.2540 -0.4054  0.0680
18887SOL    HW159293   2.212   1.788   3.198  1.5249 -1.1337  0.1798
18887SOL    HW259294   2.265   1.757   3.337 -0.2739  0.4416  1.2715
18888SOL     OW59295   6.144   4.269   9.431 -0.4783  0.3770 -0.3085
18888SOL    HW159296   6.095   4.210   9.489 -0.4128  1.3782  0.8085
18888SOL    HW259297   6.077   4.309   9.375 -0.3868 -1.6779 -1.9846
18889SOL     OW59298   1.609   7.034   2.328 -0.0407  0.0760  0.0318
18889SOL    HW159299   1.555   7.040   2.250 -0.4027  0.3216  0.2984
18889SOL    HW259300   1.698   7.050   2.296 -0.2018  0.3166 -0.3097
18890SOL     OW59301   5.962   1.928   1.696  0.1060 -0.1131  0.0714
18890SOL    HW159302   5.914   1.888   1.624 -0.8180  1.7442 -0.4162
18890SOL    HW259303   6.054   1.909   1.678 -0.2415 -1.3628 -0.4834
18891SOL     OW59304   5.070   5.624   8.243  0.0147 -0.1319  0.0394
18891SOL    HW159305   5.020   5.584   8.314 -1.3257  0.5048 -0.5153
18891SOL    HW259306   5.060   5.719   8.257  0.0601  0.0009 -0.7827
18892SOL     OW59307   2.591   3.362   5.620  0.1848 -0.5656 -0.0715
18892SOL    HW159308   2.518   3.335   5.565 -0.1648 -2.7281  1.3225
18892SOL    HW259309   2.564   3.446   5.657 -0.6397 -0.3048 -1.2445
18893SOL     OW59310   0.034   6.211   9.321 -0.3178 -0.4872 -0.3630
18893SOL    HW159311   0.072   6.251   9.243  0.0917 -0.2143 -0.0341
18893SOL    HW259312   0.098   6.144   9.347 -0.2486 -0.2954 -0.0303
18894SOL     OW59313   5.080   0.506   4.834 -0.5723  0.3726  0.5240
18894SOL    HW159314   5.029   0.586   4.821 -0.2421  0.7855  1.6375
18894SOL    HW259315   5.154   0.515   4.775 -0.2318  1.1784  1.0446
18895SOL     OW59316   8.201   1.360   0.916  0.2981 -0.5307 -0.0434
18895SOL    HW159317   8.196   1.409   0.998 -1.4269  1.0724 -1.0374
18895SOL    HW259318   8.119   1.380   0.871  0.0008 -3.4749 -1.0342
18896SOL     OW59319   7.705  10.337   1.119 -0.8069  0.2207  0.2376
18896SOL    HW159320   7.760  10.293   1.053 -0.1646 -0.0110  0.9126
18896SOL    HW259321   7.673  10.266   1.175 -0.6500  0.4992  0.6869
18897SOL     OW59322   0.805   2.618   8.041 -0.5192 -0.0547 -0.3743
18897SOL    HW159323   0.898   2.640   8.028 -0.7575  0.4574 -1.2879
18897SOL    HW259324   0.799   2.593   8.133  0.5235 -0.0745 -0.3011
18898SOL     OW59325   3.289   4.182   1.229  0.0436 -0.7191 -0.1719
18898SOL    HW159326   3.289   4.277   1.239 -0.2409 -0.6580 -0.7047
18898SOL    HW259327   3.294   4.148   1.318 -0.0557 -0.2073  0.0309
18899SOL     OW59328   9.169   0.774   3.679 -0.7223  0.5536 -0.1516
18899SOL    HW159329   9.214   0.696   3.710  1.6277  1.6314 -0.6593
18899SOL    HW259330   9.105   0.794   3.747 -0.9398 -1.4198  0.2777
18900SOL     OW59331   4.385   1.218   9.272 -0.5454  0.0776 -0.1680
18900SOL    HW159332   4.347   1.198   9.186  1.1588 -0.8018 -0.7643
18900SOL    HW259333   4.378   1.136   9.320 -2.0057  0.7202  0.7792
18901SOL     OW59334   3.468   3.991   1.034  0.3691 -0.1363  0.1942
18901SOL    HW159335   3.434   3.987   0.945  0.9920  0.8653 -0.1080
18901SOL    HW259336   3.390   3.993   1.090 -0.0504  0.4067 -0.3912
18902SOL     OW59337   2.704   9.948   0.167  0.0155  0.7619  0.3678
18902SOL    HW159338   2.771   9.895   0.124  0.0535  2.0335 -1.2334
18902SOL    HW259339   2.631   9.888   0.180  1.0569 -0.3738  1.1783
18903SOL     OW59340   9.855   6.606   1.553 -0.3162  0.2606  0.0172
18903SOL    HW159341   9.850   6.511   1.559  0.4127  0.2167  0.0611
18903SOL    HW259342   9.776   6.632   1.505 -0.7413 -0.3215  0.3921
18904SOL     OW59343   7.200   7.122   0.735 -0.3903 -0.8355  0.3857
18904SOL    HW159344   7.169   7.101   0.823 -1.3023 -0.4128  0.1749
18904SOL    HW259345   7.166   7.051   0.680 -0.3596 -0.7618  0.2717
18905SOL     OW59346   6.639   6.003   6.649 -0.1456 -0.3321  0.9901
18905SOL    HW159347   6.599   5.918   6.668 -0.5454 -0.6284 -1.0025
18905SOL    HW259348   6.677   5.993   6.562 -0.7141  1.7013  0.4496
18906SOL     OW59349   0.196   7.614   3.651  0.1338 -0.0563  0.2735
18906SOL    HW159350   0.177   7.708   3.645 -0.2192 -0.1149  0.4086
18906SOL    HW259351   0.115   7.576   3.686 -1.1985 -0.9217 -3.2692
18907SOL     OW59352   9.236   5.476   8.818 -0.1391  0.2305  0.1295
18907SOL    HW159353   9.235   5.572   8.812  0.7257  0.2875  0.7277
18907SOL    HW259354   9.321   5.450   8.785 -0.3143 -0.3293  0.1047
18908SOL     OW59355   3.739   2.485   2.746  0.1657 -0.5434  0.6332
18908SOL    HW159356   3.801   2.451   2.681 -2.6273 -1.8572 -1.6027
18908SOL    HW259357   3.748   2.426   2.821  0.8158 -1.4200 -0.1111
18909SOL     OW59358   5.219   4.395   7.412 -0.5604  0.2390 -0.6149
18909SOL    HW159359   5.156   4.329   7.385 -0.1115  0.1287 -1.4212
18909SOL    HW259360   5.216   4.461   7.342 -1.2364  1.2491  0.3285
18910SOL     OW59361   7.055  10.106   3.456 -0.4698 -0.5296 -0.1166
18910SOL    HW159362   7.121  10.080   3.391  0.3516 -0.3149  0.6015
18910SOL    HW259363   7.011  10.181   3.417  0.8712  0.3922  0.0741
18911SOL     OW59364   9.513   5.767   6.602 -0.0385 -0.2552 -0.3978
18911SOL    HW159365   9.603   5.766   6.570 -0.2926 -1.0997 -1.1318
18911SOL    HW259366   9.506   5.690   6.658 -0.3529 -0.2983 -0.4917
18912SOL     OW59367   6.107   8.619   0.053 -0.4656 -0.1748 -0.0600
18912SOL    HW159368   6.066   8.547   0.101 -0.2205 -0.5948 -0.4799
18912SOL    HW259369   6.138   8.580  -0.028  1.3772 -0.0267  0.5295
18913SOL     OW59370   2.490   4.280   1.346 -0.4314 -0.0565 -0.3493
18913SOL    HW159371   2.446   4.344   1.401 -1.6984 -0.9426 -0.2656
18913SOL    HW259372   2.463   4.195   1.382 -0.0135 -0.6408 -1.3580
18914SOL     OW59373   5.760   0.644   0.178 -0.4441 -0.4446 -0.2624
18914SOL    HW159374   5.678   0.606   0.209 -0.2133 -1.3468 -0.7180
18914SOL    HW259375   5.828   0.585   0.211  0.0637  0.4857  0.4102
18915SOL     OW59376   7.690   9.907   2.426 -0.2274 -0.5580 -0.1843
18915SOL    HW159377   7.714   9.916   2.518 -0.0269 -2.2649 -0.0266
18915SOL    HW259378   7.729   9.983   2.383  0.6151 -0.3101  0.9698
18916SOL     OW59379   9.524   5.694   2.653  0.7002 -0.6322  0.6220
18916SOL    HW159380   9.503   5.704   2.746  2.2550 -0.8819  1.0409
18916SOL    HW259381   9.547   5.783   2.624  0.8550 -0.6594  0.6590
18917SOL     OW59382   6.670   5.248   7.271  0.4955 -0.1092  0.4139
18917SOL    HW159383   6.598   5.251   7.333  0.1824 -0.4617  0.0742
18917SOL    HW259384   6.675   5.156   7.244 -0.7569  0.3755 -1.6865
18918SOL     OW59385   5.390   5.120   8.068  0.2108  0.1968  0.2275
18918SOL    HW159386   5.387   5.138   7.974  0.2522  0.4920  0.2799
18918SOL    HW259387   5.459   5.055   8.078  0.8380  0.8308  0.1474
18919SOL     OW59388   2.922   7.302   9.359  0.2317  0.0888  0.4707
18919SOL    HW159389   2.889   7.277   9.272 -1.2842  2.9082  0.0969
18919SOL    HW259390   2.976   7.379   9.342  0.0460  0.5751  2.0075
18920SOL     OW59391   2.116   9.356   8.237  0.1341 -0.4086  0.0137
18920SOL    HW159392   2.193   9.328   8.188 -0.4232 -0.9490 -0.5497
18920SOL    HW259393   2.041   9.327   8.186 -0.4621 -0.5518  0.9311
18921SOL     OW59394   4.291   4.179   5.478  0.5056  0.1070  0.3328
18921SOL    HW159395   4.197   4.173   5.459  0.8620 -0.3409 -1.4399
18921SOL    HW259396   4.312   4.095   5.518  0.2052  0.0964  0.4729
18922SOL     OW59397   3.630   9.505   2.696  0.2408  0.5152 -0.2678
18922SOL    HW159398   3.681   9.543   2.625  0.0901  0.7905 -0.2315
18922SOL    HW259399   3.677   9.426   2.721  0.8096  0.9167 -0.0472
18923SOL     OW59400   5.088   2.872   7.765  0.8080 -0.5525 -0.6542
18923SOL    HW159401   5.055   2.846   7.679 -1.5255 -0.9148  0.2697
18923SOL    HW259402   5.046   2.811   7.826  0.4209  1.2186  0.9467
18924SOL     OW59403   0.315   8.863   7.072 -0.1673 -0.6880 -0.2939
18924SOL    HW159404   0.293   8.827   7.157 -2.1893  0.2332 -0.3742
18924SOL    HW259405   0.324   8.787   7.015 -1.8834 -1.2194  0.0844
18925SOL     OW59406   3.137  10.344   4.331 -0.2362 -0.4521  0.3775
18925SOL    HW159407   3.232  10.339   4.344 -0.2480 -0.0669  0.6323
18925SOL    HW259408   3.109  10.416   4.388 -0.8328 -1.2629  1.1345
18926SOL     OW59409   3.601   0.081   2.527 -0.7777  0.2360 -0.0820
18926SOL    HW159410   3.619   0.174   2.529 -0.5687  0.1897  0.7857
18926SOL    HW259411   3.684   0.039   2.550 -1.4866 -0.0300  2.3976
18927SOL     OW59412   7.329   5.143   7.686  0.5648  0.1677 -0.3433
18927SOL    HW159413   7.250   5.162   7.634  1.2802 -1.2535 -2.0401
18927SOL    HW259414   7.300   5.077   7.749  0.3235 -0.0829 -0.7148
18928SOL     OW59415   9.843   1.773   2.225  0.1066  0.0038  0.5277
18928SOL    HW159416   9.766   1.787   2.279 -2.1327 -1.8006 -1.8794
18928SOL    HW259417   9.854   1.677   2.224  0.1268 -0.0295 -1.9479
18929SOL     OW59418   0.501   8.178   9.427  0.1171 -0.4233  0.2297
18929SOL    HW159419   0.503   8.273   9.439  0.6062 -0.5223  0.9798
18929SOL    HW259420   0.449   8.146   9.500  1.7765 -0.9002  1.2523
18930SOL     OW59421   3.093   5.750   8.701 -0.0371  0.1975  0.5259
18930SOL    HW159422   3.110   5.659   8.722 -1.7591 -0.1888  0.3503
18930SOL    HW259423   3.159   5.799   8.750  0.4670 -1.0924  1.1713
18931SOL     OW59424   9.069   3.344   4.035  0.2495  0.6063  0.6257
18931SOL    HW159425   9.065   3.436   4.059  0.4623  0.8483 -0.2437
18931SOL    HW259426   8.984   3.326   3.994 -0.2730  0.0917  1.8730
18932SOL     OW59427   7.808   5.915   8.615 -0.1918 -0.6675 -0.0198
18932SOL    HW159428   7.796   6.003   8.579  1.1549  0.2838  1.7117
18932SOL    HW259429   7.828   5.861   8.538 -2.8912  0.0923 -1.3691
18933SOL     OW59430   6.292   8.607   1.220 -0.9026  0.1534  0.0947
18933SOL    HW159431   6.316   8.656   1.298 -0.1697  0.9282 -0.6012
18933SOL    HW259432   6.267   8.674   1.156  0.1305 -0.3585 -0.8794
18934SOL     OW59433   4.621   1.174   0.192  0.4593  0.7603 -0.2839
18934SOL    HW159434   4.692   1.236   0.172  1.4005 -0.7286 -1.8449
18934SOL    HW259435   4.544   1.229   0.204  1.1849  2.2368 -1.9364
18935SOL     OW59436   5.923   8.286   8.510 -0.3326  0.5084 -0.1615
18935SOL    HW159437   5.877   8.291   8.426  0.0649  0.7321 -0.3708
18935SOL    HW259438   5.997   8.346   8.501 -1.5979  2.3824  1.2050
18936SOL     OW59439   1.804   6.887   8.085  0.3766  0.3378  0.4067
18936SOL    HW159440   1.759   6.971   8.094 -1.2318 -0.2813 -1.2002
18936SOL    HW259441   1.891   6.902   8.123 -1.0527  1.6564  3.4703
18937SOL     OW59442   8.616   9.299   7.414  0.1726  0.2550 -0.2856
18937SOL    HW159443   8.612   9.342   7.328  1.9404  2.7011  0.7505
18937SOL    HW259444   8.563   9.354   7.471  1.2272  0.2144  0.7596
18938SOL     OW59445   4.306   8.433   4.506  0.4276  0.1041  0.0981
18938SOL    HW159446   4.266   8.362   4.555  0.0027  0.0577 -0.3083
18938SOL    HW259447   4.340   8.392   4.427  2.3253 -0.0677  0.9409
18939SOL     OW59448   5.325   7.337   0.605 -0.2855 -0.2582 -0.0176
18939SOL    HW159449   5.249   7.395   0.594 -0.8664 -0.7753  1.1560
18939SOL    HW259450   5.296   7.269   0.666  1.3349 -0.0630  1.0528
18940SOL     OW59451  10.138   2.189   0.258 -0.3557  0.0485 -0.2205
18940SOL    HW159452  10.165   2.101   0.284  1.7602  0.4114 -0.9389
18940SOL    HW259453  10.057   2.205   0.306  0.3012 -1.5071  1.5303
18941SOL     OW59454   3.939   7.074   2.149  1.0760 -0.2912 -0.0322
18941SOL    HW159455   3.978   7.123   2.221  1.6603 -0.3708 -0.2824
18941SOL    HW259456   3.846   7.067   2.171  0.5877  2.4238 -0.7812
18942SOL     OW59457   2.080   8.268   1.566 -0.1507 -0.2080  0.8974
18942SOL    HW159458   2.030   8.348   1.550  0.2598  0.1889  1.5334
18942SOL    HW259459   2.131   8.255   1.486 -0.9598 -0.3960  0.4005
18943SOL     OW59460   8.386   5.827   6.714 -0.3954  0.1013 -0.1622
18943SOL    HW159461   8.392   5.814   6.620  0.4371  0.7970 -0.2123
18943SOL    HW259462   8.342   5.912   6.724 -1.4455 -0.4614  0.0953
18944SOL     OW59463   8.845   6.652   8.606 -0.4656 -0.3517 -0.0742
18944SOL    HW159464   8.916   6.670   8.668 -1.5245  1.8312  0.5785
18944SOL    HW259465   8.885   6.666   8.520  0.2348 -0.4245  0.2328
18945SOL     OW59466   8.136   0.529   3.075  0.2503  0.1721  0.4496
18945SOL    HW159467   8.124   0.547   3.168  0.8087 -1.9374  0.9947
18945SOL    HW259468   8.055   0.486   3.048 -0.7461  2.5488 -0.6033
18946SOL     OW59469   9.159   0.389   2.687  0.0523 -0.9737 -0.2881
18946SOL    HW159470   9.104   0.463   2.713 -0.6824 -1.7631  0.4995
18946SOL    HW259471   9.171   0.339   2.768  0.0274 -2.0295 -0.9198
18947SOL     OW59472   0.338   1.400   3.530 -0.6145  0.3332  0.1694
18947SOL    HW159473   0.368   1.373   3.444 -0.0789 -0.0561  0.4740
18947SOL    HW259474   0.400   1.361   3.591 -0.6583  1.0694  0.7015
18948SOL     OW59475   6.549   3.165   2.108  0.2440  0.1341  0.0948
18948SOL    HW159476   6.460   3.200   2.100  0.8170  1.3991 -1.0772
18948SOL    HW259477   6.589   3.183   2.023  1.5952 -0.4928  0.5852
18949SOL     OW59478   6.776   4.470   2.112  0.1782 -0.3944 -0.5682
18949SOL    HW159479   6.772   4.534   2.182  2.4753  0.0725 -0.7793
18949SOL    HW259480   6.691   4.426   2.114 -0.1375  0.2136  1.8935
18950SOL     OW59481   4.329   3.038   1.951 -0.5530  0.9397 -0.5271
18950SOL    HW159482   4.333   3.075   1.863 -0.5900  2.2755  0.0034
18950SOL    HW259483   4.333   3.114   2.009 -0.0196  0.0577  0.6408
18951SOL     OW59484   0.970   4.596   3.534 -0.6466 -0.3628 -0.3748
18951SOL    HW159485   1.033   4.563   3.470  0.1435 -0.1521  0.2776
18951SOL    HW259486   0.963   4.689   3.516  0.0881 -0.1727  0.2496
18952SOL     OW59487   2.417  10.117   9.717  0.7156 -0.5085 -0.6823
18952SOL    HW159488   2.336  10.081   9.754 -0.4998  2.2604 -0.3999
18952SOL    HW259489   2.473  10.133   9.793 -0.1014  1.2238 -0.3927
18953SOL     OW59490   0.491   1.013   3.837  0.2906 -0.3217 -0.4368
18953SOL    HW159491   0.502   1.036   3.929 -0.3431 -1.1522 -0.1374
18953SOL    HW259492   0.580   1.016   3.801  0.6539 -0.7340  0.3934
18954SOL     OW59493   0.682   6.474   8.067 -0.3398  0.1090 -0.4062
18954SOL    HW159494   0.635   6.540   8.016 -1.0611  0.1447  0.2703
18954SOL    HW259495   0.702   6.404   8.004 -1.9876 -0.2486 -0.5807
18955SOL     OW59496   8.672   9.989   7.820 -0.4157  0.1956 -0.2393
18955SOL    HW159497   8.578   9.973   7.814 -0.4582 -0.0828  0.9451
18955SOL    HW259498   8.707   9.910   7.862  0.5146 -0.1837 -1.6334
18956SOL     OW59499   9.676   2.428   3.990  0.1929 -0.2402  0.1162
18956SOL    HW159500   9.598   2.483   3.981  0.6257  0.5721  1.1212
18956SOL    HW259501   9.749   2.490   3.992  0.7679 -0.9093  0.3656
18957SOL     OW59502   4.728   6.907   1.104  0.2222 -0.4442 -0.0551
18957SOL    HW159503   4.799   6.899   1.040  0.4184 -2.4806  0.3394
18957SOL    HW259504   4.681   6.987   1.079  1.9543  0.3143 -1.0214
18958SOL     OW59505  10.024   8.228   8.515 -0.4598 -0.7045 -0.1503
18958SOL    HW159506  10.031   8.133   8.514  1.1909 -0.6245  0.1429
18958SOL    HW259507  10.097   8.257   8.571  0.3593  0.8035 -1.8966
18959SOL     OW59508   9.923   8.096   3.298 -0.1191 -0.3580 -0.2503
18959SOL    HW159509   9.871   8.168   3.335  0.7652  0.1567  0.0077
18959SOL    HW259510   9.889   8.087   3.209  0.0372  0.6636 -0.4329
18960SOL     OW59511   1.803   0.068   7.568 -0.8738 -0.0441 -0.0424
18960SOL    HW159512   1.759   0.043   7.649  0.8853 -0.4397  0.8442
18960SOL    HW259513   1.781   0.161   7.556 -0.5425  0.2294  1.3242
18961SOL     OW59514   9.586   7.783   2.759 -0.1743  0.0796 -0.4337
18961SOL    HW159515   9.585   7.716   2.827  1.9508 -0.6271 -1.0314
18961SOL    HW259516   9.669   7.771   2.714 -1.0746  1.1738 -2.5409
18962SOL     OW59517   3.637   6.747   1.436 -0.3037  0.2153 -0.5420
18962SOL    HW159518   3.684   6.712   1.360  0.3736 -0.2896  0.1031
18962SOL    HW259519   3.636   6.842   1.421 -0.1150  0.1281 -1.1415
18963SOL     OW59520   5.859   8.972   7.523 -0.3953 -0.0320 -0.3211
18963SOL    HW159521   5.840   9.065   7.530 -1.0374 -0.0022 -1.9141
18963SOL    HW259522   5.955   8.967   7.523 -0.3583  0.4994  0.9021
18964SOL     OW59523   6.040   5.202   0.013  0.0018  0.1874  0.0383
18964SOL    HW159524   5.955   5.242  -0.002 -0.8297 -0.2112  3.0037
18964SOL    HW259525   6.027   5.110  -0.009  0.1182  0.3906 -0.9108
18965SOL     OW59526   4.815   6.801  10.221  0.1089 -0.0607  0.4619
18965SOL    HW159527   4.909   6.821  10.217  0.4080 -1.5653 -2.0494
18965SOL    HW259528   4.809   6.709  10.194 -2.0190 -0.4087  1.8779
18966SOL     OW59529   0.835   9.548   8.421 -0.1919 -0.0600  0.3772
18966SOL    HW159530   0.802   9.628   8.381  0.2126 -0.6308 -1.1423
18966SOL    HW259531   0.900   9.515   8.360 -0.6659 -1.7865  0.7387
18967SOL     OW59532   3.126   8.533   4.493 -1.0957  0.1219 -0.2177
18967SOL    HW159533   3.212   8.553   4.530 -0.5157  0.0785 -1.4857
18967SOL    HW259534   3.077   8.494   4.565 -0.0918  0.2460  0.5544
18968SOL     OW59535   7.240   2.257   1.855 -0.0068  0.2434  0.2617
18968SOL    HW159536   7.302   2.301   1.914 -2.2201  1.5978  1.7156
18968SOL    HW259537   7.241   2.165   1.884  3.1713 -0.4078 -1.4882
18969SOL     OW59538   4.005   4.231   4.617 -0.4117  0.2253  0.2799
18969SOL    HW159539   3.990   4.295   4.547  1.3639 -1.2823 -1.5910
18969SOL    HW259540   3.922   4.184   4.624 -0.5695  0.2720 -0.9796
18970SOL     OW59541   9.998   3.166   1.211  0.4589  0.6858  0.4365
18970SOL    HW159542  10.001   3.233   1.142 -1.9597  0.4611  0.0225
18970SOL    HW259543   9.975   3.215   1.290 -0.1020  0.5253  0.3779
18971SOL     OW59544   4.958   1.161   2.984  0.2300 -0.6743  0.0593
18971SOL    HW159545   5.043   1.122   3.003  1.9713  1.1409 -3.0432
18971SOL    HW259546   4.909   1.092   2.939  0.9659 -1.0971 -0.1124
18972SOL     OW59547   1.430   0.324   8.965 -0.7807  0.0398 -0.1356
18972SOL    HW159548   1.350   0.275   8.988 -0.2484 -0.2425  1.2311
18972SOL    HW259549   1.501   0.273   9.004 -0.0385  0.9249 -0.3019
18973SOL     OW59550   7.982   1.294   7.166 -0.2861  0.4964 -0.4516
18973SOL    HW159551   7.967   1.254   7.081  0.4284  0.2080 -0.4430
18973SOL    HW259552   7.896   1.291   7.209 -0.0424 -2.1506  0.0380
18974SOL     OW59553   3.088   2.978   6.255 -0.1585  0.5193  0.4767
18974SOL    HW159554   3.184   2.982   6.257 -0.1619  0.5145  2.1543
18974SOL    HW259555   3.065   2.919   6.327 -1.4032 -0.2920 -0.5414
18975SOL     OW59556   0.158   1.665   7.965 -0.4513  0.0796 -0.0055
18975SOL    HW159557   0.172   1.759   7.976  0.3592  0.2189 -1.8150
18975SOL    HW259558   0.064   1.657   7.949 -0.7786  0.3855  1.6025
18976SOL     OW59559   7.298   4.239   6.988 -0.0125 -0.1760  0.2661
18976SOL    HW159560   7.287   4.144   6.984  1.8697 -0.4041 -1.0087
18976SOL    HW259561   7.272   4.263   7.077  1.1427 -2.1409  1.2058
18977SOL     OW59562   6.066   1.232   8.806 -0.1868 -0.3094 -0.7414
18977SOL    HW159563   6.035   1.293   8.739 -0.8740  2.1166  1.5935
18977SOL    HW259564   6.157   1.216   8.783 -0.7810 -0.7806 -3.0353
18978SOL     OW59565   6.119   9.401  10.204  0.6015 -0.6392 -0.0253
18978SOL    HW159566   6.163   9.438  10.128  0.5025 -0.7834 -0.1537
18978SOL    HW259567   6.027   9.426  10.193  0.7634  0.3072  0.6262
18979SOL     OW59568   6.649  10.126   0.438 -0.3039 -0.0424 -0.0008
18979SOL    HW159569   6.604  10.160   0.515 -0.4791  2.4187 -1.0992
18979SOL    HW259570   6.592  10.150   0.365  1.2768  0.3800 -1.1411
18980SOL     OW59571   4.024   6.168   4.845 -0.5181 -0.5030  0.3422
18980SOL    HW159572   3.949   6.198   4.896 -0.8261  0.5779 -0.7072
18980SOL    HW259573   3.991   6.094   4.795 -0.9669  0.1397 -0.3192
18981SOL     OW59574   1.243   4.319   7.655  0.0835  0.6982 -0.0300
18981SOL    HW159575   1.229   4.397   7.601  1.9216  0.2767 -1.2204
18981SOL    HW259576   1.249   4.248   7.591  0.2814 -0.1412  0.9080
18982SOL     OW59577   5.347   7.802   6.955 -0.2260 -0.0151 -0.6280
18982SOL    HW159578   5.326   7.709   6.950  0.3881 -0.4809  2.9466
18982SOL    HW259579   5.266   7.844   6.983  0.0451  0.1839 -0.1268
18983SOL     OW59580   2.312   3.184   4.762  0.1863 -0.2209  0.0149
18983SOL    HW159581   2.289   3.277   4.764  0.7439 -0.0689 -0.4028
18983SOL    HW259582   2.264   3.149   4.687  0.2287 -0.1997 -0.0224
18984SOL     OW59583   6.120   4.112   7.364 -0.0830 -0.7017  0.3676
18984SOL    HW159584   6.059   4.181   7.339  0.1943 -0.4595  0.3566
18984SOL    HW259585   6.079   4.031   7.333 -0.5792 -0.5821  0.6940
18985SOL     OW59586   2.475   3.755   7.530 -0.1683 -0.9427  0.2770
18985SOL    HW159587   2.415   3.706   7.474 -0.1496 -0.9491  0.2624
18985SOL    HW259588   2.549   3.777   7.473 -0.3906 -0.4899  0.1616
18986SOL     OW59589   7.501   2.301   2.361  0.3220  0.0893 -0.3339
18986SOL    HW159590   7.483   2.223   2.414 -0.6534 -0.2122 -1.0852
18986SOL    HW259591   7.449   2.370   2.401 -1.2103 -0.3662 -1.4328
18987SOL     OW59592   9.111   0.840   2.272  0.0259 -0.5359  0.1634
18987SOL    HW159593   9.171   0.912   2.256  0.6400 -1.0893 -0.0566
18987SOL    HW259594   9.167   0.769   2.303 -0.5428 -0.9932  0.1562
18988SOL     OW59595   6.156   9.260   8.654  0.1873  0.8839 -0.3454
18988SOL    HW159596   6.138   9.335   8.711 -0.3947 -0.4083  1.2487
18988SOL    HW259597   6.141   9.184   8.709 -0.6148 -0.4573 -2.3112
18989SOL     OW59598   6.761   6.789   8.859  0.7069 -0.1698 -0.2704
18989SOL    HW159599   6.776   6.792   8.954 -0.3431  1.2200 -0.1054
18989SOL    HW259600   6.676   6.745   8.850 -0.5842  2.1364 -0.2953
18990SOL     OW59601   5.979   5.686   4.100  0.1402 -0.2166 -0.0695
18990SOL    HW159602   5.929   5.768   4.110  0.7254  0.8267 -4.0119
18990SOL    HW259603   5.912   5.620   4.083 -0.2692 -0.4449  2.1457
18991SOL     OW59604   0.956   9.560   2.015  0.0314 -0.1326 -0.1736
18991SOL    HW159605   0.964   9.600   1.929  0.5321 -0.0125 -0.0730
18991SOL    HW259606   0.949   9.466   1.997 -2.0368  0.0334 -0.4608
18992SOL     OW59607   1.092   6.381   2.982 -0.1367 -0.7199 -0.2731
18992SOL    HW159608   1.019   6.376   2.921 -0.9045  0.7607  0.4782
18992SOL    HW259609   1.053   6.412   3.064  1.2348 -0.5192  0.3311
18993SOL     OW59610   0.985   8.414   8.999 -0.1644 -0.2710  0.6902
18993SOL    HW159611   0.890   8.428   9.001 -0.0984  0.1298  2.1713
18993SOL    HW259612   1.002   8.355   9.073  0.8564  0.4677  1.0646
18994SOL     OW59613   7.054   1.941   4.771 -0.2827  0.2817 -0.2361
18994SOL    HW159614   7.090   1.891   4.698 -2.0943  0.5074 -1.3601
18994SOL    HW259615   6.976   1.982   4.735 -0.1113  2.0665  1.3067
18995SOL     OW59616   3.312   6.981   2.865 -0.6283 -0.0171 -0.6634
18995SOL    HW159617   3.293   6.995   2.958  0.2396 -1.6691 -0.2032
18995SOL    HW259618   3.228   6.994   2.821 -0.9914  1.0719  0.2936
18996SOL     OW59619   4.015   6.483   3.541 -0.2012 -0.3149  0.2232
18996SOL    HW159620   4.004   6.408   3.599 -0.4176 -0.8518 -0.4940
18996SOL    HW259621   3.948   6.472   3.474 -0.1689  0.4694  0.0481
18997SOL     OW59622   8.929   5.115   9.587  0.6718 -0.1233  0.0397
18997SOL    HW159623   8.873   5.133   9.663  0.2328  0.5452 -0.4351
18997SOL    HW259624   9.012   5.159   9.608  0.2290  0.8859 -0.2873
18998SOL     OW59625   6.307   6.032   6.869 -0.4488 -0.1773  0.1783
18998SOL    HW159626   6.259   5.983   6.935 -0.9230 -1.4452 -1.0495
18998SOL    HW259627   6.379   6.072   6.917 -0.0311 -2.1001  1.2842
18999SOL     OW59628   3.581   7.101   7.803 -0.0189 -0.0912  0.2470
18999SOL    HW159629   3.652   7.153   7.841 -1.1545  0.2649  1.9680
18999SOL    HW259630   3.564   7.032   7.867 -0.7589 -0.5981 -0.4704
19000SOL     OW59631   4.767   6.392   7.080 -0.2457 -0.2887 -0.1766
19000SOL    HW159632   4.700   6.381   7.012 -0.1905 -0.7122 -0.1629
19000SOL    HW259633   4.846   6.354   7.043 -0.2307 -0.5842  0.1516
19001SOL     OW59634   0.328   0.461   6.603  0.2096  0.4635 -0.4216
19001SOL    HW159635   0.341   0.555   6.617 -0.7150  0.4557  0.5898
19001SOL    HW259636   0.296   0.428   6.687  0.0981 -0.6804 -0.8946
19002SOL     OW59637   6.394   9.828   7.210  0.5705  1.0127  0.4562
19002SOL    HW159638   6.421   9.739   7.186 -1.0829  0.9586 -1.4485
19002SOL    HW259639   6.437   9.844   7.294  3.5499 -0.3408 -0.6487
19003SOL     OW59640   8.324   4.530   3.395  0.1712 -0.2171 -0.4530
19003SOL    HW159641   8.341   4.589   3.469  1.6093 -0.3424 -0.6501
19003SOL    HW259642   8.245   4.483   3.420 -0.6500  1.3278 -0.0101
19004SOL     OW59643   4.947   4.592   8.727 -0.1901  0.1232 -0.4786
19004SOL    HW159644   4.870   4.630   8.769  0.7739  1.0513  0.5360
19004SOL    HW259645   4.925   4.500   8.713 -0.4696 -0.3043  2.3384
19005SOL     OW59646   1.607   7.514   2.886 -0.0249 -0.0745 -0.0542
19005SOL    HW159647   1.545   7.473   2.946 -0.1748  0.4216  0.1385
19005SOL    HW259648   1.639   7.591   2.933 -0.1103  0.2972 -0.5807
19006SOL     OW59649   9.331   7.234   4.695  0.5821  0.1825  0.6505
19006SOL    HW159650   9.315   7.320   4.655 -1.1374 -1.3298 -2.1785
19006SOL    HW259651   9.423   7.216   4.676  0.4079  0.5310 -0.6100
19007SOL     OW59652   8.128   7.218   1.515 -0.2783  0.2991  0.1055
19007SOL    HW159653   8.111   7.207   1.422 -0.7076  0.0661  0.2111
19007SOL    HW259654   8.171   7.137   1.542 -4.5033 -1.9000  1.1411
19008SOL     OW59655   4.762   6.270   2.615  0.2590 -0.2594 -0.1002
19008SOL    HW159656   4.731   6.200   2.558 -0.0504 -1.0325  0.9803
19008SOL    HW259657   4.697   6.275   2.684  0.8712  0.3164  0.4457
19009SOL     OW59658   8.742   8.123   8.822 -0.0055  0.0114  0.0609
19009SOL    HW159659   8.743   8.178   8.901 -0.0400 -0.4355  0.3766
19009SOL    HW259660   8.752   8.034   8.855  1.2872 -0.0831 -0.5351
19010SOL     OW59661   3.830   7.881   7.669 -0.5461  0.0773  0.2540
19010SOL    HW159662   3.923   7.873   7.648 -0.6021 -1.7469  0.5173
19010SOL    HW259663   3.795   7.942   7.604  0.7731  0.6048  0.0147
19011SOL     OW59664   3.335   8.723   2.468 -0.5434  0.1027  0.3508
19011SOL    HW159665   3.339   8.811   2.430 -1.3901 -0.4103 -0.9783
19011SOL    HW259666   3.420   8.684   2.444 -0.5743  0.2099  0.0557
19012SOL     OW59667   2.103   9.545   9.706 -0.3915 -0.4395  0.5340
19012SOL    HW159668   2.095   9.473   9.643  1.4427  0.4073 -0.7555
19012SOL    HW259669   2.172   9.517   9.766  1.7500  0.9168 -1.1236
19013SOL     OW59670   7.656   1.881   4.762 -0.1551  0.1491 -0.4041
19013SOL    HW159671   7.639   1.956   4.818  0.8503 -1.2644  1.9455
19013SOL    HW259672   7.751   1.883   4.746 -0.0678 -0.7498 -0.0781
19014SOL     OW59673   0.500   0.096   9.138  0.0654 -0.7806 -0.1716
19014SOL    HW159674   0.409   0.069   9.151 -0.6261  0.4833 -1.9380
19014SOL    HW259675   0.551   0.033   9.188 -1.7963 -1.2360  1.2730
19015SOL     OW59676   6.270   1.080   7.184 -0.2509  0.3612 -0.0130
19015SOL    HW159677   6.269   0.988   7.159 -1.0413  0.5157 -0.5609
19015SOL    HW259678   6.303   1.080   7.274 -0.5911 -0.4909  0.1143
19016SOL     OW59679   4.507   8.412   8.896  0.2087  0.7391 -0.4159
19016SOL    HW159680   4.581   8.417   8.955 -0.7938 -0.2129  0.9692
19016SOL    HW259681   4.440   8.468   8.937 -0.4690  0.1425 -0.6916
19017SOL     OW59682   4.081   3.671   5.930 -0.1799 -0.2868  0.2209
19017SOL    HW159683   4.157   3.621   5.958 -0.8355 -0.2807  2.1089
19017SOL    HW259684   4.044   3.620   5.858  0.6477 -1.1474  0.3952
19018SOL     OW59685   8.113   9.472   4.365 -0.0049  0.1154  0.4593
19018SOL    HW159686   8.081   9.486   4.276  0.4996  0.2530  0.2940
19018SOL    HW259687   8.165   9.550   4.385  0.3540 -0.1672  0.6603
19019SOL     OW59688   2.119   4.536   1.184 -0.4343  0.1166 -0.1090
19019SOL    HW159689   2.126   4.631   1.189 -0.7451  0.0749  3.1990
19019SOL    HW259690   2.203   4.507   1.148  0.5418  1.5474  0.9246
19020SOL     OW59691   0.152   8.975   1.253 -0.1663  0.0778  0.4132
19020SOL    HW159692   0.234   8.948   1.212 -0.0009  0.0856  0.7287
19020SOL    HW259693   0.107   9.028   1.187 -0.1466 -0.3412  0.0592
19021SOL     OW59694   8.569   5.410   1.023  0.0647 -0.6722  0.5117
19021SOL    HW159695   8.600   5.396   1.113 -0.9261 -2.1390  0.6668
19021SOL    HW259696   8.478   5.382   1.025  0.6753 -3.1904 -1.5055
19022SOL     OW59697   2.696   6.173   7.134 -0.3417  0.2702  0.3569
19022SOL    HW159698   2.725   6.170   7.225 -0.1268 -3.5415  0.3137
19022SOL    HW259699   2.749   6.106   7.090 -1.1151  1.3298 -2.3799
19023SOL     OW59700   7.012   2.527   8.292  0.2017  0.7678  0.2069
19023SOL    HW159701   6.996   2.606   8.242  0.0603  0.3091 -0.4921
19023SOL    HW259702   6.989   2.456   8.232  1.3078  0.1732  0.4636
19024SOL     OW59703   6.933   3.135   3.500 -0.5271  0.5069  0.3202
19024SOL    HW159704   7.005   3.099   3.450 -0.0606  0.6555  0.8682
19024SOL    HW259705   6.855   3.114   3.449 -0.0029  1.4153 -0.9054
19025SOL     OW59706   1.072   2.209   1.091 -0.2629  0.2784 -0.0352
19025SOL    HW159707   1.147   2.238   1.142 -1.1532  1.9393  0.3781
19025SOL    HW259708   1.057   2.118   1.119  0.1347  0.6929  1.6180
19026SOL     OW59709   6.608   2.666   4.290 -0.1105  0.2799 -0.3616
19026SOL    HW159710   6.630   2.704   4.205  1.4079 -0.2947 -0.2675
19026SOL    HW259711   6.544   2.598   4.270 -0.8860  1.1293 -0.8434
19027SOL     OW59712   8.218   4.483   1.448 -0.3553  0.5999 -0.4240
19027SOL    HW159713   8.286   4.500   1.383 -0.3406  0.0276 -0.5671
19027SOL    HW259714   8.182   4.397   1.424 -0.5403  0.5064  0.1531
19028SOL     OW59715   4.664   8.126   6.885 -0.2303  0.7833 -0.1711
19028SOL    HW159716   4.674   8.200   6.944  1.5580  0.1836  0.3320
19028SOL    HW259717   4.579   8.088   6.908  1.1884 -0.6505  3.5214
19029SOL     OW59718   9.286  10.169   8.283 -0.0381  0.8527 -0.2259
19029SOL    HW159719   9.349  10.134   8.346 -1.0115  0.0358  0.3250
19029SOL    HW259720   9.294  10.264   8.291  1.7109  0.7849 -0.7809
19030SOL     OW59721   4.341   4.988   5.799  0.1986 -0.4637  0.4610
19030SOL    HW159722   4.431   5.016   5.780  0.3771 -1.0836  0.3721
19030SOL    HW259723   4.295   5.069   5.822  0.9106 -0.2032  1.0075
19031SOL     OW59724   1.525   7.351   9.991  0.2001  0.9944  0.0476
19031SOL    HW159725   1.458   7.397  10.041  0.0267 -0.8044  1.5707
19031SOL    HW259726   1.489   7.263   9.977  1.1109  0.8314 -1.5020
19032SOL     OW59727   7.125   9.313   4.132 -0.0459 -0.1180  0.1710
19032SOL    HW159728   7.073   9.278   4.060 -0.8409 -1.1440  1.2089
19032SOL    HW259729   7.203   9.257   4.135 -0.0593 -0.1356  0.1820
19033SOL     OW59730   4.665   2.556   8.553 -0.7704  0.7906 -0.3016
19033SOL    HW159731   4.647   2.504   8.630  1.7948  1.2780  0.7229
19033SOL    HW259732   4.669   2.493   8.481 -0.5781 -0.0331  0.4221
19034SOL     OW59733   1.786   6.955   6.770  0.0138  0.2486  0.1699
19034SOL    HW159734   1.851   6.943   6.839  1.4234  0.5474 -1.0423
19034SOL    HW259735   1.801   6.883   6.709 -0.6684  0.4295 -0.2302
19035SOL     OW59736   6.711   7.069   2.049  0.9672 -0.0273 -0.0961
19035SOL    HW159737   6.738   7.148   2.096  0.9530 -0.9451  1.5567
19035SOL    HW259738   6.777   7.058   1.981  0.1744  2.1609 -1.3009
19036SOL     OW59739   6.030   0.974   4.873 -0.3758  0.1260 -0.1266
19036SOL    HW159740   6.026   0.914   4.798 -0.3784 -1.4803  1.1297
19036SOL    HW259741   6.041   0.918   4.949  2.2946  1.8525  0.8987
19037SOL     OW59742   1.042   7.055   0.708  0.0224  0.5315 -0.1195
19037SOL    HW159743   1.029   7.150   0.698  0.4528  0.7926  1.5342
19037SOL    HW259744   1.132   7.041   0.678  0.1971  0.7672  0.2851
19038SOL     OW59745   4.322   5.537   3.656  0.0982 -0.1634 -0.5761
19038SOL    HW159746   4.299   5.574   3.741 -0.5511  3.0562 -1.9931
19038SOL    HW259747   4.416   5.556   3.647 -0.4798  2.5833 -1.8183
19039SOL     OW59748   2.635  10.116   7.394 -0.2116 -0.0283  0.5060
19039SOL    HW159749   2.688  10.136   7.318 -0.7716  0.6375  0.2814
19039SOL    HW259750   2.585  10.196   7.411  0.0623 -0.0922  1.7071
19040SOL     OW59751   4.116   3.422  10.249 -0.9917  0.3878 -0.8208
19040SOL    HW159752   4.137   3.398  10.339  0.7906 -1.4563 -1.6433
19040SOL    HW259753   4.162   3.505  10.235 -1.4588  0.8017  0.0070
19041SOL     OW59754   5.146   2.491   2.095  0.7382  0.4820  0.1143
19041SOL    HW159755   5.059   2.518   2.125  1.7339  2.2794  1.5592
19041SOL    HW259756   5.200   2.568   2.105  2.9255 -1.0706  0.9595
19042SOL     OW59757   2.959   4.935   3.856 -0.3211  0.0634 -0.1270
19042SOL    HW159758   2.984   4.967   3.770  1.4330  0.4877  0.4888
19042SOL    HW259759   2.916   4.851   3.839 -1.0516  0.6760 -1.4602
19043SOL     OW59760   1.502   0.208  10.048  0.3598  0.2429  0.0878
19043SOL    HW159761   1.558   0.135  10.020  1.8027  0.9678  1.0063
19043SOL    HW259762   1.441   0.168  10.110  2.2308  0.0693  1.9159
19044SOL     OW59763   9.258   0.725   2.780  0.2230 -0.0790 -0.0322
19044SOL    HW159764   9.195   0.657   2.805 -0.1521  0.3125  0.1090
19044SOL    HW259765   9.211   0.779   2.717  1.4422 -1.5555 -2.3140
19045SOL     OW59766   6.716   8.702   2.623  0.3947 -0.1334  0.6030
19045SOL    HW159767   6.674   8.626   2.583  0.5055  0.5261 -0.8493
19045SOL    HW259768   6.670   8.715   2.706 -0.5626 -0.9392  0.2156
19046SOL     OW59769   6.843   5.224   0.959  0.3006  0.3687  0.2102
19046SOL    HW159770   6.758   5.264   0.942  0.3327  0.8817  1.2341
19046SOL    HW259771   6.898   5.253   0.886  0.1058  1.5482  0.5208
19047SOL     OW59772   9.546   1.835   4.898 -0.4509  0.2698 -0.2943
19047SOL    HW159773   9.619   1.775   4.882  0.1797  0.8655  0.3139
19047SOL    HW259774   9.541   1.888   4.819 -2.3519 -1.8919 -1.7677
19048SOL     OW59775   6.979   5.302   8.702  0.6532 -0.0489  0.2721
19048SOL    HW159776   6.997   5.264   8.616 -1.0914  2.4262 -1.3276
19048SOL    HW259777   7.053   5.276   8.756  0.6290 -3.8036 -1.1995
19049SOL     OW59778   4.785   7.816   5.497  0.5124 -0.1179 -0.2596
19049SOL    HW159779   4.793   7.763   5.418  0.5809  0.5488 -0.7127
19049SOL    HW259780   4.698   7.855   5.492  0.5140 -0.0778 -0.0026
19050SOL     OW59781   8.977  10.090   3.871 -0.0984 -0.0257 -0.3297
19050SOL    HW159782   8.932  10.171   3.849  1.6644  0.8817 -0.7606
19050SOL    HW259783   8.925  10.021   3.829 -1.0432  0.9795 -0.8336
19051SOL     OW59784   9.590   9.663   5.433 -0.0432  0.4835  0.7150
19051SOL    HW159785   9.529   9.703   5.371 -1.6542 -0.8235  1.3892
19051SOL    HW259786   9.591   9.722   5.508 -0.9026  0.2455  0.9183
19052SOL     OW59787   8.480   9.041   3.948 -0.0768  0.3134  0.6120
19052SOL    HW159788   8.534   8.967   3.975 -0.3733  0.2152  0.9393
19052SOL    HW259789   8.503   9.055   3.856  2.5366  1.9841  1.4095
19053SOL     OW59790   1.983   1.502   4.845 -0.9371  0.3990  0.3361
19053SOL    HW159791   2.054   1.553   4.807 -0.6606 -1.3370 -1.6305
19053SOL    HW259792   2.027   1.441   4.905 -0.7194 -0.6951 -0.9027
19054SOL     OW59793   6.967   2.826   7.670  0.1847 -0.3196  0.0354
19054SOL    HW159794   7.000   2.785   7.590  0.4769  0.9895 -0.5408
19054SOL    HW259795   6.883   2.863   7.645 -0.5772 -1.4553  0.8334
19055SOL     OW59796   1.966   3.001   6.341  0.0371  0.5626  0.1073
19055SOL    HW159797   2.014   2.964   6.267 -0.9456  1.5566 -1.0514
19055SOL    HW259798   2.032   3.049   6.391  0.7995 -0.5058  0.1544
19056SOL     OW59799   6.969   8.937   6.959  0.3096 -0.2935 -0.1293
19056SOL    HW159800   7.011   8.890   6.887 -1.7022 -0.9662 -0.9373
19056SOL    HW259801   6.878   8.906   6.958 -0.6047  2.1496  0.5876
19057SOL     OW59802   8.382   5.287   9.335 -0.3065 -0.2398 -0.5477
19057SOL    HW159803   8.293   5.258   9.316 -1.3009  1.6307  0.9554
19057SOL    HW259804   8.374   5.341   9.414  2.0279  0.7316 -0.8820
19058SOL     OW59805   0.242  10.357   3.450  0.0679  0.2722 -0.2273
19058SOL    HW159806   0.255  10.448   3.424  1.4729  0.1530 -0.0077
19058SOL    HW259807   0.194  10.362   3.533  0.2356  0.8094 -0.1614
19059SOL     OW59808   2.472   8.553   7.766  0.4675  0.1583  0.2172
19059SOL    HW159809   2.415   8.614   7.812 -0.2010 -0.1294 -0.2132
19059SOL    HW259810   2.413   8.486   7.731  0.9498  0.3291 -0.9955
19060SOL     OW59811   7.791   1.476   3.477 -0.2785  0.3548 -0.0715
19060SOL    HW159812   7.805   1.471   3.572 -1.6268  1.2957  0.2034
19060SOL    HW259813   7.712   1.529   3.467 -0.4460 -0.1417 -1.7127
19061SOL     OW59814   9.429   3.932   5.585  0.1322 -0.4592  0.2628
19061SOL    HW159815   9.358   3.937   5.650  0.6701 -1.6030  0.9846
19061SOL    HW259816   9.443   4.022   5.557 -1.0046 -0.1082  0.7713
19062SOL     OW59817   8.063   8.238   0.753  0.1473  0.3299  0.4168
19062SOL    HW159818   8.062   8.142   0.748  0.3525  0.3224  0.5529
19062SOL    HW259819   8.086   8.257   0.844 -0.0818  0.5085  0.4383
19063SOL     OW59820   6.761   4.259   2.936 -0.1626 -0.0645 -0.2679
19063SOL    HW159821   6.844   4.303   2.952  0.4912 -1.7871  1.5127
19063SOL    HW259822   6.701   4.294   3.002 -0.9288  1.1904 -1.5594
19064SOL     OW59823   8.516   4.567   8.064  0.0195 -0.3953  0.3553
19064SOL    HW159824   8.518   4.618   7.983 -1.0514  1.2554  1.3109
19064SOL    HW259825   8.440   4.509   8.054  0.2980 -0.6875 -0.0906
19065SOL     OW59826   0.198   8.226  10.186  0.4057 -0.0542  0.4188
19065SOL    HW159827   0.265   8.289  10.213 -1.6914  2.0954  1.0112
19065SOL    HW259828   0.216   8.209  10.093  2.0286  0.0657  0.6932
19066SOL     OW59829   4.363   8.205   5.909  0.2750 -0.2620  0.3914
19066SOL    HW159830   4.425   8.184   5.979 -1.0746 -1.5518  1.2614
19066SOL    HW259831   4.294   8.255   5.953  0.1324  0.2063 -0.3406
19067SOL     OW59832   4.151   8.212   3.523 -0.1449  0.4974 -0.2361
19067SOL    HW159833   4.144   8.217   3.618 -0.7753 -0.3074 -0.2200
19067SOL    HW259834   4.145   8.303   3.493 -0.8076  0.6898  0.4494
19068SOL     OW59835   3.071   5.925   7.258 -0.1687 -0.3183  0.0686
19068SOL    HW159836   3.154   5.881   7.239 -0.4669 -2.0132  2.2734
19068SOL    HW259837   3.094   5.993   7.321 -0.3253 -0.1964 -0.0043
19069SOL     OW59838   3.476   7.205   8.509  0.4516 -0.0643 -0.4269
19069SOL    HW159839   3.397   7.153   8.522  0.7584 -1.3148 -2.9736
19069SOL    HW259840   3.543   7.158   8.559 -0.1189  0.3416  0.7659
19070SOL     OW59841   0.062   1.421   1.837  0.1651  0.1958 -0.0358
19070SOL    HW159842   0.094   1.349   1.782  1.0980 -0.0161  0.7523
19070SOL    HW259843   0.063   1.385   1.926 -1.0805  0.6135  0.1612
19071SOL     OW59844   7.176   6.912   9.222 -0.2406 -0.2922 -0.2002
19071SOL    HW159845   7.136   6.905   9.135 -0.1839 -0.5047 -0.2119
19071SOL    HW259846   7.144   6.995   9.257 -0.2537 -0.2004 -0.4298
19072SOL     OW59847   7.693   3.423   6.305 -0.2510  0.1546 -0.2560
19072SOL    HW159848   7.642   3.408   6.385  1.4785  1.3124  1.1131
19072SOL    HW259849   7.684   3.340   6.256 -2.0094 -0.2814  0.6991
19073SOL     OW59850   9.963   1.896   0.391  0.0284 -0.0303 -0.4812
19073SOL    HW159851  10.016   1.824   0.357  0.6387  0.5653 -0.8269
19073SOL    HW259852   9.883   1.894   0.340 -1.2701 -2.2613  1.4450
19074SOL     OW59853   9.435   4.682   0.436  0.3698 -0.3309 -0.2328
19074SOL    HW159854   9.473   4.680   0.524  0.0495 -0.9687 -0.1005
19074SOL    HW259855   9.467   4.601   0.395 -0.8419 -0.8801 -0.1207
19075SOL     OW59856   4.897   1.842  10.295  0.3245 -0.1588 -0.3500
19075SOL    HW159857   4.975   1.894  10.275 -0.9285  1.9923 -0.0216
19075SOL    HW259858   4.847   1.841  10.213  0.7809 -1.7481 -0.6342
19076SOL     OW59859   7.166   9.469   6.646  0.1632  0.1038 -0.4200
19076SOL    HW159860   7.210   9.504   6.568  0.7698 -0.5801 -0.3913
19076SOL    HW259861   7.107   9.402   6.612  1.6898 -1.4420 -0.1810
19077SOL     OW59862   1.034   1.917   6.419 -0.1041  0.7601  0.6244
19077SOL    HW159863   0.951   1.925   6.467  0.3221  2.2436  1.1559
19077SOL    HW259864   1.080   1.845   6.462 -1.5333 -0.8612 -0.3793
19078SOL     OW59865   1.396   3.214   4.247 -0.1961  0.1515  0.4155
19078SOL    HW159866   1.308   3.234   4.279  0.5058  1.1379  1.8294
19078SOL    HW259867   1.452   3.222   4.324  0.9311 -2.1423 -0.0722
19079SOL     OW59868   8.468   3.323   6.483  0.2656  0.0436 -0.4152
19079SOL    HW159869   8.444   3.244   6.436  1.6290  0.2230 -1.4495
19079SOL    HW259870   8.527   3.370   6.425  1.9550  0.3247  1.3966
19080SOL     OW59871   3.056   0.587   9.731 -0.4095  0.4654 -0.2955
19080SOL    HW159872   3.115   0.513   9.742 -2.2391 -0.9507  0.6392
19080SOL    HW259873   3.075   0.644   9.805 -0.1375  0.0766 -0.0586
19081SOL     OW59874   8.137   2.398   6.796  0.4775  0.0291  0.5702
19081SOL    HW159875   8.126   2.480   6.748 -0.4070  0.7389  1.9227
19081SOL    HW259876   8.104   2.417   6.884  0.6853 -1.6496  1.0455
19082SOL     OW59877   0.429   8.363  10.249 -0.1926 -0.0097  0.1113
19082SOL    HW159878   0.402   8.455  10.247  1.0832  0.4322  1.8439
19082SOL    HW259879   0.505   8.359  10.191  0.4750  0.3004  0.9461
19083SOL     OW59880   6.402   6.595   7.413  0.2686 -0.0186  0.1483
19083SOL    HW159881   6.365   6.529   7.470  0.2989  1.1149  1.5243
19083SOL    HW259882   6.468   6.639   7.466 -0.6988  2.0240 -0.2238
19084SOL     OW59883   3.157  10.357   9.235  0.1932 -0.3535 -0.1381
19084SOL    HW159884   3.232  10.416   9.248 -0.5133  0.1817  1.9126
19084SOL    HW259885   3.082  10.416   9.224 -0.2511 -0.8583  0.1475
19085SOL     OW59886   3.974   8.306   1.314  0.5723 -0.0564  0.0330
19085SOL    HW159887   3.964   8.348   1.400  1.4437  0.6901 -0.2122
19085SOL    HW259888   3.992   8.378   1.254  1.0398 -0.6767 -0.5910
19086SOL     OW59889   6.961   0.195   9.952 -0.2288 -0.0771 -0.4453
19086SOL    HW159890   6.943   0.106   9.981 -1.0741  0.0948 -0.4120
19086SOL    HW259891   7.056   0.201   9.948 -0.1671 -1.3833 -1.6599
19087SOL     OW59892   0.932   1.818   0.325 -0.2847  0.0314 -0.0884
19087SOL    HW159893   0.851   1.803   0.373  0.8655 -1.9137  1.4082
19087SOL    HW259894   0.933   1.750   0.258  0.8118 -1.0133  0.9405
19088SOL     OW59895   7.867   2.339   8.780 -0.2536  0.1929 -0.1003
19088SOL    HW159896   7.945   2.285   8.792 -0.1851  0.1396 -0.7896
19088SOL    HW259897   7.872   2.403   8.851  0.1107 -0.1669  0.2068
19089SOL     OW59898   1.497   4.612   1.634 -0.5160 -0.3208  0.6809
19089SOL    HW159899   1.567   4.603   1.570 -0.9174 -2.2506  0.4458
19089SOL    HW259900   1.432   4.668   1.592 -0.0481 -0.2239  0.0811
19090SOL     OW59901   6.588   9.359   2.746 -0.4632  0.2612 -0.4262
19090SOL    HW159902   6.675   9.334   2.776  0.3549  0.9807 -2.0686
19090SOL    HW259903   6.551   9.279   2.709  0.0502  0.2638 -0.9477
19091SOL     OW59904   1.776   4.457   4.095 -0.1821  0.1888  0.2045
19091SOL    HW159905   1.738   4.447   4.008 -1.4219  1.1703  0.6010
19091SOL    HW259906   1.847   4.521   4.082 -0.4246  0.4061 -0.0730
19092SOL     OW59907   0.868   3.751   4.606  0.3804 -0.1892  0.3510
19092SOL    HW159908   0.799   3.762   4.671  2.0707 -0.2511  2.2436
19092SOL    HW259909   0.861   3.829   4.550 -0.6276  0.2453  1.0615
19093SOL     OW59910   0.542   5.807   8.387  0.0237 -0.3139  0.1706
19093SOL    HW159911   0.536   5.796   8.292  0.3907  0.3989  0.0634
19093SOL    HW259912   0.452   5.798   8.418 -0.2709  0.6543 -0.3767
19094SOL     OW59913   3.961   9.354   0.790 -0.5356  0.2682  0.0743
19094SOL    HW159914   4.005   9.274   0.760 -1.4709 -0.0012 -0.6464
19094SOL    HW259915   3.983   9.360   0.883  0.5596 -0.1442 -0.1461
19095SOL     OW59916   1.387   9.732   1.468 -0.1025 -1.1183  0.2557
19095SOL    HW159917   1.443   9.724   1.545  0.8216  1.2688 -0.0765
19095SOL    HW259918   1.383   9.826   1.450 -3.0074 -1.3055 -0.6788
19096SOL     OW59919   2.510   8.079   6.196  0.6393 -0.2503 -0.1891
19096SOL    HW159920   2.605   8.091   6.187  0.7244 -0.2602  0.6506
19096SOL    HW259921   2.487   8.129   6.274  0.2861 -1.9299  0.8222
19097SOL     OW59922   5.054  10.230   5.965  0.5667 -0.0096 -0.2025
19097SOL    HW159923   5.022  10.250   6.053  0.7381  0.7025 -0.3025
19097SOL    HW259924   5.126  10.168   5.980  1.3752  1.0203  0.2405
19098SOL     OW59925   2.361  10.184   0.619 -0.0973  0.0850 -0.7063
19098SOL    HW159926   2.429  10.239   0.660 -0.4397  0.5573 -0.7622
19098SOL    HW259927   2.342  10.117   0.685  1.3908 -0.8799 -1.2212
19099SOL     OW59928   7.652   7.782   5.845  0.1138  0.0061  0.5723
19099SOL    HW159929   7.601   7.819   5.918 -0.0145 -1.0494  1.0345
19099SOL    HW259930   7.743   7.793   5.872  0.0944  0.4517  0.4675
19100SOL     OW59931   1.026   1.742   1.644  0.4366 -0.1609 -0.9236
19100SOL    HW159932   1.043   1.766   1.735 -0.8474  0.4257 -0.8207
19100SOL    HW259933   1.003   1.649   1.648 -2.1179  0.4257 -0.2582
19101SOL     OW59934   3.906   8.444   5.207 -0.0033  0.0937  0.5137
19101SOL    HW159935   3.859   8.460   5.289 -0.3614 -2.3216  0.8312
19101SOL    HW259936   3.907   8.349   5.198  1.0251  0.2675 -1.7278
19102SOL     OW59937   5.308   6.112   8.271  0.0647 -0.2683 -0.5139
19102SOL    HW159938   5.275   6.200   8.251  3.0658  1.1527  0.1819
19102SOL    HW259939   5.342   6.080   8.187  0.2613 -0.1333 -0.4877
19103SOL     OW59940   8.864   7.294   8.198  0.2498 -0.0290  0.1276
19103SOL    HW159941   8.827   7.351   8.266  1.8742  0.5705  0.5738
19103SOL    HW259942   8.959   7.305   8.208  0.5394  0.1881 -2.3526
19104SOL     OW59943   8.233   1.651   7.130  0.2681  0.0460  0.6166
19104SOL    HW159944   8.144   1.618   7.130  0.0395  0.5501 -1.0003
19104SOL    HW259945   8.252   1.671   7.222 -1.6826  1.0008  0.8586
19105SOL     OW59946  10.089   5.399   9.812 -0.0994  0.0801 -0.2559
19105SOL    HW159947  10.102   5.306   9.830 -2.3185 -0.2502 -0.1465
19105SOL    HW259948  10.102   5.407   9.717  3.4715  0.3646  0.1013
19106SOL     OW59949   2.084   7.836   0.359 -0.0070 -0.0744 -0.4398
19106SOL    HW159950   2.131   7.820   0.277 -2.6267  1.2708 -2.3820
19106SOL    HW259951   2.152   7.850   0.424  2.2162 -0.8017 -2.4687
19107SOL     OW59952   3.296   8.561   6.514  0.2051 -0.2267  0.1825
19107SOL    HW159953   3.291   8.490   6.451  1.9999 -1.4106  1.2959
19107SOL    HW259954   3.209   8.563   6.555 -0.6463 -0.1182 -1.5291
19108SOL     OW59955   6.204   5.401   2.109 -0.1832  0.0209 -0.4853
19108SOL    HW159956   6.252   5.324   2.140 -1.5646 -0.4311  0.5702
19108SOL    HW259957   6.188   5.382   2.016  1.6951  0.2207 -0.9053
19109SOL     OW59958   5.082   7.449   0.639 -0.0936 -0.1041 -0.1154
19109SOL    HW159959   5.079   7.403   0.723  0.1846 -0.9946 -0.5886
19109SOL    HW259960   5.102   7.540   0.663  0.1996 -0.3877  0.7715
19110SOL     OW59961   7.823  10.020   0.385 -0.2841 -0.3229  0.0301
19110SOL    HW159962   7.904   9.982   0.350 -0.5125 -0.9737  0.2054
19110SOL    HW259963   7.828  10.113   0.361  1.7341  0.2354  2.2424
19111SOL     OW59964   5.545   4.282   1.873 -0.4500  0.0876  0.2776
19111SOL    HW159965   5.579   4.351   1.930 -0.0428 -0.4305  0.6660
19111SOL    HW259966   5.463   4.255   1.914 -0.5887  0.3070  0.1483
19112SOL     OW59967   1.441   6.019   1.876  1.0081  0.1010 -0.7882
19112SOL    HW159968   1.495   5.952   1.833  0.2360 -0.0865 -1.4984
19112SOL    HW259969   1.421   6.082   1.806 -0.0381 -0.0565 -0.6426
19113SOL     OW59970   1.845   2.666   8.676 -0.1242  0.2096  0.1160
19113SOL    HW159971   1.819   2.737   8.735 -0.8980  0.0569 -0.0406
19113SOL    HW259972   1.940   2.675   8.670 -0.0452  0.3267  1.2550
19114SOL     OW59973   7.527   1.586   9.672 -0.4643  0.1353 -0.2089
19114SOL    HW159974   7.518   1.631   9.756  0.2233  2.0550 -1.0956
19114SOL    HW259975   7.439   1.591   9.632 -0.2109  1.5406 -0.6587
19115SOL     OW59976   4.295   0.366   1.199 -0.2279  0.3619  0.5875
19115SOL    HW159977   4.304   0.412   1.283  0.7252  0.5638  0.3904
19115SOL    HW259978   4.225   0.303   1.213 -0.2505  0.5705  1.4592
19116SOL     OW59979   4.846   7.818   0.000 -0.3672  0.4238  0.1858
19116SOL    HW159980   4.830   7.913   0.000  0.2903  0.7621 -4.2998
19116SOL    HW259981   4.768   7.782  -0.043  0.0029 -0.9532  0.6387
19117SOL     OW59982   9.217   2.287   6.718 -0.0495 -0.6801  0.3032
19117SOL    HW159983   9.295   2.251   6.761  0.1296  0.5955  1.1201
19117SOL    HW259984   9.147   2.225   6.740  0.2667 -0.6255  1.5686
19118SOL     OW59985   6.911   8.724   5.369  0.1879  0.6518 -0.0504
19118SOL    HW159986   6.847   8.793   5.389 -1.2334 -1.1750  2.1291
19118SOL    HW259987   6.979   8.734   5.435 -0.3292 -0.3400  0.6629
19119SOL     OW59988   9.314   0.732   8.488  1.2003 -0.6778 -0.2199
19119SOL    HW159989   9.281   0.807   8.537  0.0224 -1.8120  0.8181
19119SOL    HW259990   9.404   0.754   8.467  0.4020  1.7439 -1.4718
19120SOL     OW59991   5.426   8.403   9.534  0.3460 -0.2773 -0.3648
19120SOL    HW159992   5.354   8.452   9.493 -0.2208 -0.3513  0.5014
19120SOL    HW259993   5.417   8.422   9.628  1.9537  0.3528 -0.3109
19121SOL     OW59994   8.317   8.346   3.954  0.3176  0.2735  0.2719
19121SOL    HW159995   8.227   8.349   3.922  0.1220  0.2458  0.8164
19121SOL    HW259996   8.335   8.253   3.968  0.9046  0.1454 -1.1373
19122SOL     OW59997   7.939   1.531   9.753  0.0603 -0.3626 -0.0528
19122SOL    HW159998   7.924   1.482   9.834 -2.8877  0.2872 -0.1254
19122SOL    HW259999   7.977   1.467   9.693 -1.5852 -1.9887  0.5628
19123SOL     OW60000   8.330   2.984   5.681 -0.2723  0.3987  0.8829
19123SOL    HW160001   8.379   3.063   5.656  1.0491 -0.3437  1.0130
19123SOL    HW260002   8.376   2.913   5.637 -1.7786 -0.2494  0.3332
19124SOL     OW60003   9.555   7.422   3.831 -0.3853 -0.0982 -0.6592
19124SOL    HW160004   9.637   7.469   3.845  1.1888 -2.5781 -0.8674
19124SOL    HW260005   9.487   7.482   3.860  1.4909  2.0425 -0.4377
19125SOL     OW60006   4.191   8.477   2.205  0.6851  0.0211 -0.0830
19125SOL    HW160007   4.217   8.424   2.280  1.1912  0.9088  0.3937
19125SOL    HW260008   4.096   8.485   2.213  0.4919 -1.4917 -0.6417
19126SOL     OW60009   8.087   2.202   5.841 -0.1812 -0.0599  0.8276
19126SOL    HW160010   8.014   2.261   5.822 -1.1461 -0.3418  3.2410
19126SOL    HW260011   8.060   2.117   5.805  0.3197  0.4894 -0.8955
19127SOL     OW60012   8.799   1.494   4.720 -0.0981 -0.0702 -0.1128
19127SOL    HW160013   8.767   1.415   4.676  0.5823  0.6369 -1.9911
19127SOL    HW260014   8.850   1.539   4.653  1.9923  0.5306  1.7816
19128SOL     OW60015   2.701   0.617   9.535 -0.2812  0.2853  0.1918
19128SOL    HW160016   2.682   0.539   9.587  0.6697 -0.0103  0.1264
19128SOL    HW260017   2.637   0.616   9.464  1.4452 -2.0371 -1.4927
19129SOL     OW60018   9.739   8.355   4.685 -0.3863  0.2806 -0.0068
19129SOL    HW160019   9.683   8.324   4.756  1.0284  2.0875  2.0014
19129SOL    HW260020   9.772   8.275   4.644 -2.8708 -0.8200 -0.0923
19130SOL     OW60021   3.684   9.315   0.167  0.0896 -0.4755 -0.5291
19130SOL    HW160022   3.779   9.322   0.176  0.0199 -0.8171  0.6876
19130SOL    HW260023   3.656   9.402   0.137  0.7578 -0.2926 -0.6316
19131SOL     OW60024   3.896   3.290   9.202 -0.3826 -0.0138  0.3915
19131SOL    HW160025   3.937   3.217   9.249  1.5447  0.2237 -0.8203
19131SOL    HW260026   3.907   3.365   9.260  0.1288 -0.1346  0.4534
19132SOL     OW60027   0.532   0.051   1.235  0.1291 -0.0456 -0.5213
19132SOL    HW160028   0.510   0.144   1.238 -1.1579 -0.3003 -1.2525
19132SOL    HW260029   0.561   0.036   1.145  0.2439 -0.3848 -0.4313
19133SOL     OW60030   1.501   2.611   0.229 -0.0648 -0.1841  0.0378
19133SOL    HW160031   1.434   2.611   0.297  0.5687  0.2091  0.6719
19133SOL    HW260032   1.485   2.690   0.179 -1.3399 -1.1264 -1.0981
19134SOL     OW60033   3.786   7.356   8.433  0.6466  0.7112  0.2117
19134SOL    HW160034   3.753   7.376   8.346  0.1916  0.1348  0.2494
19134SOL    HW260035   3.732   7.408   8.492 -0.7532 -0.8215  0.3358
19135SOL     OW60036   7.754   1.528   9.547  0.6274 -0.1970 -0.2015
19135SOL    HW160037   7.830   1.541   9.603  1.1868 -1.7717 -0.5530
19135SOL    HW260038   7.681   1.515   9.607  0.6086  1.2523  0.1373
19136SOL     OW60039   2.911   4.167   0.225 -0.1544  0.8210 -0.3385
19136SOL    HW160040   2.982   4.134   0.169  0.8592  2.5420 -0.1558
19136SOL    HW260041   2.843   4.100   0.220  2.1614 -1.8339  0.8956
19137SOL     OW60042   5.183  10.109   5.251 -0.5608  0.5862 -0.0855
19137SOL    HW160043   5.218  10.025   5.279  0.8555  0.9829 -0.5646
19137SOL    HW260044   5.220  10.122   5.163 -0.6251  1.7689  0.0402
19138SOL     OW60045   7.396   2.024   9.092 -0.0528 -0.2578  0.0921
19138SOL    HW160046   7.443   2.034   9.174  0.4801  3.0449 -0.4788
19138SOL    HW260047   7.306   2.048   9.113  0.1755  1.0185 -0.3512
19139SOL     OW60048   7.404   4.250   5.908 -0.0144 -0.2856 -0.8915
19139SOL    HW160049   7.397   4.330   5.856 -0.3844 -0.2117 -0.7295
19139SOL    HW260050   7.371   4.273   5.994  3.1525  0.3593  0.2814
19140SOL     OW60051   5.843   3.210   2.690  0.0951 -0.1986 -0.1590
19140SOL    HW160052   5.761   3.240   2.728 -0.0846  0.0463 -0.7280
19140SOL    HW260053   5.893   3.177   2.764  0.8034  2.5457  0.6984
19141SOL     OW60054   1.286   3.649   6.433  0.0825 -0.5459 -0.5584
19141SOL    HW160055   1.375   3.664   6.403 -0.1179  0.4374 -0.6979
19141SOL    HW260056   1.230   3.677   6.360 -0.3460 -1.2186 -0.5018
19142SOL     OW60057   1.074   1.909   2.237 -0.2520  0.2330  0.1295
19142SOL    HW160058   1.156   1.955   2.258  0.8255 -1.4864 -0.0991
19142SOL    HW260059   1.051   1.864   2.318 -0.4728 -0.0194 -0.0754
19143SOL     OW60060  10.275   5.541   9.968  0.4962  0.2564  0.5572
19143SOL    HW160061  10.245   5.530  10.058  0.1035 -0.7464  0.3173
19143SOL    HW260062  10.210   5.494   9.915  0.1901  1.6281 -0.3443
19144SOL     OW60063   0.554   4.271   5.218  0.3869 -0.0298 -0.7848
19144SOL    HW160064   0.603   4.281   5.300  0.6841  0.2146 -0.9890
19144SOL    HW260065   0.622   4.256   5.152  0.2608  1.1449 -1.2133
19145SOL     OW60066   4.208   8.001   2.698  0.0717  0.6580  0.7190
19145SOL    HW160067   4.151   8.012   2.774  1.0036 -0.0744  1.5468
19145SOL    HW260068   4.244   8.089   2.683 -0.4712  0.9025  0.8298
19146SOL     OW60069   9.202   5.794   4.640 -0.1355 -0.2023 -0.1680
19146SOL    HW160070   9.136   5.802   4.708  0.7700 -0.4989  0.7646
19146SOL    HW260071   9.185   5.868   4.581  0.5543  1.5406  1.7035
19147SOL     OW60072   4.259   2.146   8.011 -0.3166 -0.0529 -0.0659
19147SOL    HW160073   4.256   2.054   8.037  1.1802 -0.4944 -1.2744
19147SOL    HW260074   4.282   2.194   8.090 -0.1536 -0.8365  0.3662
19148SOL     OW60075   2.884   5.264   0.238  0.3034 -0.3116  0.1721
19148SOL    HW160076   2.836   5.248   0.318 -0.3970 -2.1311 -0.5698
19148SOL    HW260077   2.957   5.202   0.240 -0.1111 -0.8731 -0.8756
19149SOL     OW60078   4.507  10.028   2.234  0.3141  0.2415  0.1435
19149SOL    HW160079   4.501  10.054   2.142  0.4117 -0.9430 -0.2044
19149SOL    HW260080   4.557   9.947   2.234 -0.5728 -0.3357  1.1392
19150SOL     OW60081   6.131   1.223   1.824 -0.1192  0.1152  0.2458
19150SOL    HW160082   6.039   1.227   1.798 -0.1421 -0.8568  0.1148
19150SOL    HW260083   6.166   1.147   1.776  0.2803 -0.6696  1.7138
19151SOL     OW60084   2.893   3.879   5.269  0.2482  0.6284 -0.0612
19151SOL    HW160085   2.984   3.870   5.240 -0.3772  0.8603 -2.2888
19151SOL    HW260086   2.871   3.794   5.307  1.7818  1.0244  1.8814
19152SOL     OW60087   6.599   5.622   5.748  0.7327 -0.0745  0.1866
19152SOL    HW160088   6.560   5.540   5.718  1.0283  0.2435 -1.1052
19152SOL    HW260089   6.605   5.611   5.843  0.3607 -1.3649  0.0885
19153SOL     OW60090   7.087   5.569   1.524 -0.0994  0.8481 -0.2513
19153SOL    HW160091   7.139   5.649   1.519  1.5887 -0.1195  0.6818
19153SOL    HW260092   7.142   5.508   1.574 -1.4499 -0.8008 -0.6800
19154SOL     OW60093   4.177   7.030   4.506 -0.4237  0.3499 -0.1197
19154SOL    HW160094   4.129   6.970   4.563 -1.2050  1.3183  0.2870
19154SOL    HW260095   4.262   7.039   4.548 -0.8964  0.8458  0.7861
19155SOL     OW60096   3.771   0.636   4.779  0.0129 -0.0550  0.3448
19155SOL    HW160097   3.834   0.628   4.708  0.4653 -0.0409  0.7417
19155SOL    HW260098   3.804   0.709   4.833 -0.1429 -0.2814  0.7541
19156SOL     OW60099   3.303   9.493   9.586 -0.4673 -0.3540 -0.1899
19156SOL    HW160100   3.216   9.460   9.607  0.0776 -2.1665 -0.5246
19156SOL    HW260101   3.356   9.414   9.574  1.0338  0.6874 -0.7962
19157SOL     OW60102   8.394   5.457   8.751 -0.3118 -0.3157  0.3186
19157SOL    HW160103   8.322   5.470   8.690  0.2877  0.6885 -0.1978
19157SOL    HW260104   8.395   5.536   8.805  0.9749  0.1293 -0.3129
19158SOL     OW60105   9.907   5.725   3.458  0.2301  0.0946  0.6310
19158SOL    HW160106   9.914   5.653   3.521 -0.6093  0.5932  1.3076
19158SOL    HW260107   9.839   5.781   3.493 -0.8810 -0.0511 -1.1773
19159SOL     OW60108   7.929   9.185   9.898  0.0372  0.1742  0.7908
19159SOL    HW160109   7.956   9.185   9.990  1.6839 -1.9034  0.3715
19159SOL    HW260110   7.859   9.121   9.893 -0.8127  1.0831  0.7606
19160SOL     OW60111   9.819   7.401   3.448 -0.7652  0.3056  1.0399
19160SOL    HW160112   9.729   7.421   3.421 -0.6371 -0.7916 -0.3378
19160SOL    HW260113   9.821   7.306   3.459  0.4529  0.1681 -0.0062
19161SOL     OW60114   9.576   8.746   1.406  0.1420  0.1788 -0.9359
19161SOL    HW160115   9.534   8.734   1.321 -0.1564 -2.5952 -0.5046
19161SOL    HW260116   9.652   8.688   1.403  0.6849  0.7820  0.3574
19162SOL     OW60117   8.697   4.903   0.396 -0.0301  0.0621  0.2094
19162SOL    HW160118   8.712   4.915   0.490 -2.0445 -0.7414  0.6726
19162SOL    HW260119   8.617   4.953   0.378  0.1357 -0.0892 -1.0128
19163SOL     OW60120   2.587   4.167   0.013  0.1925 -0.4416 -0.0249
19163SOL    HW160121   2.520   4.212   0.065  0.0325 -1.9942  1.1768
19163SOL    HW260122   2.608   4.229  -0.057 -1.4783  0.6473  0.3749
19164SOL     OW60123   3.670   2.503   8.938 -0.2138  0.2100 -0.2686
19164SOL    HW160124   3.686   2.416   8.975 -2.0799  0.2441  0.7457
19164SOL    HW260125   3.757   2.539   8.923  0.7236 -2.5836 -2.6619
19165SOL     OW60126   3.842   7.774   5.404  0.6031 -0.1720 -0.8072
19165SOL    HW160127   3.784   7.730   5.342  0.2727 -1.9724  0.7055
19165SOL    HW260128   3.821   7.735   5.489  1.5316  1.7132  0.3508
19166SOL     OW60129   7.424   9.572   9.315 -0.5724  0.1352 -0.3113
19166SOL    HW160130   7.491   9.541   9.377 -0.1280  0.2679 -0.7187
19166SOL    HW260131   7.360   9.501   9.312 -0.7325  0.2447  0.5040
19167SOL     OW60132   3.098   4.599   3.663 -0.0587  0.9678  0.5967
19167SOL    HW160133   3.039   4.593   3.738 -0.0209  2.7466  0.8240
19167SOL    HW260134   3.175   4.547   3.687  0.4484  2.4162  2.3329
19168SOL     OW60135   0.691   3.942   1.899  0.6144 -0.1590 -0.0195
19168SOL    HW160136   0.654   3.920   1.814  1.0425 -0.5861 -0.1014
19168SOL    HW260137   0.741   4.022   1.883 -2.3992  2.0482  0.6508
19169SOL     OW60138   7.302   8.329   7.846 -0.6973  0.7612  0.1075
19169SOL    HW160139   7.292   8.400   7.909 -0.9241  2.2425 -1.5199
19169SOL    HW260140   7.329   8.372   7.765 -1.4774 -0.9446 -1.1281
19170SOL     OW60141   7.975  10.087   2.206  0.3771 -0.3118  0.3398
19170SOL    HW160142   7.999  10.062   2.296 -2.4967  0.0293  1.2785
19170SOL    HW260143   7.887  10.122   2.213 -1.1554 -2.9277 -3.0258
19171SOL     OW60144   4.167   0.012   0.908  0.7614  0.0843  0.6402
19171SOL    HW160145   4.243   0.068   0.896  0.6681  0.3558  1.2617
19171SOL    HW260146   4.093   0.072   0.912  0.3389 -0.2567 -1.2455
19172SOL     OW60147   2.636  10.133   7.721  0.2548 -0.2950 -0.2860
19172SOL    HW160148   2.571  10.065   7.735  0.2923 -0.8017 -2.2173
19172SOL    HW260149   2.586  10.215   7.724 -0.1511 -0.5493  0.0058
19173SOL     OW60150   7.226   8.147   9.323  0.2587  0.1235 -0.4978
19173SOL    HW160151   7.254   8.181   9.408  1.0285 -0.1284 -0.6412
19173SOL    HW260152   7.136   8.178   9.313  0.3597  0.6462  0.1465
19174SOL     OW60153   9.110   0.582   7.653 -0.2057 -0.3468 -0.6582
19174SOL    HW160154   9.193   0.570   7.700 -0.9993  0.8299  1.1788
19174SOL    HW260155   9.134   0.633   7.575  1.1540 -2.3739 -1.6420
19175SOL     OW60156   9.192   4.241   3.285 -0.0550 -0.3880 -0.2554
19175SOL    HW160157   9.112   4.231   3.232 -1.7230  1.3971  1.7380
19175SOL    HW260158   9.191   4.166   3.344 -0.5717 -0.1050  0.1075
19176SOL     OW60159   6.744   5.051   6.699 -0.4687  0.5236 -0.0040
19176SOL    HW160160   6.770   5.060   6.791  0.7525 -0.1284 -0.2626
19176SOL    HW260161   6.720   4.959   6.690 -4.2257  1.2721  0.5014
19177SOL     OW60162   3.869   0.895   1.923  0.3119  0.1413  0.2647
19177SOL    HW160163   3.834   0.979   1.896 -0.8916 -0.9064 -1.6513
19177SOL    HW260164   3.796   0.851   1.968 -0.0441 -0.9798 -1.3278
19178SOL     OW60165   0.979   8.673   9.203  0.2157  0.2227  0.1280
19178SOL    HW160166   1.024   8.649   9.285  0.9577  2.5567  0.4879
19178SOL    HW260167   0.896   8.627   9.208 -0.0060  0.7051  2.5125
19179SOL     OW60168   2.772   3.104   1.530 -0.1079 -0.1121  0.5649
19179SOL    HW160169   2.823   3.138   1.604 -2.0066  1.8639  1.0736
19179SOL    HW260170   2.710   3.174   1.509 -2.5483 -2.2920 -0.0633
19180SOL     OW60171   1.337   2.385   1.814 -0.7098 -0.0005 -0.5646
19180SOL    HW160172   1.360   2.408   1.904  1.7875 -0.3335 -1.0643
19180SOL    HW260173   1.420   2.372   1.769 -1.8854 -1.1209 -2.6222
19181SOL     OW60174   2.008   6.258   6.106 -0.0593  0.2954 -0.1129
19181SOL    HW160175   1.923   6.269   6.064 -1.3369 -2.4657  1.4324
19181SOL    HW260176   2.006   6.319   6.180  0.2174  1.7243 -1.2482
19182SOL     OW60177   2.110   4.880   7.225  0.1366 -0.0218  0.4363
19182SOL    HW160178   2.022   4.873   7.261  0.3430 -2.4891  0.6606
19182SOL    HW260179   2.152   4.950   7.275 -2.0894  2.2539 -0.6829
19183SOL     OW60180   6.313   6.750   8.191  0.1239 -0.3138  0.9546
19183SOL    HW160181   6.340   6.770   8.101  0.1212  0.0238  1.0253
19183SOL    HW260182   6.270   6.830   8.221  1.4681  0.1369  1.7762
19184SOL     OW60183   1.102   7.562   5.651 -0.0978 -0.5232  1.0483
19184SOL    HW160184   1.156   7.638   5.671  0.6829 -0.7860  0.0400
19184SOL    HW260185   1.153   7.512   5.587 -1.6246 -0.6441 -0.1694
19185SOL     OW60186   3.306   9.375   6.274 -0.5752  0.2471  0.2605
19185SOL    HW160187   3.277   9.313   6.340  0.7322  0.1047  0.7398
19185SOL    HW260188   3.400   9.358   6.265 -0.1377  2.2501  0.5216
19186SOL     OW60189   2.377   0.462   9.050  0.0463  0.2773 -0.0077
19186SOL    HW160190   2.286   0.435   9.061  0.5402 -1.3249  0.3568
19186SOL    HW260191   2.377   0.555   9.072 -1.6359  0.4893 -0.7831
19187SOL     OW60192   1.180   9.715   0.193 -0.4278  0.1935  0.1964
19187SOL    HW160193   1.198   9.720   0.099  0.3439  2.9827  0.4043
19187SOL    HW260194   1.259   9.675   0.230 -0.1945  0.2542 -0.2261
19188SOL     OW60195   7.501   9.642   6.568 -0.4637 -0.1131  0.4979
19188SOL    HW160196   7.462   9.725   6.595  4.2552  3.3573 -1.8696
19188SOL    HW260197   7.538   9.606   6.649 -2.6121 -0.0997  1.5725
19189SOL     OW60198   8.245   9.991   5.051  0.3083  0.2709 -0.7942
19189SOL    HW160199   8.194  10.055   5.102  1.0065  1.5702 -1.6752
19189SOL    HW260200   8.188   9.967   4.978  0.2372  0.2877 -0.7442
19190SOL     OW60201   3.737   2.237   8.620  0.4187  0.5336 -0.2688
19190SOL    HW160202   3.661   2.239   8.678 -0.0209 -1.6203 -0.7095
19190SOL    HW260203   3.700   2.216   8.534  1.3940  0.7095 -0.7370
19191SOL     OW60204   5.182   4.573   0.788 -0.0642 -0.1672  0.5395
19191SOL    HW160205   5.253   4.554   0.726 -0.3940  1.6943 -0.5007
19191SOL    HW260206   5.135   4.646   0.747 -3.4352 -2.1800  0.4945
19192SOL     OW60207   2.715   6.021   4.909 -0.4194  0.1057  0.3395
19192SOL    HW160208   2.754   5.938   4.880 -1.8358  0.0517 -1.6301
19192SOL    HW260209   2.649   5.995   4.973  1.2258  0.0330  2.1075
19193SOL     OW60210   9.146   3.790   2.244  0.4977 -0.0316 -0.0487
19193SOL    HW160211   9.091   3.836   2.181 -0.6995 -0.9577  0.2809
19193SOL    HW260212   9.200   3.858   2.285 -2.0683  1.3109  1.3191
19194SOL     OW60213  10.075   9.104   4.665 -0.6226  0.7541  0.1448
19194SOL    HW160214  10.053   9.081   4.755 -1.4825  0.2184 -0.1853
19194SOL    HW260215  10.159   9.149   4.671  0.2206 -0.8414  1.0268
19195SOL     OW60216   2.739   4.854   0.029 -0.4542 -0.2598  0.1847
19195SOL    HW160217   2.732   4.945   0.000 -2.7099 -0.5917 -0.5225
19195SOL    HW260218   2.682   4.848   0.105 -0.1644 -1.0458  0.3562
19196SOL     OW60219   8.901   2.870   1.701  0.0200  0.2788 -0.2659
19196SOL    HW160220   8.996   2.855   1.696  0.1706  0.0948  1.8935
19196SOL    HW260221   8.865   2.787   1.731 -1.1020 -0.1721 -2.6441
19197SOL     OW60222   9.779   8.086   1.105  0.7510  0.1081  0.2197
19197SOL    HW160223   9.740   8.172   1.123  0.2579 -0.1827  0.5831
19197SOL    HW260224   9.742   8.029   1.173 -1.6382 -1.2010 -1.9767
19198SOL     OW60225   8.935   3.481   5.597  0.2704 -0.0657 -0.1055
19198SOL    HW160226   9.009   3.447   5.646  0.8018  1.1226 -0.0589
19198SOL    HW260227   8.937   3.433   5.514  0.6175 -0.5824  0.1967
19199SOL     OW60228   1.374   3.196   4.704  0.0356  0.0019  0.1202
19199SOL    HW160229   1.281   3.219   4.695 -0.3165 -1.1395  0.6107
19199SOL    HW260230   1.380   3.156   4.791  1.2056  1.0220  0.5246
19200SOL     OW60231   5.798   8.376   4.635  0.4666  0.5142  0.0251
19200SOL    HW160232   5.878   8.330   4.607 -0.4286 -1.5435  0.6797
19200SOL    HW260233   5.768   8.421   4.556  1.2877 -0.1689 -0.7077
19201SOL     OW60234   4.716   5.082   6.872 -0.0050 -0.2222  0.0886
19201SOL    HW160235   4.657   5.067   6.946  0.3815 -1.5365  0.1542
19201SOL    HW260236   4.689   5.166   6.836 -2.5589 -1.1916 -0.4671
19202SOL     OW60237   6.298  10.109   3.936  0.5382 -0.2964 -0.1100
19202SOL    HW160238   6.230  10.126   4.001  0.2321 -1.0802 -0.2184
19202SOL    HW260239   6.375  10.083   3.987  0.6118  0.1060 -0.0131
19203SOL     OW60240   9.699   2.928   0.064  0.6809  0.0764  0.3365
19203SOL    HW160241   9.724   2.843   0.029  0.7060  0.4497 -0.5822
19203SOL    HW260242   9.688   2.984  -0.013  0.4490  0.8487  0.9105
19204SOL     OW60243   5.688   5.596   5.777 -0.3832 -0.4742 -0.3127
19204SOL    HW160244   5.736   5.562   5.853 -0.4995 -0.5620 -0.2777
19204SOL    HW260245   5.714   5.688   5.772 -0.9637 -0.2630  0.3040
19205SOL     OW60246   4.241   2.982   2.931 -0.6985 -0.3463  0.5489
19205SOL    HW160247   4.252   2.890   2.952 -1.9933 -0.3938  1.1254
19205SOL    HW260248   4.216   2.983   2.839  0.8756 -0.4349  0.0921
19206SOL     OW60249   5.186   9.578  10.294  0.1168 -0.0872  0.0471
19206SOL    HW160250   5.271   9.596  10.254  1.1528 -2.1257  1.1493
19206SOL    HW260251   5.130   9.554  10.220  0.7043  0.5112 -0.6170
19207SOL     OW60252   1.790   8.187   2.761 -0.2565 -0.2176  0.2913
19207SOL    HW160253   1.722   8.178   2.694 -0.7574  0.6648  0.6719
19207SOL    HW260254   1.867   8.219   2.713 -0.5913  0.3400  0.1302
19208SOL     OW60255   8.258   9.177   2.727 -0.1373  0.0903 -0.0731
19208SOL    HW160256   8.283   9.269   2.736 -0.6880  0.5333 -2.4736
19208SOL    HW260257   8.337   9.128   2.750  0.2805  1.1544  0.8573
19209SOL     OW60258   7.954   5.197   0.240 -0.4002 -0.4004  0.5101
19209SOL    HW160259   7.975   5.285   0.271  1.5164 -1.2305  1.7663
19209SOL    HW260260   7.979   5.139   0.312  0.2734 -2.1067 -1.0063
19210SOL     OW60261   0.013   2.783   3.868  0.2663 -0.2309  0.2356
19210SOL    HW160262   0.046   2.693   3.870 -1.5646 -1.0131 -1.4274
19210SOL    HW260263   0.033   2.814   3.780 -1.0637  0.1806  0.0557
19211SOL     OW60264   6.772   9.344   7.422  0.5222 -0.2845 -0.3099
19211SOL    HW160265   6.688   9.334   7.466 -0.7868 -0.0991 -2.5973
19211SOL    HW260266   6.809   9.424   7.459 -1.4426  0.9721 -0.8699
19212SOL     OW60267   4.819   4.838   7.007 -0.0406  0.1351  0.0303
19212SOL    HW160268   4.733   4.797   6.998 -0.3223  0.5171  0.8549
19212SOL    HW260269   4.816   4.914   6.949 -0.7434  0.8732  0.9862
19213SOL     OW60270   4.325   3.266   2.131  0.1714  0.4992 -0.0646
19213SOL    HW160271   4.302   3.296   2.219  0.8086 -1.6914  0.9114
19213SOL    HW260272   4.421   3.266   2.130  0.1868  1.4715 -1.1430
19214SOL     OW60273   0.996   0.752   2.411  0.0542 -0.6225 -0.2350
19214SOL    HW160274   0.957   0.796   2.487 -0.5696 -1.2156 -0.1995
19214SOL    HW260275   0.933   0.683   2.388  0.0186 -0.1773 -1.5641
19215SOL     OW60276   8.309  10.020   1.929 -0.1822  0.1795 -0.2981
19215SOL    HW160277   8.298   9.946   1.870  2.3313 -0.3094 -0.2366
19215SOL    HW260278   8.220  10.053   1.943 -1.4051 -2.8326 -0.2744
19216SOL     OW60279   8.971   2.490   1.555  0.3316 -0.3315 -1.1439
19216SOL    HW160280   8.973   2.565   1.496  2.5372 -0.2079 -0.9879
19216SOL    HW260281   8.884   2.494   1.596  0.3809  2.1076 -1.1476
19217SOL     OW60282   7.359   8.722   9.136 -0.4997  0.9613  0.1535
19217SOL    HW160283   7.344   8.761   9.049 -1.6592  1.4260  0.5296
19217SOL    HW260284   7.280   8.745   9.185 -0.1883  0.0557  1.1013
19218SOL     OW60285  10.029   2.259   2.610  0.4808  0.0132 -0.4195
19218SOL    HW160286   9.971   2.224   2.542 -1.0576  0.2575  0.7193
19218SOL    HW260287  10.030   2.353   2.594  3.2136 -0.2134 -2.3929
19219SOL     OW60288   3.205   6.341  10.299 -0.0070 -0.1359 -0.2373
19219SOL    HW160289   3.280   6.294  10.263 -0.5825 -0.1931 -1.3940
19219SOL    HW260290   3.152   6.274  10.342 -1.0472 -0.6812 -2.2532
19220SOL     OW60291   0.404   7.576   0.445 -0.4851  0.1960 -0.0042
19220SOL    HW160292   0.369   7.527   0.520  0.0122  1.2469  0.9473
19220SOL    HW260293   0.388   7.519   0.370 -4.1507  0.5434  0.3287
19221SOL     OW60294   4.679   5.059   8.408 -0.0483 -0.2278 -0.0154
19221SOL    HW160295   4.586   5.043   8.398  0.1058 -1.6093  0.5070
19221SOL    HW260296   4.721   4.981   8.373  0.9102  0.3073 -0.1063
19222SOL     OW60297   1.913   5.737   1.744  0.0783 -0.1250 -0.4832
19222SOL    HW160298   1.836   5.683   1.759  0.5763 -0.7273 -0.0560
19222SOL    HW260299   1.883   5.827   1.760 -1.0871 -0.1035 -2.4246
19223SOL     OW60300   8.208   1.540   3.153 -0.1663 -0.4014  0.5552
19223SOL    HW160301   8.162   1.575   3.229 -1.8242 -0.7240 -0.2482
19223SOL    HW260302   8.138   1.514   3.093  1.0799 -1.3869 -0.5266
19224SOL     OW60303   4.728   4.842   2.656 -0.1960 -0.1170  0.3085
19224SOL    HW160304   4.659   4.779   2.632  0.2708 -0.7642  0.6463
19224SOL    HW260305   4.798   4.788   2.692 -0.0625  0.6583  1.2516
19225SOL     OW60306   4.055   9.966   3.733  0.2189 -0.3948  0.3118
19225SOL    HW160307   4.134   9.912   3.739  0.1958 -0.7673 -1.8320
19225SOL    HW260308   4.071  10.040   3.792  1.6848 -1.0116  0.7334
19226SOL     OW60309   0.180   9.798   6.793 -0.4749  0.2706 -0.2450
19226SOL    HW160310   0.174   9.873   6.733  0.1140  1.1133  0.6968
19226SOL    HW260311   0.106   9.743   6.771 -0.7832  1.0155 -1.1415
19227SOL     OW60312   2.038   2.402   1.712 -0.2008 -0.0364 -0.3747
19227SOL    HW160313   1.996   2.387   1.627  0.7893 -3.3169 -0.4185
19227SOL    HW260314   2.121   2.444   1.690 -0.7732  0.9068 -0.8169
19228SOL     OW60315   7.898   7.941   8.695  0.4610  0.0442  0.4366
19228SOL    HW160316   7.910   7.890   8.614  0.5631  0.5472  0.1305
19228SOL    HW260317   7.821   7.994   8.678  0.5180  0.1930  0.6522
19229SOL     OW60318   9.433   8.815   6.983 -0.1157  0.1872  0.5276
19229SOL    HW160319   9.385   8.836   6.903  0.5024  0.1014  0.1341
19229SOL    HW260320   9.365   8.785   7.044 -0.7192  1.1619  0.3594
19230SOL     OW60321   3.118   6.469   8.974 -0.2166  0.5986 -0.3826
19230SOL    HW160322   3.188   6.452   8.911  0.7451  0.6835  0.6255
19230SOL    HW260323   3.059   6.394   8.966 -0.1370  0.6431 -1.4096
19231SOL     OW60324   6.020   3.703   4.526 -0.4567 -0.3065  0.0817
19231SOL    HW160325   6.115   3.693   4.530 -0.2261  1.4458 -0.3911
19231SOL    HW260326   6.005   3.796   4.539 -1.9221 -0.0892 -2.5004
19232SOL     OW60327   8.124   3.363   9.187  0.0664  0.0879 -0.2146
19232SOL    HW160328   8.086   3.449   9.206 -0.3339  0.6194 -3.0254
19232SOL    HW260329   8.059   3.300   9.219  0.9025  0.7014  2.9949
19233SOL     OW60330   4.905   3.310   7.601  0.1952  0.3829  0.1368
19233SOL    HW160331   4.901   3.215   7.605 -0.6922  0.4008 -0.1204
19233SOL    HW260332   4.987   3.329   7.555 -0.9625 -0.3429 -2.3478
19234SOL     OW60333   7.502   6.060   6.449  0.3776  0.1141  0.1684
19234SOL    HW160334   7.524   6.111   6.526  1.1515 -1.1533  0.8218
19234SOL    HW260335   7.532   6.113   6.375  0.8639  0.7394  0.8013
19235SOL     OW60336   8.950   4.790   0.972  0.1991  0.3819  0.1582
19235SOL    HW160337   8.993   4.705   0.983  1.1704  0.9011  0.4421
19235SOL    HW260338   8.978   4.841   1.048 -3.8080 -0.4018  2.4334
19236SOL     OW60339  10.157   1.340   1.449 -0.3719 -0.3982 -0.1771
19236SOL    HW160340  10.183   1.310   1.361 -2.1178 -0.1186 -0.8327
19236SOL    HW260341  10.235   1.383   1.484  0.1131  0.2614 -1.9486
19237SOL     OW60342   3.511   1.236   2.474 -0.0978  0.1314 -0.0195
19237SOL    HW160343   3.470   1.206   2.393  0.1497 -0.8806  0.2118
19237SOL    HW260344   3.603   1.251   2.451 -0.3868  1.5452 -0.3281
19238SOL     OW60345   8.773   0.622   2.856  0.0303  0.0092  0.3596
19238SOL    HW160346   8.745   0.635   2.946 -0.2265  0.2646  0.2460
19238SOL    HW260347   8.703   0.569   2.817 -0.4579  0.8984 -0.0057
19239SOL     OW60348   8.598   8.773   2.894  0.1867  0.8727 -0.4324
19239SOL    HW160349   8.647   8.855   2.896  1.2155  0.2549  0.7198
19239SOL    HW260350   8.579   8.754   2.986  0.0806 -0.2569 -0.6828
19240SOL     OW60351   6.952   9.904   1.076  0.2026  0.3281 -0.5532
19240SOL    HW160352   6.933   9.833   1.137  1.9751  0.8954  0.7327
19240SOL    HW260353   6.999   9.863   1.004 -0.7280 -0.1292 -0.9201
19241SOL     OW60354   5.407   6.250  10.181 -0.2232 -0.1920 -0.2993
19241SOL    HW160355   5.364   6.309  10.243 -0.6772 -1.3076  0.4788
19241SOL    HW260356   5.431   6.174  10.233 -0.3501 -1.0368 -1.4374
19242SOL     OW60357   6.171   1.317   6.315 -0.7637 -0.3582  0.2139
19242SOL    HW160358   6.138   1.393   6.268 -0.4778 -0.1758  0.3065
19242SOL    HW260359   6.243   1.351   6.369 -1.6890 -0.3873  1.5035
19243SOL     OW60360   3.522   0.301   1.152 -0.1218 -0.5851 -0.2757
19243SOL    HW160361   3.524   0.392   1.123  1.3684  0.2994  2.2935
19243SOL    HW260362   3.546   0.305   1.245  1.8137 -3.7461 -0.5118
19244SOL     OW60363   1.512   8.953   4.647  0.1982  0.1733 -0.5693
19244SOL    HW160364   1.583   8.909   4.694 -0.6263  0.2127  0.7558
19244SOL    HW260365   1.473   8.885   4.593  0.2688 -0.2219 -0.1282
19245SOL     OW60366   1.942   8.756   8.667 -0.2092 -0.4386  0.0751
19245SOL    HW160367   2.035   8.776   8.660 -0.3522  0.7077  1.1455
19245SOL    HW260368   1.898   8.839   8.652 -1.0986 -1.0639 -0.8920
19246SOL     OW60369   0.388  10.289   2.138  0.2452  0.0767  0.2548
19246SOL    HW160370   0.368  10.382   2.132  0.3196  0.0229 -0.9354
19246SOL    HW260371   0.305  10.245   2.124  0.4104 -0.0534 -0.3490
19247SOL     OW60372   2.486   5.293   0.724 -0.2291  0.0823 -0.1619
19247SOL    HW160373   2.474   5.232   0.651 -0.7171  0.2290 -0.2059
19247SOL    HW260374   2.517   5.374   0.683 -1.1268  0.3722 -0.2844
19248SOL     OW60375   7.621   0.509   2.888 -0.0398 -0.3544 -0.2010
19248SOL    HW160376   7.714   0.522   2.871  0.0722  0.8404  1.0899
19248SOL    HW260377   7.580   0.508   2.801  1.0705 -0.0172 -0.7441
19249SOL     OW60378   5.035   5.815   6.228  0.8501 -0.0545  0.0137
19249SOL    HW160379   5.100   5.804   6.159  3.0771  0.1153  1.9403
19249SOL    HW260380   5.087   5.823   6.308 -1.5960 -0.2013  1.7176
19250SOL     OW60381   3.977  10.171   2.815  0.2642  0.2893 -0.1898
19250SOL    HW160382   4.019  10.088   2.792  0.1832 -0.4390  2.0664
19250SOL    HW260383   4.046  10.236   2.809  0.7455 -0.2306 -0.3745
19251SOL     OW60384   6.570   4.582   7.174 -0.7452 -0.3227  0.2372
19251SOL    HW160385   6.482   4.607   7.147 -0.8906 -1.2719 -0.2156
19251SOL    HW260386   6.581   4.493   7.140  0.4095 -0.1944  0.2371
19252SOL     OW60387   5.248   7.477   4.048  0.4628 -0.1855  0.3674
19252SOL    HW160388   5.167   7.463   4.000  1.5166  1.8450 -2.2867
19252SOL    HW260389   5.262   7.396   4.097 -2.1137 -1.3399 -0.6236
19253SOL     OW60390   0.967   0.077   1.149 -0.5016 -0.2057 -0.0892
19253SOL    HW160391   1.044   0.022   1.135 -0.8868 -0.7343 -0.1696
19253SOL    HW260392   0.952   0.073   1.244 -0.8780 -0.7348 -0.1620
19254SOL     OW60393   6.406   9.480   3.772  0.3521  0.3197 -0.3167
19254SOL    HW160394   6.337   9.545   3.780 -1.4978 -1.4693 -0.8920
19254SOL    HW260395   6.417   9.446   3.861  0.6383  0.7250 -0.1928
19255SOL     OW60396   2.535  10.251   6.004 -0.0680 -0.3358  0.1268
19255SOL    HW160397   2.450  10.283   5.972  0.8498  1.7951 -0.3449
19255SOL    HW260398   2.591  10.250   5.927  0.3169 -1.9690  0.3862
19256SOL     OW60399   8.360   2.145   6.922  0.0964  0.2995  0.0859
19256SOL    HW160400   8.289   2.180   6.975  0.2472  0.8696 -0.0881
19256SOL    HW260401   8.435   2.200   6.941  0.1976  0.4047 -0.5862
19257SOL     OW60402   3.047   6.829   1.215  0.1922  0.7043 -0.6183
19257SOL    HW160403   3.135   6.829   1.255 -0.8578  0.9024  1.8631
19257SOL    HW260404   3.030   6.736   1.198  0.1951  0.4534  0.6156
19258SOL     OW60405   0.924   9.617   9.206 -0.2157  0.3538 -0.6020
19258SOL    HW160406   0.877   9.557   9.147  0.7134 -3.2233  1.9774
19258SOL    HW260407   1.017   9.602   9.187  0.0898 -0.5951  1.4168
19259SOL     OW60408   7.036   5.480   3.758 -0.2748 -0.8537 -0.4277
19259SOL    HW160409   7.060   5.491   3.850  0.3322 -2.0282 -0.4269
19259SOL    HW260410   7.072   5.558   3.715 -0.1807 -0.5111  0.2517
19260SOL     OW60411   8.438   8.875   0.952  0.3885 -0.0507  0.1062
19260SOL    HW160412   8.454   8.891   1.044  0.0303 -0.2196  0.2031
19260SOL    HW260413   8.459   8.782   0.940  1.4594  0.2284 -0.2186
19261SOL     OW60414   1.326   5.227   4.573 -0.1309  0.5097 -0.1307
19261SOL    HW160415   1.260   5.287   4.609 -1.4523 -2.2037  2.3391
19261SOL    HW260416   1.405   5.246   4.623 -0.0739  1.2072 -0.4649
19262SOL     OW60417   9.562   4.050   6.183  0.5384  0.1054 -0.0541
19262SOL    HW160418   9.623   3.983   6.213  1.7873  1.0960 -0.2667
19262SOL    HW260419   9.549   4.107   6.259 -1.6277 -1.1160  0.5519
19263SOL     OW60420   7.250   3.170   1.371 -0.3125  0.6467  0.1821
19263SOL    HW160421   7.158   3.171   1.395 -0.5833  1.3569 -0.8147
19263SOL    HW260422   7.293   3.120   1.440 -1.5932 -0.6457  0.0741
19264SOL     OW60423   8.118   6.212   4.070  0.1665 -0.1626 -0.1494
19264SOL    HW160424   8.031   6.194   4.034  0.6588 -1.5852 -0.7216
19264SOL    HW260425   8.103   6.223   4.164 -0.7856  0.8926 -0.4091
19265SOL     OW60426   1.580   3.546   7.258  0.4103  0.0067  0.4476
19265SOL    HW160427   1.640   3.599   7.310  0.6266 -0.8840  1.1452
19265SOL    HW260428   1.540   3.486   7.321 -0.6245  0.0555 -0.1376
19266SOL     OW60429   7.753   9.486   1.022 -0.4550  0.4053 -0.4953
19266SOL    HW160430   7.807   9.482   1.100  1.5203 -2.5951 -1.8652
19266SOL    HW260431   7.775   9.570   0.981  0.0313  1.0591  1.0640
19267SOL     OW60432   3.617   7.384   0.215 -0.0607  0.2738 -1.0639
19267SOL    HW160433   3.575   7.412   0.297 -2.1090 -2.1242 -1.1794
19267SOL    HW260434   3.660   7.463   0.183 -0.0136  1.5622  1.8043
19268SOL     OW60435   1.523   2.384   0.837  0.3736 -0.3211  0.1288
19268SOL    HW160436   1.489   2.295   0.846  0.8279 -0.5079 -0.0188
19268SOL    HW260437   1.568   2.401   0.920 -0.5845  0.1522  0.5742
19269SOL     OW60438   5.668   7.760   1.232  0.5509 -0.1432 -0.2773
19269SOL    HW160439   5.674   7.855   1.240 -0.8624 -0.0917  0.4299
19269SOL    HW260440   5.597   7.735   1.291 -0.0541 -1.4962 -1.5147
19270SOL     OW60441   2.343   6.799   9.396  0.0250 -0.1021 -0.0945
19270SOL    HW160442   2.350   6.708   9.366  0.5412 -0.4101  0.9033
19270SOL    HW260443   2.252   6.808   9.426  0.1257 -0.4763  0.3408
19271SOL     OW60444   2.207   7.246   5.536  0.2318  0.3517  0.0999
19271SOL    HW160445   2.297   7.232   5.565 -0.0331 -0.1412  0.7027
19271SOL    HW260446   2.195   7.183   5.465  0.7607  1.3022 -0.8675
19272SOL     OW60447   6.145   0.834   2.467 -0.7347  0.1322  0.5495
19272SOL    HW160448   6.050   0.838   2.452 -0.3815  0.3584 -1.9767
19272SOL    HW260449   6.166   0.916   2.512 -1.5904  0.5117  0.2751
19273SOL     OW60450   6.044   2.401   7.132  0.0474  0.0706 -0.2153
19273SOL    HW160451   5.988   2.411   7.209  0.0841 -1.0077 -0.0358
19273SOL    HW260452   5.984   2.406   7.058  0.0395  1.3393 -0.1527
19274SOL     OW60453   8.913   1.816   7.854  0.5903  0.0172 -0.0134
19274SOL    HW160454   8.981   1.822   7.787  1.0261  0.6313  0.4719
19274SOL    HW260455   8.915   1.901   7.898 -3.0339  1.5733 -2.3680
19275SOL     OW60456   2.425   7.676   8.776  1.1103  0.0498 -0.5571
19275SOL    HW160457   2.472   7.746   8.821  2.8373 -0.0141 -2.1031
19275SOL    HW260458   2.426   7.703   8.684  0.0451 -1.0670 -0.9197
19276SOL     OW60459   1.609   8.177   9.064  0.0374  0.8633  0.6522
19276SOL    HW160460   1.552   8.128   9.123 -0.5560  0.9305  0.1543
19276SOL    HW260461   1.548   8.228   9.010  0.3944 -0.7039 -1.3586
19277SOL     OW60462   8.791   0.743   0.692 -0.7124  0.1164 -0.4682
19277SOL    HW160463   8.800   0.820   0.636  1.8071  1.2690  1.2911
19277SOL    HW260464   8.770   0.672   0.632  0.7176  1.4731 -2.7328
19278SOL     OW60465   6.469   9.560   0.070 -0.1605  0.0913 -0.5530
19278SOL    HW160466   6.546   9.588   0.121 -0.9611  2.1718 -0.3789
19278SOL    HW260467   6.399   9.619   0.098 -1.1648 -0.0544 -2.5729
19279SOL     OW60468   5.130   5.589   6.091 -0.0812  0.1087  0.2656
19279SOL    HW160469   5.059   5.613   6.032 -1.1923  1.4682  2.0504
19279SOL    HW260470   5.087   5.574   6.175  1.5499 -0.8033  0.9797
19280SOL     OW60471   7.661   2.803   9.756  0.2078  0.4079  0.5532
19280SOL    HW160472   7.668   2.758   9.840  0.4986  0.5397  0.5983
19280SOL    HW260473   7.737   2.861   9.752  0.9536 -0.5758 -0.3764
19281SOL     OW60474   0.943   4.357   8.326  0.3507 -0.1025 -0.2847
19281SOL    HW160475   1.028   4.323   8.298  1.0640  0.8797  0.6041
19281SOL    HW260476   0.884   4.281   8.322  1.6866 -1.2560  0.8314
19282SOL     OW60477   5.837   5.490   6.065 -0.3523  0.1472  0.5862
19282SOL    HW160478   5.864   5.515   6.154  0.2993  0.0647  0.4153
19282SOL    HW260479   5.743   5.512   6.062 -0.7004 -1.0683  1.7190
19283SOL     OW60480   9.398   7.814   8.522 -0.0087 -0.4579  0.1046
19283SOL    HW160481   9.345   7.751   8.570 -0.7383  0.7185  0.8885
19283SOL    HW260482   9.477   7.824   8.574  0.4101 -1.2026 -0.3681
19284SOL     OW60483   5.607   2.529   9.937 -0.0669 -0.1576  0.0664
19284SOL    HW160484   5.606   2.618   9.901 -0.9680 -0.2908 -0.2535
19284SOL    HW260485   5.661   2.536  10.016  0.6450  0.4720 -0.4551
19285SOL     OW60486   7.485   0.695   6.908 -0.6525 -0.3056 -0.0303
19285SOL    HW160487   7.396   0.661   6.915 -1.2150  0.7312 -1.6936
19285SOL    HW260488   7.527   0.670   6.991 -2.4032 -1.0152  0.6782
19286SOL     OW60489   7.534   8.623   6.368  0.1369  0.3499  0.0313
19286SOL    HW160490   7.526   8.534   6.335  1.3651 -0.0233  0.6832
19286SOL    HW260491   7.472   8.674   6.315  0.6602 -0.5702 -1.5336
19287SOL     OW60492   0.042   9.112   1.832 -0.0393 -0.2540  0.1535
19287SOL    HW160493   0.083   9.155   1.907 -0.1131  0.9983 -0.4919
19287SOL    HW260494   0.085   9.151   1.755 -1.4178  0.0676 -0.4971
19288SOL     OW60495   8.018   2.723   0.406  0.0766 -0.2146 -0.7135
19288SOL    HW160496   7.970   2.653   0.362  0.5563 -0.3969 -0.9552
19288SOL    HW260497   8.107   2.715   0.373  0.1956  0.3447 -0.5383
19289SOL     OW60498   8.042   1.280   5.909 -0.7651 -0.4776  0.5573
19289SOL    HW160499   8.080   1.223   5.976 -1.0940  0.0960  1.2393
19289SOL    HW260500   8.065   1.369   5.937  0.3373 -0.2868 -0.8673
19290SOL     OW60501   8.621   7.298   1.247 -0.2510  0.0349  0.3189
19290SOL    HW160502   8.579   7.237   1.187  0.4203 -2.3340  2.0941
19290SOL    HW260503   8.552   7.322   1.309 -0.3346  0.5090  0.0430
19291SOL     OW60504   7.382   1.120   3.432 -0.2078 -0.5691  0.3467
19291SOL    HW160505   7.328   1.199   3.426 -1.4781 -1.3564  0.8632
19291SOL    HW260506   7.320   1.048   3.415  0.2532 -1.6296  2.7060
19292SOL     OW60507   8.958   2.695   1.379  0.0402 -0.0022  0.3495
19292SOL    HW160508   9.022   2.754   1.340  0.0619  0.0133  0.4081
19292SOL    HW260509   8.891   2.753   1.415  0.2613  0.0015  0.7554
19293SOL     OW60510   9.248   8.901   5.684 -0.4159 -0.5485  0.4466
19293SOL    HW160511   9.249   8.935   5.774  0.0841 -0.2886  0.3463
19293SOL    HW260512   9.340   8.882   5.665 -0.2309  1.2369 -0.7006
19294SOL     OW60513   6.593   3.746   7.950  0.4395  0.2259  0.2167
19294SOL    HW160514   6.568   3.816   8.010  1.2362  0.1967  0.6029
19294SOL    HW260515   6.622   3.675   8.008  0.2620 -0.1786 -0.1852
19295SOL     OW60516   3.895   3.332   4.740 -0.2695  0.2903  0.1975
19295SOL    HW160517   3.950   3.268   4.785  0.1137 -0.8566 -1.7524
19295SOL    HW260518   3.837   3.278   4.686 -1.1423  1.5678 -0.1713
19296SOL     OW60519   8.502   2.789   6.694 -0.1300  0.1612 -0.2205
19296SOL    HW160520   8.423   2.818   6.741  0.5436  4.8611 -1.4973
19296SOL    HW260521   8.471   2.772   6.605 -0.0037  0.0277 -0.2391
19297SOL     OW60522   9.006   7.500   4.645  0.1322 -0.2930  0.3884
19297SOL    HW160523   8.959   7.418   4.631 -0.1224 -0.4663  2.0425
19297SOL    HW260524   8.952   7.548   4.708  1.4065  0.1490  1.1906
19298SOL     OW60525   7.264   4.343   3.257  0.2078 -0.1585  0.1706
19298SOL    HW160526   7.226   4.409   3.316  0.1889 -0.0827  0.0741
19298SOL    HW260527   7.205   4.268   3.265  1.1376 -0.7841  1.5462
19299SOL     OW60528   5.527   9.202   4.028 -0.3274 -0.0209  0.1722
19299SOL    HW160529   5.594   9.244   3.974 -0.3293  0.0722  0.2415
19299SOL    HW260530   5.485   9.274   4.074  0.2238 -0.1691  0.9239
19300SOL     OW60531   1.963   4.629   4.499  0.1120 -0.5864 -0.0471
19300SOL    HW160532   1.959   4.725   4.509 -1.7962 -0.6716  0.2624
19300SOL    HW260533   2.057   4.610   4.498  0.5728  1.4237 -1.5796
19301SOL     OW60534   4.306   1.261   8.330 -0.9445  0.3267 -0.1615
19301SOL    HW160535   4.316   1.205   8.253  1.1465 -2.1411  1.7264
19301SOL    HW260536   4.362   1.336   8.313 -1.6275  0.5543 -1.5857
19302SOL     OW60537   0.629   7.248   1.616  0.2385  0.0107  0.1310
19302SOL    HW160538   0.651   7.303   1.692 -2.0915 -0.6393  1.3656
19302SOL    HW260539   0.570   7.302   1.564  0.0224 -0.3636 -0.0132
19303SOL     OW60540   3.297   7.725   9.710 -0.0462  0.7841 -0.0389
19303SOL    HW160541   3.306   7.632   9.689 -0.3926  0.6395  0.4246
19303SOL    HW260542   3.226   7.728   9.775 -1.0319  1.5252 -1.1109
19304SOL     OW60543   1.162   1.274   9.914  0.2451  0.1230  0.3308
19304SOL    HW160544   1.108   1.352   9.909  1.1773  0.7206 -0.9248
19304SOL    HW260545   1.218   1.288   9.991 -0.4412  0.1112  0.8373
19305SOL     OW60546   3.017   7.365  10.193 -0.2075 -0.4052 -0.5427
19305SOL    HW160547   3.010   7.364  10.097 -0.2304  1.1409 -0.5875
19305SOL    HW260548   3.096   7.416  10.210 -0.4459 -0.2952  0.2762
19306SOL     OW60549   7.256   3.651  10.024 -0.0742  0.3527 -0.2567
19306SOL    HW160550   7.257   3.556  10.031  1.4678  0.4331  0.9867
19306SOL    HW260551   7.175   3.677  10.068  0.8846 -0.2575  2.0295
19307SOL     OW60552   0.199   6.026   7.868 -0.6752  0.4289 -0.5368
19307SOL    HW160553   0.124   6.083   7.853  0.7697  2.8780  0.7975
19307SOL    HW260554   0.270   6.066   7.819 -0.0735 -1.5788 -1.4081
19308SOL     OW60555   0.080   8.788   4.283 -0.7984 -0.0518  0.0461
19308SOL    HW160556   0.120   8.871   4.257  0.4882 -0.4388  0.7139
19308SOL    HW260557   0.141   8.721   4.253 -1.0358 -0.6761  0.9247
19309SOL     OW60558   5.644   3.737   2.482 -0.9074  0.1162 -0.2382
19309SOL    HW160559   5.614   3.773   2.398 -1.0193  0.0248 -0.2373
19309SOL    HW260560   5.604   3.793   2.548 -0.8921  0.1338 -0.2440
19310SOL     OW60561   8.199   0.667   3.763 -0.0760 -0.0236 -0.9216
19310SOL    HW160562   8.159   0.751   3.786 -0.2032 -0.9169  2.7603
19310SOL    HW260563   8.292   0.687   3.750 -0.1925  0.7831 -0.5964
19311SOL     OW60564   2.118   5.766   4.257  0.2447 -0.8212  0.3597
19311SOL    HW160565   2.115   5.675   4.226 -1.6823 -1.2783  1.6827
19311SOL    HW260566   2.162   5.760   4.342  1.7475 -0.1953 -0.3273
19312SOL     OW60567   4.779   9.130   5.538 -1.4212 -0.0443  0.5350
19312SOL    HW160568   4.832   9.195   5.586 -3.2525  0.8229  1.4698
19312SOL    HW260569   4.806   9.141   5.447  0.9472 -0.5752  1.1033
19313SOL     OW60570  10.191   5.525   2.970 -0.0993  0.1074  0.1042
19313SOL    HW160571  10.096   5.526   2.988 -0.0566 -1.0089  0.4806
19313SOL    HW260572  10.226   5.597   3.022 -0.7414  0.5170 -0.0196
19314SOL     OW60573   7.057   3.806   3.555  0.2899 -0.1277  0.0241
19314SOL    HW160574   7.104   3.889   3.548  0.0875 -0.0603 -0.5503
19314SOL    HW260575   7.073   3.777   3.645  0.2474  0.6020  0.2729
19315SOL     OW60576   8.730   8.411   3.138 -0.2846  0.2700  0.8167
19315SOL    HW160577   8.756   8.503   3.132  2.0754 -0.2581  1.6760
19315SOL    HW260578   8.683   8.394   3.056 -0.0891  2.0371  0.2955
19316SOL     OW60579   1.978   4.842   8.291 -0.1648 -0.1147 -0.4276
19316SOL    HW160580   2.021   4.856   8.206  0.8542  1.6799  0.3238
19316SOL    HW260581   1.969   4.930   8.328  0.7812 -0.9365  1.9521
19317SOL     OW60582   3.727   2.408   5.521 -0.0967  0.2858  0.3631
19317SOL    HW160583   3.771   2.334   5.479  0.1749  0.8903 -0.4245
19317SOL    HW260584   3.640   2.410   5.482  0.2296  0.9835 -0.3635
19318SOL     OW60585   7.919   5.516   1.802  0.7603  0.1034  0.0703
19318SOL    HW160586   7.824   5.525   1.810  0.8954 -0.0287  2.6390
19318SOL    HW260587   7.942   5.567   1.725 -1.4183 -0.0824 -0.7517
19319SOL     OW60588   0.056   2.220   7.433  0.5866 -0.4274  0.0308
19319SOL    HW160589   0.095   2.135   7.455 -0.2005 -0.6745  0.5362
19319SOL    HW260590  -0.029   2.198   7.395  1.7261  0.0079 -3.0410
19320SOL     OW60591   2.818   1.429   1.946 -0.2268  0.1417  0.6329
19320SOL    HW160592   2.774   1.476   1.874  0.9934 -1.8255 -1.5092
19320SOL    HW260593   2.816   1.337   1.920  1.0203 -0.5551  2.7497
19321SOL     OW60594  10.343   0.098   7.628 -0.2251  0.1504  0.0532
19321SOL    HW160595  10.324   0.086   7.721  1.2154  0.8740  0.4660
19321SOL    HW260596  10.438   0.105   7.623 -0.3990  2.8918 -1.1123
19322SOL     OW60597   7.426   1.796   7.541  0.3926  0.1299  0.0703
19322SOL    HW160598   7.348   1.841   7.509  0.9570  0.5168 -0.8321
19322SOL    HW260599   7.444   1.730   7.474  0.1698 -0.7473  0.8658
19323SOL     OW60600   0.442   5.743   9.101 -0.4604  0.2678  0.0435
19323SOL    HW160601   0.469   5.684   9.172  0.6164  0.0647 -0.5080
19323SOL    HW260602   0.427   5.685   9.027  1.1000  0.6932 -0.6479
19324SOL     OW60603  10.230   5.895   1.184  0.1981  0.0313  0.2645
19324SOL    HW160604  10.253   5.841   1.109  0.5666 -0.7679  0.9398
19324SOL    HW260605  10.146   5.860   1.214  0.4856 -0.2419  0.7638
19325SOL     OW60606   2.154   7.665   1.013 -0.3973  0.0823  0.0675
19325SOL    HW160607   2.094   7.620   1.073 -1.5007 -0.1203 -1.1190
19325SOL    HW260608   2.127   7.635   0.926  1.2111  0.2855 -0.5392
19326SOL     OW60609   2.581   3.792   2.998  0.1064  0.6316  0.0746
19326SOL    HW160610   2.655   3.837   3.038  2.6956 -1.2291 -2.2175
19326SOL    HW260611   2.604   3.788   2.905 -2.4177 -0.9227 -0.5628
19327SOL     OW60612   3.744   9.941   8.976 -0.0740 -0.4655 -0.0244
19327SOL    HW160613   3.788  10.023   8.996 -1.2192  0.2869 -0.4928
19327SOL    HW260614   3.804   9.895   8.917  0.1868  0.4360 -0.4764
19328SOL     OW60615  10.266   2.035   0.035  0.4519  0.0880  0.5664
19328SOL    HW160616  10.255   2.109   0.095  1.7686  1.4403 -0.7587
19328SOL    HW260617  10.176   2.012   0.010  0.0058  1.2466  1.0178
19329SOL     OW60618   6.592   0.424   4.688 -0.2449  0.5810  0.2664
19329SOL    HW160619   6.520   0.428   4.750 -0.8285  0.8095 -0.4198
19329SOL    HW260620   6.590   0.335   4.654 -1.7364  1.2366 -1.5238
19330SOL     OW60621   0.405   5.110  10.097  0.3582  0.3453 -0.5569
19330SOL    HW160622   0.309   5.105  10.100  0.3471  0.6280 -0.4381
19330SOL    HW260623   0.435   5.053  10.167  0.2264  2.2114  1.0858
19331SOL     OW60624   3.573   0.042   7.663 -0.1963 -0.3108  0.2260
19331SOL    HW160625   3.571  -0.008   7.745 -0.0220 -1.9350 -0.7184
19331SOL    HW260626   3.662   0.031   7.630 -0.3652  0.0499 -0.3570
19332SOL     OW60627   5.998   4.415   2.789  0.3862  0.4015 -0.0934
19332SOL    HW160628   6.015   4.347   2.854 -1.0770  0.1131  0.0329
19332SOL    HW260629   6.029   4.378   2.707  3.0106  1.0885  0.5009
19333SOL     OW60630   6.354   7.526   4.966  0.0960 -0.0445  0.2819
19333SOL    HW160631   6.425   7.567   5.015  1.6699 -1.4144 -0.7395
19333SOL    HW260632   6.376   7.433   4.963 -1.2458 -0.3738 -0.8842
19334SOL     OW60633   2.114   7.829   8.857 -0.3383 -0.2616  0.8326
19334SOL    HW160634   2.181   7.898   8.852  0.4059 -0.9876  0.5351
19334SOL    HW260635   2.059   7.844   8.780  0.4458 -0.6225  0.1932
19335SOL     OW60636   7.723   4.774   4.476  0.2511  0.3306  0.6440
19335SOL    HW160637   7.661   4.714   4.435  1.1983 -0.3442  0.1582
19335SOL    HW260638   7.759   4.825   4.403  0.6321  0.3745  0.8615
19336SOL     OW60639   9.611   5.501   6.081 -0.2609  0.3828 -0.4083
19336SOL    HW160640   9.655   5.527   6.162  0.3724  1.4479 -1.0767
19336SOL    HW260641   9.654   5.420   6.056  0.0550  0.4434 -0.0739
19337SOL     OW60642   8.378   7.540   8.299 -0.6144 -0.1006  0.2303
19337SOL    HW160643   8.418   7.606   8.355 -1.4665  1.8917 -1.3712
19337SOL    HW260644   8.284   7.546   8.319 -0.7563 -0.4640 -0.3163
19338SOL     OW60645   6.200   8.453   9.028  0.0616  0.7219 -0.2186
19338SOL    HW160646   6.260   8.508   8.977 -0.2229  0.6715 -0.6115
19338SOL    HW260647   6.130   8.430   8.966  0.0134  0.1788  0.0320
19339SOL     OW60648   1.524   3.287   8.149  0.2044  0.0546  0.1481
19339SOL    HW160649   1.509   3.207   8.097  0.0611 -0.4932  1.0087
19339SOL    HW260650   1.471   3.354   8.106  1.2398  0.0055 -1.3018
19340SOL     OW60651   8.877   4.207   2.798  0.6480 -0.1790  0.0119
19340SOL    HW160652   8.860   4.236   2.709  0.6477 -1.2552 -0.3492
19340SOL    HW260653   8.882   4.288   2.849  0.5498  0.4403 -0.9400
19341SOL     OW60654   3.596   7.816   3.411 -0.6628 -0.0104  0.1431
19341SOL    HW160655   3.591   7.798   3.505  0.4663 -2.5715 -0.1913
19341SOL    HW260656   3.679   7.776   3.384  0.1060  2.5112 -1.6218
19342SOL     OW60657   8.925   1.656   2.949  0.4662  0.6489  0.1094
19342SOL    HW160658   9.013   1.661   2.912  0.3629 -0.6151 -0.3575
19342SOL    HW260659   8.939   1.622   3.038  0.3391 -1.8012 -0.7237
19343SOL     OW60660   7.569   7.848   7.761  0.1120  0.7484  0.2811
19343SOL    HW160661   7.506   7.833   7.831  0.0012  0.0178  0.0261
19343SOL    HW260662   7.655   7.842   7.803  0.0647 -0.3499  0.2347
19344SOL     OW60663   3.413   2.531   6.397  0.6889  0.5544  0.2071
19344SOL    HW160664   3.425   2.603   6.335  0.5857  1.7498  1.5198
19344SOL    HW260665   3.349   2.564   6.460  0.7690 -0.6243  0.9387
19345SOL     OW60666   9.247   5.724   2.435  0.0503 -0.1040  0.0717
19345SOL    HW160667   9.161   5.752   2.406  0.4222  0.7809 -0.2054
19345SOL    HW260668   9.281   5.670   2.363  0.4425  1.0215 -0.6215
19346SOL     OW60669   1.349   3.487   2.470 -0.2369  0.5413  0.2540
19346SOL    HW160670   1.292   3.565   2.470 -0.6450  0.2539 -0.8645
19346SOL    HW260671   1.422   3.511   2.413 -0.0302  0.3411  0.4362
19347SOL     OW60672   7.798   8.162   4.406  1.0266 -0.5198  0.1904
19347SOL    HW160673   7.861   8.166   4.334  1.7243  0.1806  0.8316
19347SOL    HW260674   7.818   8.079   4.450  1.6322 -0.2074  0.5088
19348SOL     OW60675   8.134   4.395   0.591 -0.3837  0.5627  0.2653
19348SOL    HW160676   8.194   4.462   0.558  0.3074  0.0555  0.4687
19348SOL    HW260677   8.188   4.317   0.599 -1.3432 -0.2419 -0.7014
19349SOL     OW60678   8.522   5.701  10.077 -0.1365  0.7861 -0.0681
19349SOL    HW160679   8.441   5.738  10.040 -0.9819  0.2222  1.1645
19349SOL    HW260680   8.495   5.663  10.160  1.3715  0.3687  0.2525
19350SOL     OW60681   4.702  10.114   1.817 -0.3359 -0.2585 -0.3044
19350SOL    HW160682   4.708  10.129   1.723 -1.0506  0.4149 -0.2513
19350SOL    HW260683   4.728  10.198   1.856 -3.0606  0.5303  0.0222
19351SOL     OW60684   3.916   2.994   0.537 -0.2416  0.1028 -0.3365
19351SOL    HW160685   3.875   2.917   0.575  1.0484 -0.6083 -0.3235
19351SOL    HW260686   3.986   3.017   0.598 -0.7000  1.3826 -0.2662
19352SOL     OW60687  10.095   7.702   8.623 -0.8056 -0.2228 -0.2298
19352SOL    HW160688  10.181   7.709   8.663 -1.3606 -1.5078  1.2863
19352SOL    HW260689  10.111   7.666   8.536  0.1985 -0.3178 -0.0097
19353SOL     OW60690   8.119   5.599   0.471  0.1410  0.0782 -0.0872
19353SOL    HW160691   8.204   5.603   0.514  1.1936  1.8736 -2.1160
19353SOL    HW260692   8.125   5.525   0.411 -0.6431 -1.2595  1.4250
19354SOL     OW60693   0.023   1.612   2.617 -0.6237 -0.0892 -0.4141
19354SOL    HW160694   0.107   1.644   2.585 -0.9741 -0.3012 -1.5708
19354SOL    HW260695   0.029   1.621   2.713  0.2267  1.0713 -0.5566
19355SOL     OW60696   4.972   9.163   7.820  0.4670  0.0628  0.1964
19355SOL    HW160697   5.035   9.233   7.807  1.5026 -0.3537  2.3806
19355SOL    HW260698   4.904   9.202   7.875  0.6221 -0.3813  0.7202
19356SOL     OW60699   7.488   8.287   6.776 -0.0278 -0.3454 -0.0820
19356SOL    HW160700   7.504   8.313   6.867 -1.8752  0.3293  0.0812
19356SOL    HW260701   7.416   8.225   6.781 -0.5397  0.1350 -1.1138
19357SOL     OW60702   6.364   4.461   4.248  0.0457 -0.8523 -0.5755
19357SOL    HW160703   6.450   4.496   4.270 -0.3663  0.8104 -1.4724
19357SOL    HW260704   6.314   4.537   4.218 -1.5378 -1.8928 -0.6896
19358SOL     OW60705   9.092   9.761   7.023  0.0501  0.2300 -0.0254
19358SOL    HW160706   9.044   9.678   7.021 -0.4620  0.5246 -1.3693
19358SOL    HW260707   9.130   9.765   7.111 -0.5380 -1.0678  0.3150
19359SOL     OW60708   8.072   3.735   8.265  0.2254  0.2689  0.6933
19359SOL    HW160709   8.004   3.740   8.332 -0.7575 -0.7003 -0.2074
19359SOL    HW260710   8.154   3.749   8.313 -0.4971  0.1684  1.9953
19360SOL     OW60711  10.150   8.499   9.698  0.3614 -0.2125  0.0965
19360SOL    HW160712  10.137   8.406   9.682 -0.7538 -0.4012  1.8214
19360SOL    HW260713  10.155   8.507   9.793 -1.1662  1.6585  0.0949
19361SOL     OW60714   9.167   2.267   0.562  0.3333  0.8355  0.3220
19361SOL    HW160715   9.084   2.304   0.594  0.4408  1.5243 -0.1650
19361SOL    HW260716   9.218   2.344   0.535  0.8606  0.3702 -0.0163
19362SOL     OW60717  10.091   1.799   4.996  0.1824  0.1354  0.1978
19362SOL    HW160718  10.148   1.763   4.928 -0.3792 -1.9304  0.7502
19362SOL    HW260719  10.117   1.891   5.002  2.3602 -0.3506 -0.6599
19363SOL     OW60720   7.639   5.443   8.548 -0.2583 -0.3024 -0.1078
19363SOL    HW160721   7.606   5.394   8.624  1.0641 -2.6353 -0.9459
19363SOL    HW260722   7.572   5.510   8.532 -1.3611 -0.7872  2.0936
19364SOL     OW60723   2.290   2.729  10.103 -0.4915  0.0070 -0.2386
19364SOL    HW160724   2.364   2.759  10.050 -1.2262 -0.6412 -1.6823
19364SOL    HW260725   2.216   2.779  10.070 -1.0468 -0.7587 -0.1716
19365SOL     OW60726   7.347   8.149   7.183 -0.3784 -0.1088 -0.1278
19365SOL    HW160727   7.302   8.078   7.138  0.0357 -0.3377 -0.1886
19365SOL    HW260728   7.399   8.106   7.251  1.0720 -0.0340 -1.1335
19366SOL     OW60729   0.019   2.617   6.157  0.3694  0.2379 -0.3784
19366SOL    HW160730   0.046   2.545   6.213  0.9086 -2.1268 -3.4365
19366SOL    HW260731   0.098   2.670   6.145  0.8153 -0.4805 -0.6210
19367SOL     OW60732   3.636   1.110  10.091  0.3179 -0.0759  0.4744
19367SOL    HW160733   3.548   1.078  10.073 -0.1998  0.2974  2.2126
19367SOL    HW260734   3.631   1.205  10.082  1.0142 -0.1669 -1.2296
19368SOL     OW60735   2.969   1.470   4.608  0.4568 -0.6246 -0.1547
19368SOL    HW160736   2.938   1.462   4.698 -0.0482  1.1215 -0.1306
19368SOL    HW260737   2.890   1.488   4.557  0.7964 -1.1694 -0.8773
19369SOL     OW60738   7.417   7.868   5.426  0.1176 -0.2016  0.4713
19369SOL    HW160739   7.407   7.805   5.497 -0.6766  1.0002  1.4611
19369SOL    HW260740   7.332   7.869   5.383 -0.3275  1.1924  1.3400
19370SOL     OW60741   6.517   6.197   4.679 -0.4904 -0.0870  0.0623
19370SOL    HW160742   6.522   6.291   4.664  0.2434 -0.2614 -0.8744
19370SOL    HW260743   6.444   6.167   4.625 -0.9562 -0.0177  0.6375
19371SOL     OW60744   0.774   7.652   9.509 -0.6936 -0.4415 -0.0055
19371SOL    HW160745   0.794   7.744   9.529 -1.9479  0.2236 -1.5569
19371SOL    HW260746   0.733   7.655   9.422 -0.3212 -2.5405 -0.2987
19372SOL     OW60747   7.008   1.945   6.525  0.0799 -0.5080  0.2250
19372SOL    HW160748   7.061   1.894   6.465  0.6840  1.3879 -0.9241
19372SOL    HW260749   6.922   1.950   6.483  0.0676 -0.4536  0.2561
19373SOL     OW60750   2.007   8.509   9.039  0.0142  0.5159  0.1379
19373SOL    HW160751   2.027   8.450   8.966 -0.4481 -0.5929  0.8862
19373SOL    HW260752   1.923   8.477   9.073  0.4896  0.6806  1.4935
19374SOL     OW60753   6.333   7.932   2.553  0.0039  0.7805  0.9143
19374SOL    HW160754   6.314   8.026   2.562 -0.3106  0.8487 -0.3530
19374SOL    HW260755   6.300   7.908   2.467  2.9905  0.2429 -0.2294
19375SOL     OW60756   4.669   4.203   6.503 -0.0810  0.2719  0.6027
19375SOL    HW160757   4.720   4.128   6.474  0.0530 -0.7078  3.1268
19375SOL    HW260758   4.602   4.214   6.435 -0.0119 -2.0278  0.0746
19376SOL     OW60759   9.163   1.895   6.514  0.1445 -0.1508 -0.1695
19376SOL    HW160760   9.203   1.841   6.582  0.0986 -2.0276 -1.5620
19376SOL    HW260761   9.234   1.913   6.452 -0.5397 -1.3839 -1.3630
19377SOL     OW60762   6.686   7.774   9.894 -0.1070 -0.5883 -0.5142
19377SOL    HW160763   6.678   7.762   9.989 -1.1885 -1.0853 -0.6595
19377SOL    HW260764   6.735   7.698   9.864 -0.3774 -0.7893 -0.4452
19378SOL     OW60765   9.222   9.010   8.738 -0.3624 -0.1479  0.4560
19378SOL    HW160766   9.227   9.094   8.785  0.0076 -0.4251  0.9115
19378SOL    HW260767   9.132   8.981   8.750 -0.5891  0.3507  0.0051
19379SOL     OW60768   2.959   9.130   6.032 -1.3631  0.4907  0.7044
19379SOL    HW160769   3.045   9.107   6.068 -0.6536  2.0247  0.1084
19379SOL    HW260770   2.932   9.052   5.983 -0.7530 -0.3594  1.6765
19380SOL     OW60771   5.482   0.660  10.173  0.4016  0.3653  0.5213
19380SOL    HW160772   5.487   0.618  10.087  2.0313 -0.6506  1.0793
19380SOL    HW260773   5.474   0.753  10.154 -1.3515  0.0239 -0.7263
19381SOL     OW60774   9.601   2.365   1.259 -0.2941 -0.1271  0.0458
19381SOL    HW160775   9.506   2.350   1.258 -0.3039 -0.2447  1.4016
19381SOL    HW260776   9.623   2.381   1.167 -1.7905  0.9399 -0.1728
19382SOL     OW60777   4.151   6.555   7.418  0.1482  0.6012 -0.1294
19382SOL    HW160778   4.208   6.594   7.352 -1.2626  0.7799 -1.2817
19382SOL    HW260779   4.117   6.631   7.467  2.6864  0.4016  2.1897
19383SOL     OW60780   4.272   1.830  10.005  0.1435  0.0625 -0.3737
19383SOL    HW160781   4.253   1.909  10.056  0.1760  0.5744 -1.1527
19383SOL    HW260782   4.241   1.759  10.061 -1.8426  0.7209 -0.5321
19384SOL     OW60783   3.560   3.434   3.252  0.2125 -0.0779 -0.3883
19384SOL    HW160784   3.629   3.411   3.190  1.9820  3.0174  0.2222
19384SOL    HW260785   3.554   3.358   3.309  1.6487 -1.2657 -1.7057
19385SOL     OW60786   1.223   7.468   5.962 -0.1739  0.4071 -0.9642
19385SOL    HW160787   1.179   7.436   6.040  0.0015 -0.0268 -1.0412
19385SOL    HW260788   1.159   7.454   5.891  0.4777 -1.2175 -1.2546
19386SOL     OW60789   8.597   4.007   5.488  0.0730 -0.3846  0.3577
19386SOL    HW160790   8.641   4.079   5.534  2.8091 -1.6548 -0.0641
19386SOL    HW260791   8.667   3.965   5.438 -1.9127 -1.8936 -1.2983
19387SOL     OW60792   6.383   1.280   0.711  0.0184  0.0570 -0.0817
19387SOL    HW160793   6.442   1.206   0.699  0.4173 -0.0106  1.9730
19387SOL    HW260794   6.339   1.290   0.627  1.4660 -1.1895 -1.0294
19388SOL     OW60795   5.601   3.315   2.172 -0.2146  0.3309  0.2440
19388SOL    HW160796   5.632   3.321   2.262  1.1161 -1.5031 -0.0282
19388SOL    HW260797   5.652   3.380   2.124  0.2282  0.1953  0.5319
19389SOL     OW60798   3.105   7.982   5.434 -0.6615 -0.2233 -0.3446
19389SOL    HW160799   3.112   7.993   5.529  0.2411  1.5424 -0.5786
19389SOL    HW260800   3.039   7.913   5.423 -2.2161  0.8488  1.5269
19390SOL     OW60801   0.126   9.271   0.427  0.1802  0.5035  0.8809
19390SOL    HW160802   0.062   9.210   0.390  0.4987  0.3866  0.5129
19390SOL    HW260803   0.078   9.320   0.493  0.0148 -0.4418  1.4871
19391SOL     OW60804   3.705   1.536   7.152 -0.5031 -0.1289 -0.1236
19391SOL    HW160805   3.671   1.616   7.113  0.5772  0.3380 -0.1441
19391SOL    HW260806   3.684   1.543   7.245 -2.7520 -1.0693 -0.4961
19392SOL     OW60807   3.632   0.073   1.553 -0.2676  0.1771 -0.2378
19392SOL    HW160808   3.621   0.086   1.648  0.7096 -0.2268 -0.0586
19392SOL    HW260809   3.597  -0.015   1.537 -0.5321  0.2873 -0.2818
19393SOL     OW60810   3.819   6.120   6.620 -0.1026 -0.3850  0.3041
19393SOL    HW160811   3.735   6.149   6.585  0.8277  0.4421 -1.3279
19393SOL    HW260812   3.811   6.133   6.714 -0.4171  3.5048 -0.1274
19394SOL     OW60813   7.171   8.823   1.451  0.5432 -0.1715  0.3688
19394SOL    HW160814   7.242   8.764   1.427 -0.0666 -1.1230  0.8437
19394SOL    HW260815   7.155   8.875   1.372 -0.1336 -1.9087 -0.6919
19395SOL     OW60816   2.812   1.939  10.203  0.2007  0.6144 -0.0486
19395SOL    HW160817   2.828   1.915  10.295  0.4472  0.3320 -0.1619
19395SOL    HW260818   2.732   1.892  10.180 -0.2059  1.1695  0.1987
19396SOL     OW60819   8.232   7.139   9.487  0.1116 -0.8394 -0.5809
19396SOL    HW160820   8.149   7.144   9.440 -1.2356  0.8669  1.7332
19396SOL    HW260821   8.229   7.056   9.535 -0.7158 -0.3642  0.2113
19397SOL     OW60822   6.827   3.988   3.692  0.3192  0.4299  0.1677
19397SOL    HW160823   6.756   4.046   3.718  0.8372  0.2317  2.1794
19397SOL    HW260824   6.810   3.969   3.599 -1.5379  1.3535  0.2786
19398SOL     OW60825   8.930   5.141   8.268 -0.0836  0.3444  0.0538
19398SOL    HW160826   8.992   5.172   8.202 -0.2879 -0.5037 -0.5540
19398SOL    HW260827   8.860   5.100   8.217  0.3779 -1.4853  0.8207
19399SOL     OW60828   3.143   6.958   4.421  0.4238  0.3294 -0.8998
19399SOL    HW160829   3.150   6.984   4.329  0.8298 -1.2500 -1.3525
19399SOL    HW260830   3.080   6.886   4.420  0.5304  0.2219  0.0411
19400SOL     OW60831   7.865   3.141   1.653  0.7229  0.1752  0.1094
19400SOL    HW160832   7.780   3.159   1.614  0.9764  0.9066 -0.1157
19400SOL    HW260833   7.899   3.227   1.679  1.9218  0.0521 -0.9150
19401SOL     OW60834   7.901   9.130   8.852 -0.0849 -0.3556 -0.4099
19401SOL    HW160835   7.846   9.197   8.812 -0.6555 -0.2840  0.4633
19401SOL    HW260836   7.855   9.048   8.835 -0.8659 -0.2263  0.9300
19402SOL     OW60837   1.019   4.494  10.343 -0.2883  0.3028  0.3548
19402SOL    HW160838   0.948   4.537  10.389 -1.0772  0.8958 -1.3345
19402SOL    HW260839   1.010   4.401  10.367 -0.1776  0.6713  1.9516
19403SOL     OW60840   4.352   0.952   5.674  0.2987 -0.2314  0.0337
19403SOL    HW160841   4.387   0.870   5.639 -1.0632 -0.9691  0.3227
19403SOL    HW260842   4.308   0.992   5.599 -1.2354 -1.0383  0.4482
19404SOL     OW60843   9.031   7.038   5.413 -0.4693 -0.3615 -0.3538
19404SOL    HW160844   9.057   7.114   5.361 -1.3672  0.2527  0.0497
19404SOL    HW260845   8.984   7.076   5.487  1.3540 -1.1713  1.2860
19405SOL     OW60846   7.783   7.692   9.089 -0.5062  0.4629  0.1763
19405SOL    HW160847   7.768   7.675   9.182  0.5110 -1.1525  0.0748
19405SOL    HW260848   7.865   7.647   9.069  0.8183  3.1005 -0.8843
19406SOL     OW60849   5.890   3.305   2.093  0.2289 -0.2842 -0.4871
19406SOL    HW160850   5.979   3.275   2.112  0.2071 -0.5554 -0.8068
19406SOL    HW260851   5.844   3.226   2.065  0.0069 -0.0584 -0.7513
19407SOL     OW60852   8.719   5.222   0.335  0.5801  0.2809  0.3233
19407SOL    HW160853   8.691   5.132   0.319  1.7959 -0.0521 -0.0949
19407SOL    HW260854   8.725   5.229   0.430 -0.6838  0.3107  0.4136
19408SOL     OW60855   6.806   3.176   8.972  0.3051  0.1645 -0.6268
19408SOL    HW160856   6.773   3.091   8.940  0.6324 -0.5057  0.7379
19408SOL    HW260857   6.738   3.239   8.948  0.0691 -0.4747 -1.6917
19409SOL     OW60858   2.431   7.648   9.510  0.3632 -0.0127 -0.3473
19409SOL    HW160859   2.444   7.554   9.527  0.7672 -0.0198 -0.6779
19409SOL    HW260860   2.512   7.676   9.466 -0.0109  0.3484 -0.8196
19410SOL     OW60861   0.946   9.852   5.166 -0.0971  0.1744  0.0943
19410SOL    HW160862   0.866   9.799   5.167  0.2808 -0.4588 -1.3493
19410SOL    HW260863   1.017   9.789   5.168  0.3899  0.7204  0.6567
19411SOL     OW60864   9.240   3.660   5.668  0.3894 -0.0984 -0.5055
19411SOL    HW160865   9.309   3.599   5.693 -0.0737 -0.4217  0.0295
19411SOL    HW260866   9.247   3.732   5.730  0.3763 -0.0370 -0.5750
19412SOL     OW60867   3.511   1.257   1.932  0.4587  0.3989  0.1623
19412SOL    HW160868   3.490   1.175   1.886 -1.1011  0.7823  0.1129
19412SOL    HW260869   3.523   1.231   2.023  1.6820 -0.1037 -0.1253
19413SOL     OW60870   3.057   3.155   2.312  0.0599  0.8080 -0.4193
19413SOL    HW160871   2.985   3.214   2.333 -0.8963 -0.7248  0.7998
19413SOL    HW260872   3.016   3.079   2.272  1.1826  0.5991 -1.2324
19414SOL     OW60873  10.068   3.917   4.810 -0.4376  0.5413 -0.1012
19414SOL    HW160874  10.110   4.000   4.790 -1.1550  0.9254 -0.0656
19414SOL    HW260875  10.132   3.869   4.863  0.4673  0.5503 -1.1508
19415SOL     OW60876   5.425   5.935   4.823 -0.6331  0.1336  0.2334
19415SOL    HW160877   5.397   5.861   4.769 -1.8197 -1.0194  2.3210
19415SOL    HW260878   5.482   5.896   4.889  0.3020  1.4190  0.2278
19416SOL     OW60879   2.481   6.081   6.150 -0.6030  0.1870  0.8001
19416SOL    HW160880   2.506   6.156   6.204 -2.6193  1.0721  0.5630
19416SOL    HW260881   2.389   6.066   6.169 -0.6242 -1.3140 -0.2689
19417SOL     OW60882  10.181   0.119   7.177 -0.1069 -0.3508  0.0030
19417SOL    HW160883  10.217   0.060   7.111 -1.2701 -0.8888 -0.1692
19417SOL    HW260884  10.181   0.068   7.258 -0.2374 -0.2622  0.0598
19418SOL     OW60885   2.289   5.558   9.123 -0.7013  0.0688 -0.1828
19418SOL    HW160886   2.289   5.651   9.148 -0.5285 -0.4705  2.0224
19418SOL    HW260887   2.377   5.527   9.145 -1.0221 -0.8028 -0.0972
19419SOL     OW60888   9.080   2.455   2.712  0.1130 -0.0412 -0.4744
19419SOL    HW160889   9.069   2.549   2.723  2.4767  0.1884  0.6566
19419SOL    HW260890   9.097   2.443   2.618 -2.6372  0.2849 -1.0829
19420SOL     OW60891   9.592   6.658   1.444 -0.4538  0.6525  0.1069
19420SOL    HW160892   9.608   6.679   1.352  1.2249  2.3793  0.7324
19420SOL    HW260893   9.512   6.704   1.466 -1.2668 -0.3565 -0.6391
19421SOL     OW60894   6.139   2.643   5.440 -0.4015 -0.3686 -0.3915
19421SOL    HW160895   6.065   2.692   5.404 -0.5688 -1.4002 -1.5152
19421SOL    HW260896   6.128   2.650   5.534 -1.4157  0.2600 -0.5354
19422SOL     OW60897   1.154   4.526   1.964  0.2361 -0.4272 -0.2743
19422SOL    HW160898   1.242   4.490   1.955  0.2207 -0.4720 -0.2476
19422SOL    HW260899   1.166   4.621   1.958  0.0046 -0.4971 -2.5891
19423SOL     OW60900   8.451   7.209   6.725  0.3731 -0.1520 -0.1606
19423SOL    HW160901   8.396   7.176   6.654  2.1196 -1.4356 -1.0086
19423SOL    HW260902   8.464   7.134   6.783  1.8661 -0.1268 -0.4211
19424SOL     OW60903   5.661   5.375   5.541 -0.4285 -0.2407  0.3064
19424SOL    HW160904   5.732   5.322   5.577  0.9372  2.3697  1.7235
19424SOL    HW260905   5.602   5.389   5.615 -0.1566  1.1266  0.2840
19425SOL     OW60906   7.155   9.803   2.347 -0.0643  0.1868  0.1124
19425SOL    HW160907   7.166   9.791   2.442 -0.6252 -0.7177  0.0739
19425SOL    HW260908   7.234   9.764   2.309 -0.1097  0.0205  0.1856
19426SOL     OW60909   8.475   8.258   9.199  0.0314 -0.2128 -0.4308
19426SOL    HW160910   8.384   8.230   9.186  0.4640 -1.1687 -1.5598
19426SOL    HW260911   8.487   8.330   9.137 -0.3520  0.9219  0.7506
19427SOL     OW60912   6.717   6.119   0.982  0.3007  0.0716 -0.4237
19427SOL    HW160913   6.682   6.130   0.893  0.2940  0.8147 -0.3354
19427SOL    HW260914   6.793   6.177   0.985  1.3444 -1.2196 -0.4876
19428SOL     OW60915   0.013   5.260   2.149 -0.5099 -0.6262  0.5930
19428SOL    HW160916   0.019   5.315   2.227 -1.0628 -0.4031  0.4863
19428SOL    HW260917  -0.026   5.317   2.083 -1.6545 -1.3108  0.6491
19429SOL     OW60918   1.178   8.835   7.323 -0.3561  0.3145 -0.0826
19429SOL    HW160919   1.158   8.922   7.287  0.5795  0.7337  0.3805
19429SOL    HW260920   1.272   8.836   7.338 -0.4584 -0.4967  0.7065
19430SOL     OW60921   3.859   8.883   2.454 -0.0665  0.2339 -0.2856
19430SOL    HW160922   3.946   8.905   2.485  0.8088 -2.2097 -0.8322
19430SOL    HW260923   3.842   8.947   2.384  0.7276  1.5210  0.6625
19431SOL     OW60924   8.352   3.106   2.870 -0.1834 -0.5171  0.0741
19431SOL    HW160925   8.425   3.106   2.932 -0.0604  1.5399  0.0177
19431SOL    HW260926   8.290   3.168   2.907 -0.5808 -0.0384 -1.3077
19432SOL     OW60927   2.716   5.588   5.416  0.8560 -0.1554 -0.4011
19432SOL    HW160928   2.781   5.657   5.422  1.8432 -1.1749  1.5018
19432SOL    HW260929   2.759   5.519   5.365  0.5252 -0.0547 -0.8193
19433SOL     OW60930   5.861   7.748   8.936  0.8253 -0.4392 -0.4586
19433SOL    HW160931   5.802   7.792   8.996  0.5347 -0.8370 -0.4521
19433SOL    HW260932   5.806   7.684   8.890  1.0083 -0.0451 -1.2469
19434SOL     OW60933   7.581   2.142   6.207 -0.2133  0.7564 -0.0370
19434SOL    HW160934   7.597   2.102   6.121  0.3120 -2.8482  1.5716
19434SOL    HW260935   7.492   2.114   6.229  0.4213 -0.2247  1.4285
19435SOL     OW60936   9.958   0.899   5.996 -0.2692 -0.0659 -0.4633
19435SOL    HW160937  10.050   0.918   6.015  0.4133  0.3024 -3.5376
19435SOL    HW260938   9.912   0.915   6.078  2.5290 -1.3905  1.5110
19436SOL     OW60939   5.744   3.100   2.025  0.2478 -0.9079 -0.0278
19436SOL    HW160940   5.779   3.011   2.017 -1.9967 -1.7627 -1.6060
19436SOL    HW260941   5.657   3.088   2.062 -0.0324  0.6559 -0.1025
19437SOL     OW60942   1.975  10.006   3.910  0.4629  0.2523 -0.3202
19437SOL    HW160943   1.932   9.921   3.918  0.4273  0.3172  0.1640
19437SOL    HW260944   1.990  10.016   3.815  1.1970 -0.6519 -0.3187
19438SOL     OW60945   4.459   2.326   1.835  0.4558 -0.6452  0.0149
19438SOL    HW160946   4.519   2.351   1.906  1.4910 -0.4188 -0.9186
19438SOL    HW260947   4.424   2.242   1.863  0.8972 -0.5921  0.7750
19439SOL     OW60948   4.665   4.133   7.996  1.1164 -0.2591  0.4856
19439SOL    HW160949   4.753   4.143   8.031  1.7994 -1.7745 -0.6674
19439SOL    HW260950   4.677   4.084   7.915 -0.9285 -2.1327  1.2182
19440SOL     OW60951   6.190   9.519   9.352  0.2686 -0.3315  0.2096
19440SOL    HW160952   6.190   9.428   9.323  1.3022 -0.2000 -0.2395
19440SOL    HW260953   6.242   9.518   9.432 -0.4246 -0.2683  0.6651
19441SOL     OW60954   6.363   6.589   5.232  0.6758  0.4501  0.5164
19441SOL    HW160955   6.437   6.539   5.266 -1.3485 -1.5208  2.3798
19441SOL    HW260956   6.376   6.591   5.137  3.2774  0.5897  0.8107
19442SOL     OW60957   3.157   5.216   1.528  0.1450 -0.2803  0.1220
19442SOL    HW160958   3.098   5.187   1.598  0.5319  1.0380  1.0174
19442SOL    HW260959   3.204   5.291   1.564  0.6057  0.2365 -1.4370
19443SOL     OW60960   0.891   2.326   0.919  0.4885  0.4760 -0.0301
19443SOL    HW160961   0.887   2.419   0.943 -1.2235  0.5493 -0.4779
19443SOL    HW260962   0.956   2.289   0.978  0.5698  1.7839  0.7449
19444SOL     OW60963   7.088   2.427   0.928 -0.2280  0.0065 -0.5816
19444SOL    HW160964   7.021   2.438   0.996 -0.0464  0.3067 -0.4464
19444SOL    HW260965   7.059   2.352   0.877  0.2844 -1.0398  0.6183
19445SOL     OW60966   3.096   6.660   2.185 -0.1492  0.1417 -0.4805
19445SOL    HW160967   3.174   6.711   2.209  1.4195 -2.3771  0.2653
19445SOL    HW260968   3.122   6.615   2.104 -1.7623  1.0527 -1.5419
19446SOL     OW60969   7.406   4.666   3.163 -0.3759 -0.0653 -0.0987
19446SOL    HW160970   7.444   4.626   3.085  0.4274  2.0480 -0.8504
19446SOL    HW260971   7.319   4.626   3.170  0.8868 -3.0613  0.1611
19447SOL     OW60972   7.382   1.068   4.305 -0.1296 -0.1843 -0.2663
19447SOL    HW160973   7.321   1.005   4.342  1.2107 -2.3571 -1.5647
19447SOL    HW260974   7.454   1.071   4.367 -0.1552  0.0292 -0.2458
19448SOL     OW60975   9.535   5.735   0.535 -0.3776  0.1316  0.0135
19448SOL    HW160976   9.618   5.760   0.495 -0.1357 -0.1699  0.3200
19448SOL    HW260977   9.505   5.815   0.579 -0.3120  0.2773 -0.2091
19449SOL     OW60978   2.099   5.652   4.788  0.3515 -0.3608  0.2405
19449SOL    HW160979   2.019   5.682   4.832  0.6689  0.1554  0.4723
19449SOL    HW260980   2.139   5.592   4.850  1.5859  1.5134  1.3611
19450SOL     OW60981   6.085   9.913   7.793 -0.7948 -0.1778 -0.1716
19450SOL    HW160982   6.111   9.821   7.790  1.6654  0.4713 -0.6971
19450SOL    HW260983   6.038   9.922   7.876  1.4451 -1.3532  1.3344
19451SOL     OW60984   2.669   9.207   2.328  0.2736  0.4780 -0.5219
19451SOL    HW160985   2.693   9.174   2.242  1.8038 -0.7029  0.3099
19451SOL    HW260986   2.741   9.265   2.353  0.6209 -0.3928  0.5843
19452SOL     OW60987   4.473   6.325   3.033 -0.0971  0.9651 -0.1442
19452SOL    HW160988   4.463   6.269   2.956  1.3281  0.0351  0.3158
19452SOL    HW260989   4.537   6.391   3.007  0.5984  0.4819  0.3194
19453SOL     OW60990   1.260   4.597   9.560  0.2502  0.1919  0.7147
19453SOL    HW160991   1.206   4.557   9.492 -0.0547 -1.0619  1.6567
19453SOL    HW260992   1.318   4.657   9.512 -0.2767 -0.2928 -0.5831
19454SOL     OW60993   9.768   3.710   8.313 -0.1762 -0.3171  0.1223
19454SOL    HW160994   9.686   3.737   8.354 -1.4200 -1.4730 -1.4797
19454SOL    HW260995   9.741   3.660   8.236  2.0241  0.3478 -1.1814
19455SOL     OW60996   9.315   3.291   6.447 -0.0201 -0.0527  0.6412
19455SOL    HW160997   9.241   3.312   6.390 -1.0504 -1.9508  1.1886
19455SOL    HW260998   9.349   3.208   6.413  2.2315  1.0202  0.0915
19456SOL     OW60999   0.542   8.454   1.343  0.2848 -0.0133  0.6535
19456SOL    HW161000   0.602   8.506   1.289 -1.9878  1.7578 -0.3099
19456SOL    HW261001   0.501   8.517   1.401 -1.3372 -1.0029  0.6374
19457SOL     OW61002   3.932   4.520   6.222 -0.0111 -0.5375 -0.1617
19457SOL    HW161003   3.998   4.460   6.257  0.3247  0.5175  1.1210
19457SOL    HW261004   3.937   4.597   6.279  0.9005  1.5383 -2.8136
19458SOL     OW61005   9.719   6.593   2.342  0.2957  0.1754 -0.0916
19458SOL    HW161006   9.797   6.550   2.309  0.5218 -0.9303  1.7508
19458SOL    HW261007   9.752   6.672   2.386  0.5512 -0.8890  1.7038
19459SOL     OW61008   4.454   0.396   2.759 -0.1851  0.6594 -0.5255
19459SOL    HW161009   4.420   0.326   2.703 -0.8043  1.1474 -0.7716
19459SOL    HW261010   4.508   0.351   2.824 -0.7851 -0.0746 -0.5186
19460SOL     OW61011   4.103   9.114   0.745  0.4208 -0.0443  0.2779
19460SOL    HW161012   4.173   9.060   0.782  1.0438  0.4732 -0.1216
19460SOL    HW261013   4.088   9.079   0.658 -0.1915 -0.4837  0.5513
19461SOL     OW61014   2.707   5.067   6.177  0.2190 -0.0448 -0.6132
19461SOL    HW161015   2.761   5.064   6.256 -0.0396 -0.7626 -0.4587
19461SOL    HW261016   2.634   5.008   6.195 -0.6147  0.9138 -0.8318
19462SOL     OW61017   5.521   2.940   8.169  0.2340 -0.0847  0.2029
19462SOL    HW161018   5.505   2.995   8.246 -2.5847 -0.2371 -0.1553
19462SOL    HW261019   5.555   2.858   8.205  0.2250  0.3118  1.1525
19463SOL     OW61020   6.827   4.053   7.279  0.0147  0.1339  1.2146
19463SOL    HW161021   6.915   4.016   7.276  0.1579  0.5043  0.7362
19463SOL    HW261022   6.838   4.145   7.254 -0.3097  0.5605  2.5833
19464SOL     OW61023   8.790   3.891   4.669 -0.1145 -0.3448 -0.5880
19464SOL    HW161024   8.744   3.954   4.614  0.9896  0.0000 -1.1426
19464SOL    HW261025   8.828   3.943   4.739  1.5806 -0.2286 -1.5558
19465SOL     OW61026   8.940   0.494   4.256 -0.4509  0.0068  0.2484
19465SOL    HW161027   8.981   0.408   4.257 -1.5292 -0.6278 -2.3222
19465SOL    HW261028   9.013   0.556   4.249  0.3003 -0.6664  1.6432
19466SOL     OW61029   2.631   2.443   7.691 -0.1727 -0.7203  0.0999
19466SOL    HW161030   2.684   2.371   7.725  1.8042  0.8617  0.5710
19466SOL    HW261031   2.688   2.520   7.699 -2.4860  1.0567  0.4400
19467SOL     OW61032   7.168  10.241   2.038  0.7354 -0.1592  0.9719
19467SOL    HW161033   7.139  10.174   2.099  0.7508  0.8069  2.0690
19467SOL    HW261034   7.263  10.246   2.050  0.8439 -0.4827  0.3159
19468SOL     OW61035   8.783   3.186   9.780  0.1826 -0.6432  0.0568
19468SOL    HW161036   8.820   3.274   9.786 -1.2740 -0.0235  0.4588
19468SOL    HW261037   8.786   3.165   9.687 -0.7470  0.4402 -0.2441
19469SOL     OW61038   7.427   0.527   1.505 -0.2994 -0.1385  0.3321
19469SOL    HW161039   7.468   0.448   1.469 -1.5069 -0.0770 -1.3264
19469SOL    HW261040   7.358   0.549   1.441 -1.6356  0.8335  2.0212
19470SOL     OW61041   5.911   9.881   5.299 -0.0933  0.4178  0.0154
19470SOL    HW161042   5.924   9.861   5.391  0.2962 -0.3081 -0.1848
19470SOL    HW261043   5.828   9.929   5.296  0.7294  1.9866  0.9186
19471SOL     OW61044   6.092   8.978   5.176 -0.6695 -1.0728 -0.3301
19471SOL    HW161045   6.108   8.925   5.098  1.5414 -0.2545 -0.5152
19471SOL    HW261046   6.179   8.991   5.215 -1.5167 -0.1315  1.3906
19472SOL     OW61047   0.848   4.331   9.877  0.0116 -0.7053  0.0551
19472SOL    HW161048   0.884   4.397   9.818  0.7736 -2.1740 -1.1955
19472SOL    HW261049   0.920   4.309   9.936 -0.0528 -0.8405  0.0854
19473SOL     OW61050   5.905   9.293   2.606 -0.1590  0.1060  0.1550
19473SOL    HW161051   5.841   9.274   2.537  1.6685 -0.8384 -1.3807
19473SOL    HW261052   5.908   9.212   2.658 -0.9156  0.5222  0.8896
19474SOL     OW61053   9.851   2.306   2.102 -0.0549  0.4528 -0.4420
19474SOL    HW161054   9.759   2.331   2.106  0.0234  0.6436  0.5280
19474SOL    HW261055   9.898   2.381   2.139  0.4159  0.0480 -0.1958
19475SOL     OW61056   5.389   4.900   7.233 -0.2902  0.9127  0.1951
19475SOL    HW161057   5.391   4.995   7.219 -1.1647  0.6213 -2.4094
19475SOL    HW261058   5.295   4.878   7.231 -0.0782 -0.0338  0.4709
19476SOL     OW61059   1.373   4.391   5.657 -0.5991 -0.2399  0.0092
19476SOL    HW161060   1.409   4.353   5.577 -1.1360 -0.1113 -0.3003
19476SOL    HW261061   1.383   4.485   5.645 -1.2199 -0.1922 -0.1763
19477SOL     OW61062   9.366   3.336   5.111 -0.0963  0.5583 -0.4552
19477SOL    HW161063   9.275   3.350   5.084 -1.0034 -1.2548  1.3370
19477SOL    HW261064   9.403   3.279   5.044 -1.8145 -2.5607  1.0116
19478SOL     OW61065   6.295   7.960   4.999 -0.1556  0.3251 -0.4953
19478SOL    HW161066   6.335   7.976   5.085  1.3968 -1.3940 -0.8512
19478SOL    HW261067   6.203   7.941   5.019 -0.1400  1.2662  0.6319
19479SOL     OW61068   7.567   3.556   8.447  0.6399 -0.2214  0.4814
19479SOL    HW161069   7.647   3.609   8.454  0.2693  0.4704 -0.3695
19479SOL    HW261070   7.561   3.534   8.354 -0.8386  0.8540  0.2829
19480SOL     OW61071   8.406   4.071   2.607 -0.0110  0.4613 -0.5305
19480SOL    HW161072   8.435   4.115   2.527 -0.4375 -0.6322 -1.3149
19480SOL    HW261073   8.417   4.136   2.676  1.1243  1.1681 -1.3433
19481SOL     OW61074   7.343   9.652   7.922 -0.0050  0.1338 -1.3223
19481SOL    HW161075   7.341   9.746   7.940  0.4706 -0.1134  0.1374
19481SOL    HW261076   7.434   9.626   7.938 -0.2329 -0.6532 -1.2511
19482SOL     OW61077   7.753   4.085   5.556  0.1217  0.0970 -0.0187
19482SOL    HW161078   7.677   4.138   5.533 -0.0599 -0.2756 -0.2948
19482SOL    HW261079   7.771   4.107   5.648  0.5547  1.2366 -0.3657
19483SOL     OW61080   2.010   1.578   3.289 -0.0123 -0.1283  0.2098
19483SOL    HW161081   2.039   1.531   3.210 -2.3616 -2.4549  0.6105
19483SOL    HW261082   2.062   1.539   3.360  1.1913  1.0822  0.0428
19484SOL     OW61083   4.775   9.647   1.819  0.3026  0.4966 -0.2508
19484SOL    HW161084   4.855   9.697   1.801  1.1737 -0.9029 -0.3930
19484SOL    HW261085   4.749   9.675   1.907  1.7064  0.0020  0.3418
19485SOL     OW61086   5.506   4.802   8.618 -0.1858 -0.2393  0.3335
19485SOL    HW161087   5.497   4.707   8.627 -2.1042  0.0101  1.7209
19485SOL    HW261088   5.456   4.823   8.539  0.7602 -0.4157 -0.3319
19486SOL     OW61089   7.628   7.042   4.353  0.0871  0.3765  0.1237
19486SOL    HW161090   7.688   7.106   4.391  0.4874  0.6006 -0.8545
19486SOL    HW261091   7.683   6.990   4.294 -0.4245 -0.2677  0.2047
19487SOL     OW61092   4.055   3.948   0.851 -0.4295 -0.0702  0.4391
19487SOL    HW161093   4.146   3.933   0.874  0.3822 -0.0186 -2.3323
19487SOL    HW261094   4.040   4.041   0.869  0.3044  0.0832  0.2823
19488SOL     OW61095  10.332   0.942  10.201 -0.2063 -0.1235 -0.0819
19488SOL    HW161096  10.281   0.985  10.270 -0.6272 -1.0408  0.1916
19488SOL    HW261097  10.281   0.956  10.121  0.3552  1.0691 -0.2468
19489SOL     OW61098   6.294   4.494   1.680 -0.2346 -0.1619  0.0286
19489SOL    HW161099   6.302   4.418   1.739 -0.1871  0.4620  0.8456
19489SOL    HW261100   6.384   4.526   1.670 -0.3555  0.2867  0.3665
19490SOL     OW61101   9.399   8.029   4.290  0.4206  0.3234  0.3652
19490SOL    HW161102   9.340   7.954   4.298  1.4392 -0.7335 -1.4755
19490SOL    HW261103   9.357   8.087   4.228  0.0746  0.8582  1.0861
19491SOL     OW61104   7.532   5.134   2.002 -0.4459 -0.6925  0.4059
19491SOL    HW161105   7.484   5.214   2.025 -0.5925 -0.9434  0.9829
19491SOL    HW261106   7.602   5.164   1.944  0.4756  0.0854  1.8634
19492SOL     OW61107   1.508   8.540   9.542  0.0161 -0.2481  0.1973
19492SOL    HW161108   1.494   8.474   9.610  0.5279  0.5310  1.0752
19492SOL    HW261109   1.446   8.516   9.473  1.0843 -2.4120 -0.0829
19493SOL     OW61110   3.080   5.016   3.623  0.6185  0.1410 -0.0973
19493SOL    HW161111   3.173   5.040   3.624  0.9827 -1.1336  1.3395
19493SOL    HW261112   3.075   4.940   3.565  0.1855  1.1138 -1.3721
19494SOL     OW61113  10.304   4.565   8.098  0.2001  0.1000  0.1715
19494SOL    HW161114  10.273   4.633   8.038  2.9262  2.2934  1.0310
19494SOL    HW261115  10.273   4.592   8.184  1.9563  0.8113  0.6347
19495SOL     OW61116   8.105   4.063   1.163  0.0893 -0.0248  0.4432
19495SOL    HW161117   8.157   4.041   1.241 -0.4397  0.1526  0.8524
19495SOL    HW261118   8.022   4.094   1.198 -0.4242 -0.6324 -0.2068
19496SOL     OW61119   7.666   8.493   0.333  0.0790 -0.6142  0.1598
19496SOL    HW161120   7.574   8.469   0.323  0.0716  0.1894 -2.5152
19496SOL    HW261121   7.711   8.409   0.348 -0.7246 -1.5264 -2.0865
19497SOL     OW61122   8.046   2.846   2.958  0.1025  0.2732  0.0156
19497SOL    HW161123   7.964   2.801   2.937 -0.3371  1.5030 -1.0453
19497SOL    HW261124   8.114   2.793   2.916 -0.4158  0.6013 -1.3128
19498SOL     OW61125   4.457   6.552   4.197  0.9696  0.1176  0.2390
19498SOL    HW161126   4.380   6.550   4.253  0.1955 -1.4527 -0.8053
19498SOL    HW261127   4.520   6.606   4.245 -1.0120  2.1584  0.7638
19499SOL     OW61128   6.467   2.189   6.234 -0.2936  0.1249 -0.2672
19499SOL    HW161129   6.560   2.186   6.255 -0.4536  0.5226  0.5163
19499SOL    HW261130   6.463   2.239   6.153  0.1402  0.4578 -0.0862
19500SOL     OW61131   1.957   8.754   8.943  0.3514 -0.4155  0.3657
19500SOL    HW161132   1.935   8.754   8.850 -1.1374  1.7096  0.6330
19500SOL    HW261133   1.990   8.666   8.960  2.1658 -0.4017 -2.4663
19501SOL     OW61134   0.340   4.561  10.204  0.4376  0.1333  0.3967
19501SOL    HW161135   0.269   4.561  10.268 -0.0393  2.0037 -0.0785
19501SOL    HW261136   0.401   4.494  10.236 -1.9445 -2.2359  0.2987
19502SOL     OW61137   6.384   1.907   2.783  0.1682  0.0769 -0.1234
19502SOL    HW161138   6.307   1.927   2.837  0.6062  0.2544  0.4440
19502SOL    HW261139   6.354   1.918   2.693  0.1367  2.4600  0.1145
19503SOL     OW61140   9.006   9.813   2.007 -0.3121 -0.0011 -0.4998
19503SOL    HW161141   9.080   9.812   2.068 -1.5964  2.5350  1.2954
19503SOL    HW261142   8.983   9.720   1.997  0.4795 -0.6233  2.2949
19504SOL     OW61143   6.225   3.331   4.284  0.2795 -0.0350 -0.1608
19504SOL    HW161144   6.290   3.333   4.355  0.4758  0.2272 -0.3503
19504SOL    HW261145   6.167   3.405   4.302 -1.7567 -1.9014  1.6898
19505SOL     OW61146   9.291   3.696   0.902  0.2099 -0.2389 -0.1072
19505SOL    HW161147   9.337   3.691   0.818 -0.0109 -0.9901 -0.1879
19505SOL    HW261148   9.313   3.783   0.936  0.2996  0.0731 -0.9402
19506SOL     OW61149   7.574   9.448   0.342  0.5015  0.2996  0.7030
19506SOL    HW161150   7.657   9.401   0.346  1.1172  1.3293  0.5494
19506SOL    HW261151   7.542   9.431   0.253  0.0164 -0.9386  1.0935
19507SOL     OW61152   6.983   7.260   3.113 -0.1600 -0.2387 -0.0213
19507SOL    HW161153   7.025   7.188   3.067  0.0024  0.1443 -0.4868
19507SOL    HW261154   6.929   7.303   3.046 -1.0047 -0.5031  0.4780
19508SOL     OW61155   2.010   7.883   8.199  0.3457 -0.6400 -0.2205
19508SOL    HW161156   1.970   7.908   8.283  0.4823 -0.2180 -0.2810
19508SOL    HW261157   1.938   7.885   8.136  0.1538 -1.3630 -0.0418
19509SOL     OW61158   1.887   0.784   9.683 -0.0047  0.3886  0.4818
19509SOL    HW161159   1.905   0.691   9.668 -1.0859 -0.0792  1.9271
19509SOL    HW261160   1.912   0.826   9.600 -1.5684 -1.4665 -1.0459
19510SOL     OW61161   4.464   3.975   7.558 -0.1912 -0.4105  0.1082
19510SOL    HW161162   4.453   3.934   7.472 -0.6677  0.2607 -0.1583
19510SOL    HW261163   4.557   3.998   7.561  0.1272 -1.6181  0.3283
19511SOL     OW61164  10.133   2.128   5.306  0.7435  0.6102 -0.3065
19511SOL    HW161165  10.147   2.148   5.213 -2.6563 -0.0273 -1.0779
19511SOL    HW261166  10.091   2.207   5.341  0.7016  0.2970  0.3579
19512SOL     OW61167   2.271   5.990   4.371  0.3607 -0.3026 -0.0732
19512SOL    HW161168   2.279   6.061   4.307  1.7910  0.3162  0.7516
19512SOL    HW261169   2.178   5.987   4.392 -0.0696 -0.2362 -1.8457
19513SOL     OW61170   2.136   3.726   4.689 -0.5865 -0.6498 -0.2161
19513SOL    HW161171   2.060   3.668   4.684 -0.8353 -0.6379  2.1827
19513SOL    HW261172   2.099   3.815   4.690 -0.3130 -0.4672 -1.8985
19514SOL     OW61173   1.083   2.261   8.613 -0.2002  0.3007  0.3755
19514SOL    HW161174   1.068   2.266   8.518 -1.9751 -0.6676  0.5651
19514SOL    HW261175   0.996   2.257   8.651  0.4900  0.3028  2.0552
19515SOL     OW61176   0.910   3.206   3.413 -0.1201 -0.4770 -0.3273
19515SOL    HW161177   0.878   3.159   3.336  0.4444 -3.0048  0.8729
19515SOL    HW261178   0.987   3.254   3.381 -1.0701  0.1689 -1.7394
19516SOL     OW61179   8.851   2.878   9.769 -0.0010  0.6128 -0.1619
19516SOL    HW161180   8.801   2.955   9.795  0.2968  0.3126  1.4357
19516SOL    HW261181   8.821   2.809   9.829  2.5125  0.5037  1.0869
19517SOL     OW61182   6.279   9.505   3.081 -0.2671  0.3558  0.3431
19517SOL    HW161183   6.215   9.570   3.111 -1.0777 -0.6625  0.8775
19517SOL    HW261184   6.251   9.483   2.992 -2.4074 -2.1101  1.4981
19518SOL     OW61185   1.353   8.488   8.541 -0.1816 -0.8793  0.0805
19518SOL    HW161186   1.360   8.579   8.512  0.7183 -0.7788  0.5906
19518SOL    HW261187   1.333   8.494   8.634 -2.4776 -1.2040 -0.3252
19519SOL     OW61188   9.985   3.548   6.023  0.1420 -0.1617 -0.0041
19519SOL    HW161189   9.921   3.585   5.963 -0.0841 -2.5088 -1.3750
19519SOL    HW261190  10.061   3.529   5.967 -0.4085 -3.2542  0.0886
19520SOL     OW61191   9.535   6.193   6.800 -0.2128  0.0475  0.5199
19520SOL    HW161192   9.502   6.217   6.713  0.4973  0.7920  0.4431
19520SOL    HW261193   9.482   6.246   6.861 -0.0980  0.2047  0.4834
19521SOL     OW61194   7.148   4.970   1.854  0.3990  0.1115  0.0768
19521SOL    HW161195   7.179   4.900   1.911  0.2818 -0.2512 -0.2986
19521SOL    HW261196   7.202   5.045   1.876  1.2169 -0.3800 -0.2348
19522SOL     OW61197   1.388   7.509   4.146  0.2596 -0.0934  0.0556
19522SOL    HW161198   1.326   7.437   4.155 -2.3696  2.1340  1.4290
19522SOL    HW261199   1.424   7.521   4.234  0.0421  0.7359  0.0431
19523SOL     OW61200   7.856   3.524  10.133  0.3336 -0.3505 -0.5223
19523SOL    HW161201   7.790   3.584  10.100  0.6355 -0.5674 -1.5441
19523SOL    HW261202   7.813   3.438  10.132 -0.0408 -0.2101  0.7784
19524SOL     OW61203   4.420   5.804   2.894 -0.5130  1.2294 -0.1151
19524SOL    HW161204   4.330   5.813   2.927 -1.0081  1.1049 -1.3878
19524SOL    HW261205   4.449   5.720   2.930 -1.3250  0.7241 -0.5887
19525SOL     OW61206   5.290   3.326   0.136 -0.2036 -0.3394  0.9319
19525SOL    HW161207   5.251   3.401   0.090  1.0589 -0.3224 -0.1676
19525SOL    HW261208   5.227   3.255   0.125 -1.3358  0.4976  1.8391
19526SOL     OW61209   4.615   5.469   5.374  0.4721  0.3955  0.0796
19526SOL    HW161210   4.543   5.435   5.321  0.3297 -0.2274  0.6581
19526SOL    HW261211   4.582   5.553   5.408 -0.1105 -0.0282  0.5863
19527SOL     OW61212  10.093  10.138   1.022 -0.1490  0.0895  0.6449
19527SOL    HW161213  10.054  10.223   1.040  0.6694  0.5547  0.2747
19527SOL    HW261214  10.105  10.136   0.927  0.1563 -0.2889  0.6881
19528SOL     OW61215   9.746   1.017   8.699 -0.2798 -0.1195 -0.1452
19528SOL    HW161216   9.739   0.970   8.782 -2.7338  0.6888  0.1699
19528SOL    HW261217   9.831   1.061   8.704 -0.1802 -0.4413  1.7400
19529SOL     OW61218   4.316   2.735   1.771 -0.4298 -0.1952  0.0772
19529SOL    HW161219   4.411   2.730   1.780 -0.4185 -2.6103 -0.6896
19529SOL    HW261220   4.283   2.721   1.859 -0.0956  0.3568  0.2981
19530SOL     OW61221   8.124   6.675   4.720  0.6293  0.2965  0.5035
19530SOL    HW161222   8.107   6.668   4.626  0.9688 -1.5897  0.5466
19530SOL    HW261223   8.212   6.641   4.732  0.4706  0.2112  1.5430
19531SOL     OW61224   5.195   3.696   0.424  0.0794  0.4103  0.1931
19531SOL    HW161225   5.277   3.724   0.382  0.4974 -0.2752  0.5416
19531SOL    HW261226   5.172   3.769   0.481  1.3117 -0.0360  1.3073
19532SOL     OW61227   3.238   8.055   2.525  0.0766 -0.3316  0.2266
19532SOL    HW161228   3.145   8.035   2.524 -0.1209  0.5264 -0.9616
19532SOL    HW261229   3.266   8.041   2.434  0.7262  1.0012  0.1916
19533SOL     OW61230   5.790  10.217   6.140  0.2665  0.5404  0.5525
19533SOL    HW161231   5.850  10.281   6.104  0.0643  0.2905 -0.2709
19533SOL    HW261232   5.724  10.205   6.071  1.6710 -2.4126 -0.4425
19534SOL     OW61233   7.664   8.993   4.309 -0.1081  0.5908 -0.0044
19534SOL    HW161234   7.755   8.969   4.293 -0.1141 -1.0874  2.0633
19534SOL    HW261235   7.615   8.945   4.242  0.4580  1.1646 -0.8555
19535SOL     OW61236   2.062   7.879   0.775 -0.7444 -0.2316  0.0688
19535SOL    HW161237   1.987   7.905   0.827  0.7459  0.9834  1.7142
19535SOL    HW261238   2.074   7.950   0.712 -1.4800 -0.8529 -0.7926
19536SOL     OW61239   4.994   8.445   5.327  0.2519  0.1908 -0.0185
19536SOL    HW161240   4.912   8.456   5.279  2.1115  0.8650 -3.3587
19536SOL    HW261241   4.969   8.451   5.420 -3.4159  0.2772 -0.8604
19537SOL     OW61242   1.620   0.412   7.755  0.0435 -0.1356 -0.1009
19537SOL    HW161243   1.652   0.385   7.841  0.3921  1.6062  0.3533
19537SOL    HW261244   1.573   0.336   7.722 -0.5321 -0.6746  1.8420
19538SOL     OW61245   0.416   6.012   3.260  0.0679 -0.3405  0.3565
19538SOL    HW161246   0.455   5.981   3.178 -0.9706  0.2929 -0.4079
19538SOL    HW261247   0.410   6.107   3.248 -0.5754 -0.3014  0.9513
19539SOL     OW61248   0.874   0.176   2.990  0.4003  0.1498  0.0285
19539SOL    HW161249   0.922   0.252   3.022 -0.4040  1.4302 -1.6878
19539SOL    HW261250   0.889   0.175   2.896 -2.4372  0.2919 -0.4983
19540SOL     OW61251   6.882   8.728   8.389  0.1632 -0.4763  0.3439
19540SOL    HW161252   6.971   8.753   8.362  0.7707  0.3505  2.8441
19540SOL    HW261253   6.895   8.651   8.445 -0.4974  0.5203  1.9293
19541SOL     OW61254   1.642   9.901  10.134  0.1732 -0.1375  0.3993
19541SOL    HW161255   1.687   9.859  10.060  0.5778  2.4055 -0.9172
19541SOL    HW261256   1.710   9.914  10.200  0.3562 -0.3203  0.2473
19542SOL     OW61257   4.795   1.776   1.241  0.0082  0.1111 -0.1592
19542SOL    HW161258   4.874   1.767   1.188 -0.0530 -0.7703 -0.1277
19542SOL    HW261259   4.753   1.690   1.234  0.9657 -0.7263  2.8215
19543SOL     OW61260   2.206   5.568   0.898  0.2406  0.2743  0.2815
19543SOL    HW161261   2.237   5.478   0.901  1.0850  0.5520  0.1682
19543SOL    HW261262   2.253   5.611   0.970 -0.5954  0.4927  0.7053
19544SOL     OW61263   1.771   3.837   3.207  0.0879 -0.0137  0.2429
19544SOL    HW161264   1.711   3.850   3.281  1.0601  2.1502  0.7481
19544SOL    HW261265   1.859   3.842   3.246  0.6339 -1.4382 -0.7200
19545SOL     OW61266   3.598   2.414   4.697 -0.7939  0.3275  0.1027
19545SOL    HW161267   3.571   2.343   4.638  0.7732  0.2099 -0.5301
19545SOL    HW261268   3.601   2.373   4.784 -1.2048 -0.0246 -0.0455
19546SOL     OW61269   0.307   0.666   3.622 -0.1306  0.1325 -0.3724
19546SOL    HW161270   0.236   0.726   3.601  1.0130  1.7217  0.1532
19546SOL    HW261271   0.360   0.662   3.543 -0.0185  0.0669 -0.2949
19547SOL     OW61272   5.030   7.115   9.345 -0.6042  0.5153  0.5461
19547SOL    HW161273   5.105   7.087   9.397 -1.5024 -2.0648  0.5655
19547SOL    HW261274   4.981   7.173   9.403  1.1980  2.0651  0.6091
19548SOL     OW61275   0.306   0.659   0.296 -0.2751  0.2471  0.0039
19548SOL    HW161276   0.242   0.589   0.311  0.3796 -0.1016  1.4002
19548SOL    HW261277   0.351   0.668   0.380  3.2904 -1.3078 -1.5135
19549SOL     OW61278   2.685   8.248   8.343 -0.0245  0.0015  0.2099
19549SOL    HW161279   2.647   8.179   8.397  0.2835  0.1949  0.6852
19549SOL    HW261280   2.779   8.229   8.343  0.1373  0.7466  0.8421
19550SOL     OW61281   2.747   9.253   8.152  0.4306  0.5366 -0.3349
19550SOL    HW161282   2.685   9.325   8.165  0.8249  1.0953 -1.5009
19550SOL    HW261283   2.819   9.274   8.212  0.9863  1.6423 -1.3532
19551SOL     OW61284   4.724   6.690   9.630  0.5985 -0.2326 -0.2420
19551SOL    HW161285   4.755   6.728   9.712 -1.1485  0.2909  0.2219
19551SOL    HW261286   4.720   6.765   9.570 -0.2223 -0.1761 -0.1332
19552SOL     OW61287   2.506   1.041   0.757  0.2163 -0.1981  0.4697
19552SOL    HW161288   2.499   0.946   0.745  0.5397 -0.5196  2.4689
19552SOL    HW261289   2.421   1.075   0.730 -0.6716 -1.3140  1.7229
19553SOL     OW61290   0.080   9.196   3.578  0.0292  0.5780 -0.5465
19553SOL    HW161291  -0.010   9.188   3.548 -0.2442  0.4750  0.2767
19553SOL    HW261292   0.132   9.200   3.498 -0.5391 -1.1413 -1.0528
19554SOL     OW61293   0.825   7.990   8.617  0.5844 -0.4816  0.1649
19554SOL    HW161294   0.765   7.984   8.691  0.4674  0.2948  0.1401
19554SOL    HW261295   0.861   7.901   8.607 -0.6957 -1.0006  0.0597
19555SOL     OW61296   6.771   5.540   4.456  0.1580  0.6447 -0.5386
19555SOL    HW161297   6.833   5.468   4.466 -1.3985 -0.6164  0.7277
19555SOL    HW261298   6.789   5.598   4.530 -1.4934 -0.8490  1.1349
19556SOL     OW61299   7.933   0.701   7.835 -0.1213  0.5952  0.1617
19556SOL    HW161300   7.943   0.608   7.852  1.3461  1.0552  2.0356
19556SOL    HW261301   8.018   0.730   7.802 -0.2834  1.4484  0.4498
19557SOL     OW61302   6.735   1.483   7.881 -0.0499  0.1831  0.2518
19557SOL    HW161303   6.705   1.513   7.795 -0.2344 -2.4107 -0.6795
19557SOL    HW261304   6.796   1.412   7.861  1.7699  1.0743  2.2755
19558SOL     OW61305   4.108  10.009   1.776 -0.3972 -0.0751  0.2825
19558SOL    HW161306   4.180   9.962   1.817 -0.4126  0.4044  0.8648
19558SOL    HW261307   4.146  10.045   1.695 -0.2959 -0.7905  0.0072
19559SOL     OW61308   3.924   8.136   1.759  0.7635 -0.6777  0.1371
19559SOL    HW161309   3.837   8.096   1.750 -0.2127  1.5295 -0.9045
19559SOL    HW261310   3.979   8.087   1.699 -0.6069 -0.0149 -1.7582
19560SOL     OW61311   4.701   5.577   6.106 -0.0590 -0.5788 -0.0769
19560SOL    HW161312   4.739   5.489   6.108  0.7124 -0.3684 -2.4585
19560SOL    HW261313   4.610   5.562   6.081 -0.0763 -0.7323  0.0723
19561SOL     OW61314   9.327   0.083   0.094 -0.2678  0.1945 -0.4536
19561SOL    HW161315   9.402   0.103   0.038 -0.2419  1.8949  0.1198
19561SOL    HW261316   9.360   0.022   0.159  0.2630 -0.1211 -1.0182
19562SOL     OW61317   5.239   6.585   1.161  0.4286 -0.2987 -0.0799
19562SOL    HW161318   5.250   6.490   1.158  1.8766 -0.1247 -1.7243
19562SOL    HW261319   5.146   6.598   1.179  0.0837 -2.0227 -0.4863
19563SOL     OW61320   3.255  10.069   0.938  0.0984 -0.0656 -0.0683
19563SOL    HW161321   3.217  10.019   1.010  0.0149 -1.6722 -1.1782
19563SOL    HW261322   3.192  10.138   0.920  1.1897  1.8757  2.8881
19564SOL     OW61323   1.691   4.335   2.780 -0.0761  0.6947  0.5379
19564SOL    HW161324   1.674   4.355   2.688 -1.1901 -1.1045  0.2980
19564SOL    HW261325   1.606   4.337   2.822  0.2570  0.3120  1.2591
19565SOL     OW61326   3.219   1.454   1.687  0.6849  0.0302 -0.0091
19565SOL    HW161327   3.195   1.465   1.595 -0.2727 -1.9096 -0.0584
19565SOL    HW261328   3.201   1.538   1.728 -2.2447 -0.0435 -0.9443
19566SOL     OW61329   6.956   7.852   6.525  0.2394  0.7458 -0.0050
19566SOL    HW161330   6.933   7.932   6.479  2.9649  1.3377 -0.5450
19566SOL    HW261331   7.000   7.882   6.605  2.7401 -0.0643 -0.9643
19567SOL     OW61332   4.068   4.057   7.940 -0.0288 -0.1920  0.3896
19567SOL    HW161333   3.993   4.111   7.912  0.8816  1.1154  0.4038
19567SOL    HW261334   4.135   4.073   7.873  0.7543 -0.1841  1.1609
19568SOL     OW61335   2.421   3.324   7.366  0.2885 -0.1733 -0.9845
19568SOL    HW161336   2.391   3.341   7.277  0.2827 -1.0943 -1.1681
19568SOL    HW261337   2.495   3.264   7.356  0.9377  0.5111 -0.4198
19569SOL     OW61338   5.128   6.794   9.129 -0.2812  0.1900 -0.7239
19569SOL    HW161339   5.109   6.792   9.223  0.1064  3.0206 -0.4759
19569SOL    HW261340   5.191   6.866   9.120  2.0812 -1.9455 -2.8223
19570SOL     OW61341   1.780   7.698   2.965 -0.0328  0.0644  0.3289
19570SOL    HW161342   1.841   7.722   2.895  0.9630 -1.5259  0.5747
19570SOL    HW261343   1.738   7.780   2.990 -0.3699  0.6841 -2.0660
19571SOL     OW61344   2.834   5.008   1.036  0.2137 -0.3913  0.1047
19571SOL    HW161345   2.926   5.015   1.010  0.8941  1.1171  2.6536
19571SOL    HW261346   2.821   4.915   1.053  1.7159 -0.4491  1.1090
19572SOL     OW61347   5.404   2.933   1.489 -0.6186  0.4272  0.3259
19572SOL    HW161348   5.495   2.957   1.507 -0.8216 -0.6361  3.4152
19572SOL    HW261349   5.405   2.838   1.480 -1.2636  0.5330 -1.1455
19573SOL     OW61350   3.961   2.942   7.921  0.5163 -0.1186 -0.2552
19573SOL    HW161351   4.028   2.925   7.854  0.1348 -2.2272 -0.1634
19573SOL    HW261352   3.908   3.013   7.883  0.8043 -0.6921 -1.8226
19574SOL     OW61353   4.441   4.130   2.229  0.5059  0.1045  0.1235
19574SOL    HW161354   4.392   4.088   2.159  0.9387 -1.1571  0.5591
19574SOL    HW261355   4.437   4.224   2.208  2.9455 -0.3274 -3.1359
19575SOL     OW61356   1.095   6.948   8.727 -0.6879 -0.2574  0.4866
19575SOL    HW161357   1.163   6.994   8.776 -0.7325  0.9448 -0.5307
19575SOL    HW261358   1.027   7.014   8.712 -0.3039 -0.3171 -1.8833
19576SOL     OW61359   7.296   3.254   6.983 -0.0841 -0.3222  0.2889
19576SOL    HW161360   7.362   3.274   6.917 -0.4035  1.6355  0.5129
19576SOL    HW261361   7.336   3.282   7.066 -0.5704 -0.6299  0.6326
19577SOL     OW61362   5.090   1.457   3.495  0.0815 -0.1784  0.0887
19577SOL    HW161363   5.123   1.492   3.411 -0.2477 -1.2531 -0.5055
19577SOL    HW261364   5.159   1.398   3.524 -1.1103 -2.2327 -1.0243
19578SOL     OW61365   1.170   5.495   6.179  0.0969 -0.5664 -0.6662
19578SOL    HW161366   1.105   5.443   6.130 -0.3047  0.6251 -1.4355
19578SOL    HW261367   1.118   5.556   6.231  0.5686  0.5346 -1.4325
19579SOL     OW61368   7.321   9.043   3.403  0.0837 -0.4595 -0.0729
19579SOL    HW161369   7.382   9.077   3.337 -0.3903  0.5893  0.0118
19579SOL    HW261370   7.309   9.115   3.465  0.1301 -1.2573  0.9033
19580SOL     OW61371   4.811   2.170   1.650 -0.4403  0.2402 -0.2270
19580SOL    HW161372   4.768   2.088   1.674  0.9081 -0.3989  0.0874
19580SOL    HW261373   4.894   2.143   1.612  0.8088  1.5034  1.4642
19581SOL     OW61374   5.923   0.822   7.349  0.3868  0.3663 -0.3952
19581SOL    HW161375   6.012   0.839   7.379  0.1982 -1.0214  1.1087
19581SOL    HW261376   5.878   0.788   7.427 -1.3137  0.5279 -1.2624
19582SOL     OW61377   1.262   5.779   5.140  0.3850  0.0909  0.2107
19582SOL    HW161378   1.282   5.801   5.231 -0.4665  2.2847 -0.0774
19582SOL    HW261379   1.262   5.863   5.095 -0.8051 -0.7807 -1.5034
19583SOL     OW61380   2.206   7.208   8.838 -0.1365 -0.4821 -0.2592
19583SOL    HW161381   2.260   7.276   8.799  0.0243 -0.2642  0.3369
19583SOL    HW261382   2.232   7.206   8.930 -0.8408 -0.6659 -0.0577
19584SOL     OW61383   7.384   8.794   7.154  0.4262 -0.1837 -0.5925
19584SOL    HW161384   7.312   8.734   7.174 -0.7303  1.3942  0.1782
19584SOL    HW261385   7.348   8.855   7.090  1.3053  0.2004 -0.7321
19585SOL     OW61386   4.538   1.172   4.246  0.1702  0.5258  0.3091
19585SOL    HW161387   4.623   1.128   4.249 -0.4024 -0.5549  0.9404
19585SOL    HW261388   4.558   1.263   4.267  1.1279  0.2207  0.7655
19586SOL     OW61389   9.910   4.005   3.015 -0.2151  0.0559  0.0355
19586SOL    HW161390   9.943   3.918   2.994 -0.5911 -0.7249  2.3274
19586SOL    HW261391   9.887   3.999   3.108 -1.4361  2.2385 -0.0727
19587SOL     OW61392   3.853   4.318   4.856  0.2650  0.5124 -0.5498
19587SOL    HW161393   3.777   4.376   4.853 -0.3745 -0.3413 -1.7242
19587SOL    HW261394   3.878   4.306   4.765  0.3598 -1.0730 -0.3451
19588SOL     OW61395   5.527   0.910   4.715 -0.2609  0.1147 -0.4069
19588SOL    HW161396   5.534   0.947   4.803 -0.0220 -0.8952  0.0212
19588SOL    HW261397   5.482   0.826   4.729 -0.1695 -0.0795 -1.2402
19589SOL     OW61398   7.223   8.055   4.131 -0.4324  0.0382 -0.2411
19589SOL    HW161399   7.168   7.977   4.135 -2.4966  1.4782  2.6940
19589SOL    HW261400   7.173   8.117   4.077 -0.1432  0.2833 -0.2282
19590SOL     OW61401   2.746   3.159   1.184  0.1530 -0.4301 -0.0900
19590SOL    HW161402   2.827   3.197   1.218 -0.4389 -0.4213  1.3823
19590SOL    HW261403   2.775   3.089   1.126  1.2162  0.0731 -0.1915
19591SOL     OW61404   3.089   2.204   1.114 -0.1533  0.2426 -0.4051
19591SOL    HW161405   2.999   2.174   1.128 -0.1283 -0.4498 -1.5552
19591SOL    HW261406   3.143   2.133   1.146 -0.0161  0.5338  0.0137
19592SOL     OW61407   1.172   1.149   0.499 -0.0036  0.4050  0.4292
19592SOL    HW161408   1.169   1.179   0.409 -0.2522  3.6295  1.3745
19592SOL    HW261409   1.254   1.185   0.533 -0.9755  1.2029  2.0494
19593SOL     OW61410   2.845   5.301   1.819  0.0917 -0.0755  0.1911
19593SOL    HW161411   2.891   5.380   1.845  0.2772 -0.3179  0.6018
19593SOL    HW261412   2.833   5.252   1.900 -0.9519  0.0179  0.1035
19594SOL     OW61413   6.290   1.717   0.080 -0.0783 -0.3361 -0.0639
19594SOL    HW161414   6.198   1.718   0.107  0.4084 -1.3468  1.8119
19594SOL    HW261415   6.324   1.801   0.111  0.0480 -0.7343  0.8994
19595SOL     OW61416   1.967   6.677   4.186 -0.2540 -1.0309  0.2526
19595SOL    HW161417   1.983   6.586   4.161  0.8814 -1.3782  2.0987
19595SOL    HW261418   1.949   6.674   4.280 -3.4944  0.3145 -0.2174
19596SOL     OW61419   0.717   9.444   9.822 -1.0325 -0.1685  0.9599
19596SOL    HW161420   0.666   9.428   9.902 -2.1264  0.8620  0.5086
19596SOL    HW261421   0.671   9.393   9.755 -2.0552  1.4778  0.3653
19597SOL     OW61422   8.268   2.673   5.931 -1.0942 -0.0230 -0.7649
19597SOL    HW161423   8.334   2.738   5.954 -0.2861 -1.0572 -0.1220
19597SOL    HW261424   8.280   2.603   5.994 -2.6770 -0.3322 -0.7636
19598SOL     OW61425   5.854   3.750   0.248  0.6550  0.2220  0.4751
19598SOL    HW161426   5.943   3.766   0.280  1.0959 -1.1888  0.0048
19598SOL    HW261427   5.804   3.827   0.277  1.7080  0.3831  1.9546
19599SOL     OW61428   6.250   3.266   1.606 -1.0353 -0.1858 -0.4717
19599SOL    HW161429   6.284   3.189   1.652  0.9285  0.0048 -1.5042
19599SOL    HW261430   6.243   3.333   1.674  1.4678 -0.0190 -0.2691
19600SOL     OW61431   1.257   6.458  10.190  0.0387 -0.3026 -0.2509
19600SOL    HW161432   1.237   6.366  10.208  0.7756 -0.0572  2.1415
19600SOL    HW261433   1.174   6.494  10.158 -0.6116 -1.4911  0.0074
19601SOL     OW61434   0.641   6.842   3.900  0.1716  0.1776  0.0749
19601SOL    HW161435   0.615   6.757   3.866  2.1937 -1.4422  2.1678
19601SOL    HW261436   0.572   6.865   3.963  0.9606 -1.4436  1.6471
19602SOL     OW61437   1.112   8.793   3.126  0.0842  0.5030  0.0656
19602SOL    HW161438   1.098   8.702   3.099 -2.8554  0.6966  0.6062
19602SOL    HW261439   1.068   8.845   3.059 -0.1313  1.4093  0.8903
19603SOL     OW61440   2.140  10.256   4.172 -0.3996 -0.0077  0.1418
19603SOL    HW161441   2.176  10.237   4.259  0.3329 -0.1830 -0.1914
19603SOL    HW261442   2.096  10.341   4.182 -2.2287 -1.0032  1.2232
19604SOL     OW61443   0.440   0.460   7.048 -0.1062  0.3701 -0.2357
19604SOL    HW161444   0.412   0.369   7.044  1.4069 -0.2646  1.7438
19604SOL    HW261445   0.459   0.484   6.958 -0.9255 -1.1312 -0.8376
19605SOL     OW61446   1.185  10.203   3.739 -0.0899  0.5047 -0.3171
19605SOL    HW161447   1.173  10.111   3.713  0.6855  0.2313  0.2707
19605SOL    HW261448   1.271  10.226   3.706 -0.1142  0.9007 -0.1037
19606SOL     OW61449   3.879  10.021   1.127 -0.9291 -0.0610 -0.4461
19606SOL    HW161450   3.877  10.001   1.033 -2.1718 -1.8333 -0.0924
19606SOL    HW261451   3.788  10.041   1.149 -0.8830 -0.9444  0.6204
19607SOL     OW61452   9.085   0.224   0.076  0.2735 -0.2309 -0.3790
19607SOL    HW161453   9.037   0.142   0.088 -0.4749  0.5625  4.2335
19607SOL    HW261454   9.168   0.210   0.122  0.0274  1.5879  0.7066
19608SOL     OW61455   4.325   8.953  10.154  0.1774  0.3006  0.1607
19608SOL    HW161456   4.275   8.946  10.072 -0.8474 -0.4361  0.8304
19608SOL    HW261457   4.290   9.031  10.197 -0.4136 -0.2167  0.6314
19609SOL     OW61458   9.720   4.028   2.774  0.7114  0.2697  0.5536
19609SOL    HW161459   9.628   4.023   2.802  0.1915 -0.7455 -1.1737
19609SOL    HW261460   9.770   4.020   2.855 -0.6773  3.1504  1.8563
19610SOL     OW61461   7.880  10.034   7.902 -0.3243  0.5916 -0.1962
19610SOL    HW161462   7.887   9.958   7.844  2.0007 -0.0153  0.7457
19610SOL    HW261463   7.810  10.012   7.963 -0.2341 -0.4320 -0.4488
19611SOL     OW61464   7.606   8.895   6.562  0.6893  0.3973  0.2166
19611SOL    HW161465   7.527   8.935   6.598  1.1076  0.3756  1.1965
19611SOL    HW261466   7.635   8.833   6.630  0.3548 -1.2015 -1.0172
19612SOL     OW61467   7.646   9.432   5.435  1.1284  0.0109 -0.2930
19612SOL    HW161468   7.583   9.499   5.410  0.2862 -0.9971 -0.9845
19612SOL    HW261469   7.631   9.416   5.528  1.2366  0.6654 -0.1621
19613SOL     OW61470   8.916   8.572   6.990 -0.4218 -0.0387  0.0881
19613SOL    HW161471   8.962   8.540   6.913  0.7366  2.2893 -0.2921
19613SOL    HW261472   8.863   8.645   6.958 -1.5832 -0.3800  1.1527
19614SOL     OW61473   0.831   8.218   5.986 -0.1515  0.5596 -0.2930
19614SOL    HW161474   0.791   8.138   6.023 -0.2291  0.2226 -1.0888
19614SOL    HW261475   0.816   8.285   6.053 -0.9585  0.1417 -0.0379
19615SOL     OW61476   6.909   5.792   5.042 -0.0908  0.3124 -0.2000
19615SOL    HW161477   6.959   5.836   4.973  1.1819 -1.9298 -0.8178
19615SOL    HW261478   6.860   5.724   4.996 -0.1946 -0.4139  0.9394
19616SOL     OW61479   7.136   3.540   0.657  0.0313  0.3473 -0.4971
19616SOL    HW161480   7.120   3.631   0.683 -1.0196 -0.2623  1.1845
19616SOL    HW261481   7.063   3.491   0.695 -0.0758 -1.0649 -2.3796
19617SOL     OW61482   4.813   6.270   3.811 -0.1851 -0.0103 -0.1372
19617SOL    HW161483   4.767   6.291   3.730 -1.8996  0.1501  0.8330
19617SOL    HW261484   4.898   6.313   3.803 -0.9468  1.3591 -1.1514
19618SOL     OW61485   1.030   2.997   2.544  0.0592  0.1814  0.0250
19618SOL    HW161486   1.097   3.009   2.611  0.2920 -1.9840  0.2483
19618SOL    HW261487   1.056   2.917   2.498  0.0041  1.6891 -2.8282
19619SOL     OW61488   7.488   1.934   5.566 -0.6688 -0.4847  0.1321
19619SOL    HW161489   7.488   2.026   5.591 -1.0676 -0.3773 -0.2437
19619SOL    HW261490   7.573   1.901   5.594 -0.9278 -0.2729  1.2491
19620SOL     OW61491  10.023   5.110   6.176 -0.2686 -0.3736 -0.0216
19620SOL    HW161492  10.012   5.152   6.261  0.9957  0.1493 -0.0907
19620SOL    HW261493  10.094   5.159   6.134  1.2586 -2.5171 -0.1331
19621SOL     OW61494   9.321   5.114   8.501  0.3269 -0.0734 -0.6718
19621SOL    HW161495   9.228   5.134   8.490  0.6549  1.2696 -1.1221
19621SOL    HW261496   9.330   5.023   8.472 -1.0920 -0.7097  0.7500
19622SOL     OW61497   8.770   8.342   5.551  0.1342  0.2852 -0.2640
19622SOL    HW161498   8.826   8.412   5.518 -1.3972  1.4283 -0.5370
19622SOL    HW261499   8.830   8.282   5.594  1.6414  1.1147 -1.1174
19623SOL     OW61500   4.846   6.949   8.403 -0.2840 -0.0641 -0.4431
19623SOL    HW161501   4.781   6.994   8.349 -0.5670 -0.4151 -0.3964
19623SOL    HW261502   4.796   6.886   8.454  0.0952 -0.3567 -0.4273
19624SOL     OW61503   0.633   8.078   3.988 -0.1580  0.8191  0.0499
19624SOL    HW161504   0.701   8.133   3.951  0.3558 -0.3500 -0.7862
19624SOL    HW261505   0.660   7.988   3.967 -0.7488  0.2053  1.7340
19625SOL     OW61506   3.446   8.516   0.913  0.7289  0.2306 -0.0052
19625SOL    HW161507   3.430   8.598   0.867  0.1167 -0.2706 -0.7060
19625SOL    HW261508   3.403   8.528   0.998  1.4089  0.9612  0.2455
19626SOL     OW61509   1.916   9.249   2.745  0.0764  0.5750 -0.2003
19626SOL    HW161510   1.888   9.226   2.834  0.7090  1.9331  0.3767
19626SOL    HW261511   1.836   9.243   2.693 -0.1476 -1.0527  0.2682
19627SOL     OW61512   2.151   0.181   5.652 -0.0439 -0.4541  0.2370
19627SOL    HW161513   2.124   0.112   5.592 -0.2699 -0.0846 -0.0916
19627SOL    HW261514   2.166   0.257   5.596  1.5780 -0.6064  0.4096
19628SOL     OW61515   3.389   2.357   5.818  0.1067  0.0874  0.4043
19628SOL    HW161516   3.467   2.311   5.788 -0.6026 -1.8331  1.3049
19628SOL    HW261517   3.422   2.427   5.874  1.2242  0.3836 -0.5875
19629SOL     OW61518   6.744   2.534  10.354 -0.3083 -0.4141  0.2301
19629SOL    HW161519   6.799   2.488  10.417 -2.6474 -2.2926  1.0541
19629SOL    HW261520   6.773   2.625  10.358  0.7697 -0.7888  2.7362
19630SOL     OW61521   9.492   8.280   1.284  0.5082 -0.3456  0.1886
19630SOL    HW161522   9.411   8.264   1.235  1.4121 -1.3663 -1.0327
19630SOL    HW261523   9.462   8.306   1.372 -1.1544  1.1465 -0.7449
19631SOL     OW61524   1.210   0.423   7.963  0.4045 -0.3373 -0.1110
19631SOL    HW161525   1.212   0.374   8.045 -0.1667 -3.6225 -1.8913
19631SOL    HW261526   1.143   0.490   7.976 -2.0693 -2.8497  1.0920
19632SOL     OW61527   0.943   1.959   3.654  0.8073 -0.3855 -0.5887
19632SOL    HW161528   0.958   1.952   3.748  3.6502 -0.7800 -0.9677
19632SOL    HW261529   0.935   2.053   3.637  0.9145 -0.2745 -0.0335
19633SOL     OW61530   9.444   7.500   8.277 -0.2551  0.7295 -0.0249
19633SOL    HW161531   9.383   7.489   8.204 -1.2172 -0.2002  0.8634
19633SOL    HW261532   9.502   7.423   8.272 -1.3252 -0.1995  1.0528
19634SOL     OW61533   8.843   5.199   1.073 -0.4297 -0.0411 -0.1449
19634SOL    HW161534   8.905   5.270   1.090  0.3997 -0.9048  0.4992
19634SOL    HW261535   8.834   5.155   1.158 -1.0655 -0.6116 -0.5025
19635SOL     OW61536   5.618   1.513   3.483  0.1756 -0.0596 -0.4979
19635SOL    HW161537   5.633   1.448   3.414  1.7473 -0.4716  0.2125
19635SOL    HW261538   5.691   1.574   3.475  1.6718 -1.3475  2.1754
19636SOL     OW61539   0.461   9.282   1.754  0.0977 -0.2212  0.0194
19636SOL    HW161540   0.440   9.375   1.749  0.6901 -0.1412 -1.8758
19636SOL    HW261541   0.556   9.279   1.764 -0.0953 -0.6435  2.2022
19637SOL     OW61542   7.294   6.706   0.779 -0.0067 -0.1299 -0.2611
19637SOL    HW161543   7.252   6.666   0.703 -1.6775 -0.2382  0.6607
19637SOL    HW261544   7.343   6.780   0.744  2.7381 -2.5345 -1.9614
19638SOL     OW61545   3.865   8.619   5.468  0.4288  0.5436 -0.3915
19638SOL    HW161546   3.917   8.570   5.532 -0.2137 -0.4029 -0.5730
19638SOL    HW261547   3.775   8.611   5.499  0.0894 -0.0694 -1.4940
19639SOL     OW61548   3.196   5.583   8.937  0.5646 -0.2047  0.1262
19639SOL    HW161549   3.176   5.652   9.000  1.5957 -0.0837  0.3454
19639SOL    HW261550   3.282   5.606   8.902 -0.3516  0.2031 -2.0120
19640SOL     OW61551   5.150   8.047   3.616 -0.4610 -0.5940  0.1201
19640SOL    HW161552   5.073   8.077   3.664 -1.8190 -2.8920 -0.4375
19640SOL    HW261553   5.130   7.956   3.593  2.2972 -1.1835 -0.3582
19641SOL     OW61554   8.121   6.882   6.067  0.1991  0.1285  0.1232
19641SOL    HW161555   8.030   6.876   6.037 -0.7706 -1.1847  2.9918
19641SOL    HW261556   8.155   6.959   6.022 -1.5675 -0.6423 -2.8169
19642SOL     OW61557   6.035   0.685   0.616 -0.1269 -0.6425 -0.2013
19642SOL    HW161558   6.071   0.646   0.536  0.6645  0.5173 -0.4307
19642SOL    HW261559   6.101   0.749   0.643 -1.1632  0.1739  0.4461
19643SOL     OW61560   8.302   8.810   9.265 -0.2460  0.2205  0.3457
19643SOL    HW161561   8.322   8.897   9.301 -1.3955 -0.3535  2.5514
19643SOL    HW261562   8.277   8.758   9.341 -1.6655 -1.4524 -1.1799
19644SOL     OW61563   3.089   3.542   1.103  0.0112  0.1311 -0.0852
19644SOL    HW161564   3.073   3.574   1.191 -0.9600  0.2870 -0.3142
19644SOL    HW261565   3.179   3.509   1.106  0.0950  0.4159  0.8716
19645SOL     OW61566   3.431  10.254   6.055  0.1120  0.0989  0.7243
19645SOL    HW161567   3.508  10.308   6.074 -0.4377  1.1089  0.1542
19645SOL    HW261568   3.391  10.239   6.141  1.6459 -1.5629  1.2027
19646SOL     OW61569   9.855   5.759   9.594 -0.5496  1.0402  0.1917
19646SOL    HW161570   9.888   5.793   9.677 -1.1094 -0.0529  0.8862
19646SOL    HW261571   9.780   5.816   9.573 -0.6186  1.1114  0.6190
19647SOL     OW61572   4.766   8.464   5.964  0.3742  0.0089 -1.1672
19647SOL    HW161573   4.763   8.553   5.929 -1.3337  0.8843  0.9343
19647SOL    HW261574   4.677   8.449   5.997  0.9581 -2.0278 -0.3779
19648SOL     OW61575   7.518   0.753   1.927 -0.7231  0.2637 -0.3018
19648SOL    HW161576   7.563   0.713   1.853 -1.5982 -0.3752 -0.4989
19648SOL    HW261577   7.454   0.687   1.956 -2.3560  1.5739 -0.7831
19649SOL     OW61578   8.734   4.807   1.711 -0.0871 -0.2694  0.0467
19649SOL    HW161579   8.735   4.877   1.777 -0.0867  0.4580 -0.7102
19649SOL    HW261580   8.753   4.728   1.761  1.7060  0.4977  0.6794
19650SOL     OW61581   4.306   6.268   2.248  0.5214 -0.2196 -0.2903
19650SOL    HW161582   4.264   6.351   2.226  0.6677 -0.7183 -2.6643
19650SOL    HW261583   4.366   6.290   2.319  0.2191  1.6036 -0.5473
19651SOL     OW61584   9.413   2.792   2.173  0.1720 -0.3070 -0.5290
19651SOL    HW161585   9.347   2.728   2.147 -1.6722  0.9650  0.6849
19651SOL    HW261586   9.401   2.801   2.267  1.6306  0.4748 -0.3967
19652SOL     OW61587  10.347   6.474   5.220 -0.2832  0.3400  0.5423
19652SOL    HW161588  10.321   6.417   5.293  0.5542  0.4787  0.9676
19652SOL    HW261589  10.306   6.435   5.143 -0.2380 -0.4768  0.9218
19653SOL     OW61590   0.890   2.090   5.806 -0.4477 -0.7270  0.3033
19653SOL    HW161591   0.825   2.026   5.832 -0.1875 -0.3153  2.0541
19653SOL    HW261592   0.974   2.053   5.833 -0.3858  0.8379  2.5131
19654SOL     OW61593   3.878   2.521   8.505 -0.4086  0.2166  0.4657
19654SOL    HW161594   3.783   2.523   8.507 -0.7273 -3.0599 -2.2936
19654SOL    HW261595   3.902   2.464   8.578 -0.4708  1.5179  1.5262
19655SOL     OW61596   3.243   0.261   2.307 -0.2978 -0.3667 -0.4514
19655SOL    HW161597   3.158   0.221   2.325 -0.2117 -0.7310 -0.8474
19655SOL    HW261598   3.290   0.257   2.390  0.3589 -2.6461 -0.8640
19656SOL     OW61599   6.570   8.708   6.459 -0.6138  0.2118  0.0729
19656SOL    HW161600   6.648   8.676   6.414 -0.9662 -0.9275  0.2336
19656SOL    HW261601   6.525   8.628   6.487 -1.7177  0.8591  0.1764
19657SOL     OW61602   0.208   8.777   3.280  0.0025 -0.1274  0.2351
19657SOL    HW161603   0.288   8.822   3.254 -0.7465  0.9355 -0.3084
19657SOL    HW261604   0.221   8.755   3.372  0.7032  0.4844  0.2881
19658SOL     OW61605   7.481   6.758   2.468  0.2248 -1.0792 -0.7365
19658SOL    HW161606   7.522   6.840   2.494 -1.8931  0.2755 -1.3844
19658SOL    HW261607   7.427   6.781   2.393  0.3734 -3.3131 -1.6133
19659SOL     OW61608   5.315   9.880   6.585  0.0907 -0.1039 -0.2323
19659SOL    HW161609   5.295   9.794   6.548  1.9502 -0.4391 -0.5635
19659SOL    HW261610   5.293   9.871   6.678  0.4839 -1.0399 -0.2133
19660SOL     OW61611   2.836   3.307   5.524  0.1730  0.2697  0.0257
19660SOL    HW161612   2.748   3.318   5.560  1.4804  1.6494  3.1154
19660SOL    HW261613   2.868   3.396   5.511  0.9461 -0.2132 -1.7808
19661SOL     OW61614   5.864   9.637   6.738 -0.0347  0.1950  1.0582
19661SOL    HW161615   5.797   9.594   6.792 -1.9181  1.6546  0.0307
19661SOL    HW261616   5.828   9.634   6.650  1.0468  1.4465  0.5506
19662SOL     OW61617   1.876   8.662   3.643  0.5931 -0.0192 -0.1705
19662SOL    HW161618   1.830   8.701   3.569  0.8978 -0.8719 -0.8225
19662SOL    HW261619   1.957   8.713   3.651  0.1317  0.6726  0.1807
19663SOL     OW61620   0.361   2.429   5.027 -0.0646  0.5323 -0.0031
19663SOL    HW161621   0.313   2.399   5.105  0.5646 -1.3817 -0.2948
19663SOL    HW261622   0.453   2.412   5.047  0.1480  0.4712 -0.9833
19664SOL     OW61623   1.682   7.958   2.958  0.2865 -0.1513  0.2288
19664SOL    HW161624   1.605   7.982   2.907  0.6518  1.3205  0.3248
19664SOL    HW261625   1.743   8.030   2.944  2.3493 -2.0291 -1.2239
19665SOL     OW61626   6.849   4.335   2.669  0.0768  0.0532  0.2490
19665SOL    HW161627   6.794   4.412   2.683 -1.1503 -0.3593 -1.8084
19665SOL    HW261628   6.815   4.271   2.733  0.0047  0.6706  0.8476
19666SOL     OW61629   0.072   3.932   5.935 -0.3972 -0.3986  0.4054
19666SOL    HW161630   0.144   3.951   5.996  0.8323  0.3531 -1.2179
19666SOL    HW261631   0.009   4.002   5.949 -0.6636 -0.8487  1.5697
19667SOL     OW61632   3.340   7.683   3.483 -0.3109 -0.4760 -0.2111
19667SOL    HW161633   3.302   7.609   3.437  0.9876 -0.1601 -1.8910
19667SOL    HW261634   3.407   7.644   3.539 -0.9970 -0.7338  0.4497
19668SOL     OW61635   1.208   2.501   3.358 -0.2810 -0.6554 -0.2865
19668SOL    HW161636   1.135   2.479   3.416  0.1475 -2.2576 -0.2868
19668SOL    HW261637   1.259   2.420   3.353  2.7297  0.9713  1.4321
19669SOL     OW61638   3.309   5.680  10.094  0.2270  0.3783 -0.3365
19669SOL    HW161639   3.344   5.615  10.032  0.0879 -0.2157  0.1974
19669SOL    HW261640   3.215   5.662  10.096  0.1175  0.9132 -0.5429
19670SOL     OW61641   7.451   0.653   8.067  0.7922  0.0286  0.3679
19670SOL    HW161642   7.468   0.699   7.985  2.0244  0.4217  0.8250
19670SOL    HW261643   7.362   0.677   8.090  1.1855  1.6811  0.2633
19671SOL     OW61644   6.440   9.911   1.229  0.0674  0.0610  0.2983
19671SOL    HW161645   6.503   9.925   1.159 -0.7568 -3.1125 -1.2937
19671SOL    HW261646   6.478   9.841   1.282  0.1523  1.6364  2.4197
19672SOL     OW61647   1.832   1.543   8.307  0.4198  0.7330  0.1476
19672SOL    HW161648   1.822   1.630   8.347 -1.1527  0.2897  0.7761
19672SOL    HW261649   1.913   1.509   8.345  0.1039  1.2046  1.2920
19673SOL     OW61650   6.834   6.178   3.791 -0.3691  0.3129  0.1444
19673SOL    HW161651   6.868   6.249   3.736 -0.3222 -0.6643 -1.1387
19673SOL    HW261652   6.769   6.221   3.847 -0.8294  1.2835 -1.0554
19674SOL     OW61653   4.351  10.192   6.772 -0.6135  1.1889  0.3439
19674SOL    HW161654   4.329  10.119   6.714  0.6637  1.2061 -0.1911
19674SOL    HW261655   4.351  10.154   6.860 -0.4483  0.6597  0.1165
19675SOL     OW61656   5.762   6.568   6.316 -0.0894  0.1445 -0.0893
19675SOL    HW161657   5.709   6.574   6.396  0.0591 -0.1814  0.0335
19675SOL    HW261658   5.851   6.550   6.346 -0.0422 -0.0371 -0.3319
19676SOL     OW61659   6.336   7.423   9.380  0.5613  0.1069  0.2797
19676SOL    HW161660   6.290   7.450   9.300  1.1280  1.4132  0.3815
19676SOL    HW261661   6.429   7.433   9.359  0.7911 -1.2593  0.5264
19677SOL     OW61662   9.441   5.497   4.275 -0.3551 -0.0869  0.4956
19677SOL    HW161663   9.373   5.564   4.263  0.3821  0.3336 -1.9631
19677SOL    HW261664   9.523   5.544   4.265  0.1788 -1.3240 -1.7249
19678SOL     OW61665   6.524   4.372   3.633  0.3150 -0.4720  0.1677
19678SOL    HW161666   6.509   4.449   3.688 -0.0266  0.7220 -1.5395
19678SOL    HW261667   6.575   4.313   3.689  1.4685  1.3963  1.1782
19679SOL     OW61668   2.987   2.538   5.932 -0.2186  0.7909  0.1899
19679SOL    HW161669   3.053   2.469   5.943 -1.8125 -1.4589 -2.8467
19679SOL    HW261670   2.917   2.513   5.992 -0.0770  0.7842  0.3549
19680SOL     OW61671   7.485   4.428   8.084 -0.6516  0.0160  0.8147
19680SOL    HW161672   7.579   4.419   8.099 -0.4876 -0.5488 -0.3842
19680SOL    HW261673   7.445   4.416   8.170  0.3715  0.3191  1.3476
19681SOL     OW61674   2.278   6.145   0.534 -0.3162  0.0096  0.5671
19681SOL    HW161675   2.365   6.182   0.552 -0.8507  0.8368  1.5899
19681SOL    HW261676   2.268   6.076   0.600 -0.3665 -0.2293  0.3134
19682SOL     OW61677   1.596   0.939   1.921  0.2109  0.4918 -0.3501
19682SOL    HW161678   1.520   0.952   1.977  1.2730  0.3383  1.1875
19682SOL    HW261679   1.561   0.936   1.832 -1.3921  1.8869  0.2016
19683SOL     OW61680   8.509   1.166   7.493 -0.8046 -0.3118 -0.1280
19683SOL    HW161681   8.567   1.131   7.426 -1.9915 -2.0291 -0.3223
19683SOL    HW261682   8.453   1.228   7.447  1.0199  1.6079  0.1237
19684SOL     OW61683   6.084   9.693   3.210  0.4861 -0.0109 -0.4955
19684SOL    HW161684   6.033   9.617   3.182 -2.9120  1.2331  1.6753
19684SOL    HW261685   6.061   9.762   3.147 -0.8044  0.6021  0.5879
19685SOL     OW61686   3.057   4.935   4.753  0.4188  0.3210 -0.2789
19685SOL    HW161687   3.074   4.857   4.805 -0.8977 -0.4252 -0.9144
19685SOL    HW261688   3.060   5.007   4.816 -0.1784 -0.4548  0.6577
19686SOL     OW61689   9.877   6.058   4.506  0.6777 -0.3386 -0.4548
19686SOL    HW161690   9.903   6.113   4.432 -1.4190  2.2001  0.4956
19686SOL    HW261691   9.804   6.006   4.473 -0.3834  0.9326 -0.2257
19687SOL     OW61692   5.525  10.358   0.048 -0.1784  0.0520  0.8325
19687SOL    HW161693   5.507  10.309  -0.032  0.2206 -0.5119  1.0848
19687SOL    HW261694   5.450  10.417   0.057 -0.5992 -0.4165  0.4575
19688SOL     OW61695   2.094   1.718   9.554 -0.1416  0.2003 -0.1633
19688SOL    HW161696   2.108   1.711   9.649  1.1752  0.9685 -0.2855
19688SOL    HW261697   2.036   1.793   9.544 -2.4480 -1.4206  0.1661
19689SOL     OW61698   5.315   8.234   7.392 -0.3776 -0.7059 -0.0536
19689SOL    HW161699   5.301   8.185   7.472  1.6110 -2.2434 -0.5684
19689SOL    HW261700   5.250   8.304   7.395 -1.8543 -2.0618  1.7689
19690SOL     OW61701   8.701   6.662   2.901  0.1131  0.2126  0.0470
19690SOL    HW161702   8.704   6.731   2.968 -1.9270 -0.6561  1.1304
19690SOL    HW261703   8.713   6.581   2.950  0.6556 -0.3244 -0.9539
19691SOL     OW61704   4.830   4.402   8.049 -0.5478 -0.3641 -0.1562
19691SOL    HW161705   4.838   4.459   8.126  1.1660  2.0264 -1.9774
19691SOL    HW261706   4.873   4.321   8.076  2.9216  1.5158  0.4914
19692SOL     OW61707   0.598   6.701   7.202  0.4012 -0.4608 -0.6444
19692SOL    HW161708   0.619   6.669   7.114 -1.2666 -0.5645 -1.0472
19692SOL    HW261709   0.595   6.796   7.193 -1.0350 -0.5176 -1.0511
19693SOL     OW61710   8.551   1.540   7.307  0.2308 -0.2163 -0.7122
19693SOL    HW161711   8.564   1.522   7.400 -0.2745 -1.5764 -0.8782
19693SOL    HW261712   8.578   1.459   7.263  1.3466  0.7149 -1.8395
19694SOL     OW61713   9.545   4.246   7.977 -0.8174  0.9251  0.0771
19694SOL    HW161714   9.498   4.279   8.055  1.8815  1.1141  1.7468
19694SOL    HW261715   9.549   4.321   7.919 -0.2905  1.6933  1.0741
19695SOL     OW61716   1.468   7.445   7.238  0.0517  0.5789 -0.1670
19695SOL    HW161717   1.448   7.526   7.191 -1.4903  0.4364  0.2180
19695SOL    HW261718   1.502   7.474   7.323 -0.8858  0.8361  0.1291
19696SOL     OW61719   0.326   9.645   7.561 -0.0367 -0.1611  0.0016
19696SOL    HW161720   0.292   9.713   7.619 -1.8722 -0.1638 -1.0028
19696SOL    HW261721   0.282   9.565   7.590 -0.2430 -0.3337 -0.7496
19697SOL     OW61722   4.564   9.187   4.683  0.6364  0.0830 -0.0775
19697SOL    HW161723   4.566   9.156   4.593  1.5049 -0.3014  0.0682
19697SOL    HW261724   4.531   9.113   4.733  1.7482 -0.2837  0.1349
19698SOL     OW61725   8.929   7.238   3.775  0.1199  0.3706  0.2912
19698SOL    HW161726   9.019   7.208   3.789 -0.1692 -0.4854  0.4015
19698SOL    HW261727   8.920   7.245   3.680  0.0810 -0.2679  0.2450
19699SOL     OW61728   9.786   8.913   1.113 -0.1806 -0.1266 -0.2272
19699SOL    HW161729   9.876   8.927   1.083 -0.1034  0.9590  0.4527
19699SOL    HW261730   9.772   8.981   1.179 -2.1496  1.0087 -1.6950
19700SOL     OW61731   5.538   5.318   9.535  0.7944  0.0547  0.2959
19700SOL    HW161732   5.547   5.271   9.453  2.7023  0.7695  0.0468
19700SOL    HW261733   5.493   5.257   9.593 -1.1225 -0.2459 -1.4063
19701SOL     OW61734   1.160   4.973   4.761  0.7801 -0.2179 -0.2662
19701SOL    HW161735   1.245   4.963   4.719  1.8173 -1.7210  1.9893
19701SOL    HW261736   1.158   5.065   4.791 -0.2523  1.0887 -3.8529
19702SOL     OW61737   1.813   1.286   4.091 -0.1749 -0.1039 -0.3067
19702SOL    HW161738   1.822   1.345   4.016  4.0819 -1.2213 -0.8941
19702SOL    HW261739   1.858   1.330   4.163 -0.6552 -0.8383  0.4666
19703SOL     OW61740   7.520   3.069   0.640 -0.0729  0.0010  0.4318
19703SOL    HW161741   7.563   2.984   0.631  1.3504  0.7766 -0.5391
19703SOL    HW261742   7.576   3.129   0.592 -1.9673  1.2002 -0.3931
19704SOL     OW61743   8.008   6.028   1.484 -0.0031  0.0805 -0.3313
19704SOL    HW161744   8.020   6.059   1.394 -0.1745  0.0247 -0.3733
19704SOL    HW261745   8.095   5.998   1.511 -0.1293 -0.6959 -0.7744
19705SOL     OW61746   3.563   3.484   2.309 -0.7941 -0.0479 -0.1984
19705SOL    HW161747   3.551   3.500   2.215  1.4408 -0.6475 -0.6628
19705SOL    HW261748   3.589   3.392   2.314 -2.7098 -0.5668  1.2503
19706SOL     OW61749  10.050   0.554   8.568 -0.4286 -0.3516 -0.1544
19706SOL    HW161750  10.089   0.606   8.638 -2.0770  2.6792 -1.2884
19706SOL    HW261751  10.118   0.550   8.500  0.0690 -0.6094  0.3470
19707SOL     OW61752   1.525   5.265   4.782 -0.1468 -0.2581  0.6074
19707SOL    HW161753   1.530   5.197   4.849 -0.3420 -0.6143  0.2667
19707SOL    HW261754   1.586   5.333   4.812 -0.7188 -0.1100  1.4772
19708SOL     OW61755   4.427   8.213  10.323  1.2535 -0.1911  0.2266
19708SOL    HW161756   4.432   8.185  10.414  0.3001  1.2337  0.7373
19708SOL    HW261757   4.448   8.306  10.325  2.7564 -0.4461 -1.2304
19709SOL     OW61758   4.156   6.109   7.715 -0.1412  0.1099  0.0496
19709SOL    HW161759   4.085   6.130   7.775 -0.4600 -0.9458  0.0583
19709SOL    HW261760   4.127   6.030   7.669  0.2942  0.6410 -1.1780
19710SOL     OW61761   6.998   3.742   6.480 -0.7143  0.3240 -0.0957
19710SOL    HW161762   6.992   3.750   6.575  0.3081 -1.7701  0.1899
19710SOL    HW261763   7.072   3.682   6.465 -0.1406  1.4557 -2.2561
19711SOL     OW61764   1.966   4.337   4.577 -0.6261  0.0714 -0.2485
19711SOL    HW161765   1.991   4.276   4.508  0.3808 -0.6260  0.6890
19711SOL    HW261766   1.961   4.422   4.534 -0.6184 -0.4405 -1.2868
19712SOL     OW61767  10.277   9.680   9.712 -0.3586 -0.4239  0.1490
19712SOL    HW161768  10.340   9.737   9.755 -1.4083  1.4914 -0.7507
19712SOL    HW261769  10.302   9.680   9.620  0.4415 -2.5745  0.3095
19713SOL     OW61770   4.678   2.344   2.026 -0.2129  0.3492 -0.1990
19713SOL    HW161771   4.761   2.386   2.004 -0.4208  0.2938 -1.1351
19713SOL    HW261772   4.674   2.346   2.122  0.6108  0.8389 -0.1701
19714SOL     OW61773   9.959   0.439   3.479 -0.2978  0.5346  0.2876
19714SOL    HW161774   9.996   0.399   3.558  0.5807 -0.4656 -0.5843
19714SOL    HW261775   9.946   0.531   3.502  1.3074  0.5870  1.1515
19715SOL     OW61776   1.889   6.511   0.066 -0.0287 -0.2218  0.2643
19715SOL    HW161777   1.831   6.585   0.081  1.6798  1.1335  0.4899
19715SOL    HW261778   1.948   6.541  -0.003  0.6872 -1.3696  0.3584
19716SOL     OW61779   7.337   9.898   7.183 -0.3777 -0.1238 -0.2201
19716SOL    HW161780   7.332   9.856   7.097 -0.7679 -0.6827  0.0687
19716SOL    HW261781   7.416   9.952   7.179  1.4791 -2.6040  0.1479
19717SOL     OW61782   6.449   7.234   2.674 -0.2766  0.1734 -0.6296
19717SOL    HW161783   6.497   7.185   2.741  1.3716  1.0627 -1.1053
19717SOL    HW261784   6.368   7.260   2.717  0.9064  1.0697  1.2045
19718SOL     OW61785   1.717   2.152   8.185  0.2930 -0.1976 -0.1659
19718SOL    HW161786   1.621   2.149   8.191  0.4059 -1.7945  3.1354
19718SOL    HW261787   1.741   2.235   8.225  0.3332  1.2033 -2.8768
19719SOL     OW61788   5.867   1.788   1.509  0.4627 -0.1877 -0.2999
19719SOL    HW161789   5.876   1.694   1.495 -0.0403 -0.1034 -1.2307
19719SOL    HW261790   5.778   1.809   1.483  0.2619  0.4106  0.7615
19720SOL     OW61791   8.664   3.000   8.622 -0.2712 -0.3363  0.0647
19720SOL    HW161792   8.586   2.973   8.670  0.1255  2.9857  2.9947
19720SOL    HW261793   8.631   3.058   8.554 -0.5046 -1.5767 -0.9226
19721SOL     OW61794   5.709   6.130   5.950 -0.3520 -0.0943  0.6982
19721SOL    HW161795   5.693   6.212   5.904 -1.3844 -0.6791 -0.0166
19721SOL    HW261796   5.698   6.062   5.884 -1.4837 -0.9340  1.6978
19722SOL     OW61797   3.729   5.071   5.338 -0.2983 -1.0184 -0.3854
19722SOL    HW161798   3.777   5.131   5.281 -0.1212 -0.1208  0.6880
19722SOL    HW261799   3.723   5.116   5.422 -1.4701 -1.8757  0.0234
19723SOL     OW61800   3.527   2.355   6.894 -0.4179 -0.3882 -0.1871
19723SOL    HW161801   3.482   2.339   6.811  0.5905 -2.0729 -0.4806
19723SOL    HW261802   3.505   2.445   6.917 -2.1752 -0.4736 -1.3602
19724SOL     OW61803   9.986   8.362   1.018  0.1815 -0.4575 -0.0717
19724SOL    HW161804   9.998   8.395   0.929  0.6594 -1.1288 -0.2614
19724SOL    HW261805   9.902   8.317   1.016  0.2624 -0.6031 -0.2257
19725SOL     OW61806   2.007   4.096   1.476 -0.0171 -0.5453 -0.3116
19725SOL    HW161807   1.951   4.096   1.399 -0.0263 -1.9666 -0.3284
19725SOL    HW261808   1.976   4.170   1.529  0.2729  0.7273 -1.8439
19726SOL     OW61809   3.113   7.344   2.439 -0.1998  0.2486 -0.2902
19726SOL    HW161810   3.178   7.320   2.505 -0.2304  1.6070  0.2769
19726SOL    HW261811   3.165   7.364   2.361 -0.2364 -2.5833 -1.1586
19727SOL     OW61812   0.493   5.764   5.440  0.3626 -0.0186  0.3189
19727SOL    HW161813   0.538   5.761   5.525  0.2819  0.9172  0.4008
19727SOL    HW261814   0.562   5.780   5.376  0.1477  1.5885  0.4631
19728SOL     OW61815   7.534   3.144   6.378 -0.4882  0.2058  0.2074
19728SOL    HW161816   7.483   3.063   6.372 -0.0936  0.0286 -0.9283
19728SOL    HW261817   7.606   3.131   6.317 -0.8167  1.7107 -0.5198
19729SOL     OW61818   1.994   3.280   7.155  0.4013  0.0107 -0.2912
19729SOL    HW161819   2.069   3.222   7.141  2.8473  3.2114 -1.9986
19729SOL    HW261820   1.943   3.273   7.074  0.9638  0.5318 -0.7026
19730SOL     OW61821   1.864   1.228   4.682  0.2447  0.3302  0.3898
19730SOL    HW161822   1.831   1.275   4.606  1.4960  2.0615  0.8521
19730SOL    HW261823   1.950   1.267   4.699  0.1874 -0.2968  2.4148
19731SOL     OW61824   9.091   1.652   3.607 -0.7563 -0.6375 -0.5056
19731SOL    HW161825   9.114   1.645   3.515  0.2660 -0.1802 -0.2966
19731SOL    HW261826   9.004   1.692   3.607 -1.2220 -1.6235 -1.2912
19732SOL     OW61827   6.339   2.348   7.447  0.1442  0.0980  0.3759
19732SOL    HW161828   6.354   2.406   7.372 -1.5841 -0.2237 -0.2782
19732SOL    HW261829   6.325   2.261   7.407 -0.3864 -0.1562  1.0985
19733SOL     OW61830   9.779   5.985   6.100 -0.8489  0.9682 -1.0840
19733SOL    HW161831   9.696   6.027   6.077 -1.0549  1.1516 -0.0809
19733SOL    HW261832   9.796   5.923   6.029 -3.1857 -0.9949 -0.0680
19734SOL     OW61833   6.070   7.667   3.139  0.3278 -0.1382 -0.4458
19734SOL    HW161834   6.048   7.624   3.221 -0.5871 -2.8140 -1.9497
19734SOL    HW261835   5.985   7.696   3.104  0.6643  0.6300 -0.6423
19735SOL     OW61836   5.454   3.754   4.749  0.1535 -0.4995  0.8277
19735SOL    HW161837   5.475   3.827   4.808 -0.3064  0.0518  0.3194
19735SOL    HW261838   5.370   3.721   4.781 -0.6278  0.4682 -0.1085
19736SOL     OW61839   5.523   6.596   8.078 -0.2288 -0.5111  0.1341
19736SOL    HW161840   5.541   6.508   8.044 -0.2827 -0.2416 -0.6115
19736SOL    HW261841   5.455   6.584   8.143  0.6167 -1.1818  0.9124
19737SOL     OW61842   9.178   5.507   0.611 -0.1141 -0.0338  0.3727
19737SOL    HW161843   9.137   5.574   0.665 -0.5268 -1.0153  1.3098
19737SOL    HW261844   9.228   5.556   0.545 -0.9786  1.1748  0.5945
19738SOL     OW61845   0.789   3.892   3.145 -0.4673  0.2606 -0.9374
19738SOL    HW161846   0.704   3.849   3.147 -0.4881  0.3095 -0.7766
19738SOL    HW261847   0.771   3.983   3.170 -0.3997  0.3237 -1.1147
19739SOL     OW61848   8.730   3.438   8.211  0.1657 -0.2296 -0.3653
19739SOL    HW161849   8.747   3.381   8.136 -0.5264 -1.1752  0.1772
19739SOL    HW261850   8.636   3.432   8.226  0.5233 -1.5857  1.7465
19740SOL     OW61851   2.780   4.802   6.923  0.1776 -0.3571 -0.0398
19740SOL    HW161852   2.753   4.761   6.841  0.1011  0.1359 -0.2662
19740SOL    HW261853   2.770   4.896   6.907 -0.8441 -0.2932  0.8845
19741SOL     OW61854   8.618   9.704  10.204  0.1907 -0.2788 -0.5954
19741SOL    HW161855   8.599   9.649  10.280 -0.0602  0.4783 -0.0976
19741SOL    HW261856   8.533   9.739  10.177  0.1397 -1.2685 -1.8147
19742SOL     OW61857   2.928   8.421   9.545  0.1485 -0.0060 -0.2699
19742SOL    HW161858   2.846   8.464   9.522  0.4215 -0.3140 -1.9366
19742SOL    HW261859   2.906   8.366   9.620 -0.7304  1.2717  0.4496
19743SOL     OW61860   9.450   2.168   4.272 -0.0247 -0.2321  0.0061
19743SOL    HW161861   9.533   2.200   4.306  0.0170  0.1868 -0.4746
19743SOL    HW261862   9.422   2.236   4.211  0.4577 -1.4726 -1.6507
19744SOL     OW61863   5.029   5.973   6.918  0.0904 -0.1942 -0.0779
19744SOL    HW161864   5.042   6.047   6.978 -1.2377 -1.1120  1.4338
19744SOL    HW261865   5.065   6.003   6.835 -0.9526  2.3811  0.3021
19745SOL     OW61866   9.130   2.353   4.412  0.1111 -0.5471 -0.0188
19745SOL    HW161867   9.051   2.394   4.447 -0.1882 -1.6712  0.6679
19745SOL    HW261868   9.202   2.407   4.446 -0.2093 -1.2348  1.8669
19746SOL     OW61869   9.937   5.682   4.607 -0.3180  0.4640 -0.2853
19746SOL    HW161870  10.027   5.654   4.587  0.3297  0.8521  1.7815
19746SOL    HW261871   9.916   5.745   4.539  1.5834  1.5079  0.0184
19747SOL     OW61872   6.546   0.308   2.789 -0.2298 -0.1740 -0.4158
19747SOL    HW161873   6.466   0.318   2.839 -0.2958 -1.9066 -0.0982
19747SOL    HW261874   6.534   0.363   2.712 -0.4802  1.8675  0.9997
19748SOL     OW61875   5.431   9.342   6.424 -0.4197  0.1685  0.3183
19748SOL    HW161876   5.346   9.367   6.460 -1.8827  0.6034 -3.0166
19748SOL    HW261877   5.469   9.424   6.392  0.7468 -0.1830  0.7472
19749SOL     OW61878  10.253   9.675   8.042 -0.3172 -0.0854  0.2720
19749SOL    HW161879  10.284   9.763   8.064 -1.6480 -0.0380  2.2130
19749SOL    HW261880  10.291   9.619   8.110 -0.2602 -0.8597 -0.3938
19750SOL     OW61881   0.120   0.311  10.250  0.3274  0.0559  0.0760
19750SOL    HW161882   0.122   0.266  10.334  2.4032  1.3391  0.8078
19750SOL    HW261883   0.040   0.281  10.207  0.3913 -2.3873  1.5152
19751SOL     OW61884   8.700   8.925   7.584 -0.0925 -0.0756  0.2053
19751SOL    HW161885   8.716   8.884   7.499 -1.1751  1.4836 -0.7956
19751SOL    HW261886   8.774   8.983   7.597  0.7171 -1.2207  0.9665
19752SOL     OW61887   9.687   0.907   2.121  0.1089 -0.3552 -0.3067
19752SOL    HW161888   9.734   0.991   2.117  0.0554 -0.1192  2.3220
19752SOL    HW261889   9.610   0.925   2.174 -0.2672 -1.9346 -0.2692
19753SOL     OW61890   8.530   6.345   5.004 -0.1940 -0.1632 -0.0885
19753SOL    HW161891   8.465   6.408   4.973 -0.0076 -0.4404 -1.0852
19753SOL    HW261892   8.527   6.274   4.940  0.0383 -0.8771  0.6820
19754SOL     OW61893   5.735   3.759   5.221  0.4338 -0.1403  0.1935
19754SOL    HW161894   5.713   3.851   5.211 -0.3136 -0.2431  0.7387
19754SOL    HW261895   5.818   3.748   5.175  0.1614  0.6403 -0.4991
19755SOL     OW61896   0.300   0.510   4.137  0.1977  0.5569  0.2349
19755SOL    HW161897   0.298   0.426   4.183  0.8384 -0.0334 -0.7629
19755SOL    HW261898   0.387   0.513   4.097 -0.7685  0.4304 -2.0104
19756SOL     OW61899   3.541   3.545   1.423  0.3636 -0.1560  0.2529
19756SOL    HW161900   3.569   3.505   1.340 -0.1426 -0.4782  0.2346
19756SOL    HW261901   3.518   3.635   1.399 -2.3073 -0.9334 -0.5170
19757SOL     OW61902   5.100   4.725   0.573  0.0094  0.6617  0.0475
19757SOL    HW161903   5.128   4.813   0.598  0.6039 -0.1170  2.4129
19757SOL    HW261904   5.004   4.728   0.576  0.0342  1.1635  0.4499
19758SOL     OW61905   8.950   1.903   6.949 -0.2577 -0.2072 -0.1568
19758SOL    HW161906   8.882   1.969   6.939 -1.0268 -0.6838  1.5828
19758SOL    HW261907   9.001   1.931   7.025  1.1052 -0.2028 -1.0412
19759SOL     OW61908   0.723   1.736   9.872 -0.1306 -0.0329 -0.2151
19759SOL    HW161909   0.669   1.662   9.845 -0.7474  0.1188  0.5722
19759SOL    HW261910   0.803   1.728   9.820  0.1132 -1.6521  0.3576
19760SOL     OW61911   1.335   5.063   0.947  0.1192 -0.5496 -0.0239
19760SOL    HW161912   1.319   5.133   0.883  0.0939 -1.2364 -0.7778
19760SOL    HW261913   1.423   5.031   0.926  0.5432 -0.0884  0.9668
19761SOL     OW61914   2.900  10.197   7.676 -0.2426  0.3929 -0.6193
19761SOL    HW161915   2.941  10.117   7.643  2.7150  1.2118  0.6915
19761SOL    HW261916   2.806  10.179   7.674  0.2145 -2.4130 -2.0074
19762SOL     OW61917  10.349   4.775   6.142  0.0067 -0.8497  0.5641
19762SOL    HW161918  10.314   4.686   6.142 -0.0603 -0.8224 -0.0278
19762SOL    HW261919  10.328   4.809   6.229  0.1103 -1.4402  0.8233
19763SOL     OW61920   7.611   6.702   7.446 -0.3900  0.2989  0.2248
19763SOL    HW161921   7.630   6.616   7.408  0.8021  0.5871  0.1514
19763SOL    HW261922   7.520   6.720   7.420  0.5570  0.8464 -3.1909
19764SOL     OW61923   7.325   5.535   6.362  0.4600  0.1953 -0.1102
19764SOL    HW161924   7.325   5.589   6.441  1.5862 -2.5531  1.9328
19764SOL    HW261925   7.235   5.505   6.353  0.6006 -0.6076  1.0067
19765SOL     OW61926   2.108   8.789   3.914 -0.5217  0.0307  0.0059
19765SOL    HW161927   2.050   8.839   3.972 -0.5784 -0.1209  0.0815
19765SOL    HW261928   2.090   8.697   3.936 -1.5064 -0.0903 -1.1555
19766SOL     OW61929  10.089   1.340   9.013 -0.6809 -0.3236 -0.1961
19766SOL    HW161930  10.048   1.424   9.032 -1.7098 -0.9958  0.6595
19766SOL    HW261931  10.118   1.348   8.922  1.4620  1.8069  0.5757
19767SOL     OW61932   9.755   2.776   9.754 -0.1468 -0.0208 -0.2926
19767SOL    HW161933   9.711   2.694   9.774  0.8717 -0.8496 -1.3129
19767SOL    HW261934   9.778   2.770   9.661 -0.4943  1.6426 -0.5322
19768SOL     OW61935   0.021   3.398   6.319 -0.0923  0.5186 -0.5469
19768SOL    HW161936  -0.065   3.394   6.362  0.0148 -0.0964 -0.3927
19768SOL    HW261937   0.026   3.488   6.287 -0.1483  1.0179  0.7851
19769SOL     OW61938   4.797   8.720   3.534 -0.2622 -0.4951 -0.1334
19769SOL    HW161939   4.824   8.668   3.458  4.0308  1.3578 -0.1463
19769SOL    HW261940   4.876   8.727   3.588 -1.9246  2.0229  2.2354
19770SOL     OW61941   1.601   9.067   2.758 -0.5318  0.2821 -0.4244
19770SOL    HW161942   1.653   9.073   2.678 -1.2258  1.0020 -0.8412
19770SOL    HW261943   1.510   9.061   2.727 -0.7410 -0.4852  0.2958
19771SOL     OW61944   0.690   3.225   7.733  0.1075 -0.3149  0.0638
19771SOL    HW161945   0.749   3.293   7.700 -0.5776  0.3584  0.1936
19771SOL    HW261946   0.748   3.158   7.769  0.8337 -0.3563 -1.1162
19772SOL     OW61947   0.533   4.979   3.590  0.1527 -0.4954 -0.1176
19772SOL    HW161948   0.536   4.884   3.592 -0.0240 -0.5014  1.2778
19772SOL    HW261949   0.577   5.006   3.671 -0.6710  0.5768 -0.0045
19773SOL     OW61950   4.800   5.992   9.057  0.4145 -0.0047  0.5853
19773SOL    HW161951   4.764   5.979   9.145 -0.7513 -2.8511 -0.1971
19773SOL    HW261952   4.782   6.084   9.038 -1.2922  0.1370  2.4975
19774SOL     OW61953   4.315   7.573   6.170  0.4315 -0.0173 -0.1992
19774SOL    HW161954   4.280   7.625   6.098  1.4014 -0.8343 -1.2945
19774SOL    HW261955   4.266   7.491   6.166 -0.5347  0.4661  1.0225
19775SOL     OW61956   7.082   6.854   0.668 -0.5433  0.2550 -0.2364
19775SOL    HW161957   7.011   6.794   0.690  0.2952 -0.9142 -0.6193
19775SOL    HW261958   7.135   6.858   0.748 -0.5067  0.3414 -0.2648
19776SOL     OW61959   9.050   5.669   4.330  0.3481 -0.4295  0.4104
19776SOL    HW161960   9.031   5.738   4.266  0.2694 -0.9997 -0.2004
19776SOL    HW261961   9.140   5.686   4.359  0.2602  0.0370  0.4028
19777SOL     OW61962   9.706   0.180   5.006 -0.5399 -0.0753  0.6444
19777SOL    HW161963   9.774   0.211   4.946 -0.3156 -1.4400  0.1595
19777SOL    HW261964   9.699   0.250   5.072  0.4345  0.6570  0.0078
19778SOL     OW61965   6.124   2.388   9.671 -1.0879  0.9245  0.3721
19778SOL    HW161966   6.196   2.327   9.685 -1.4898  0.3367 -0.0812
19778SOL    HW261967   6.054   2.358   9.729 -2.1831 -0.5725 -1.5904
19779SOL     OW61968   1.088   8.320   6.257  0.3553  0.1514  0.0075
19779SOL    HW161969   1.115   8.382   6.325  0.2643  1.9295 -1.5052
19779SOL    HW261970   1.003   8.353   6.227  0.3537 -0.6603 -0.9085
19780SOL     OW61971   0.130   6.575   6.768 -0.3549  0.5447 -0.0720
19780SOL    HW161972   0.107   6.667   6.759  0.0136  0.7216  0.6509
19780SOL    HW261973   0.213   6.576   6.815  0.0485 -0.1367 -0.7610
19781SOL     OW61974   3.918   2.939   3.977 -0.1645 -0.4859 -0.4591
19781SOL    HW161975   3.904   2.964   4.069  2.6610 -0.4665  0.0513
19781SOL    HW261976   3.915   3.022   3.929  1.7217 -0.0023  0.1627
19782SOL     OW61977   9.797   8.073   4.255 -0.6874 -0.2573  0.0247
19782SOL    HW161978   9.778   7.985   4.223 -0.5656 -0.6883  1.0792
19782SOL    HW261979   9.884   8.092   4.221 -1.1391 -0.0897 -1.1001
19783SOL     OW61980   3.512   2.449   9.891  0.7212  0.0617 -0.2572
19783SOL    HW161981   3.440   2.398   9.927 -0.5169  1.1705 -1.0733
19783SOL    HW261982   3.543   2.503   9.964  1.1116 -0.8329  0.2420
19784SOL     OW61983   3.271   0.758   4.624 -0.0330  0.8344  0.6144
19784SOL    HW161984   3.211   0.794   4.559  1.3224 -1.2806 -2.0020
19784SOL    HW261985   3.356   0.760   4.582  0.4380 -3.5703  0.8405
19785SOL     OW61986   4.835   4.387   3.925  0.6378 -0.7194  0.4728
19785SOL    HW161987   4.782   4.410   3.849  0.7396 -2.3963 -0.1495
19785SOL    HW261988   4.853   4.470   3.969 -0.1594  0.1716 -0.8522
19786SOL     OW61989   7.862   5.908   2.934  0.3786 -0.0012  0.2347
19786SOL    HW161990   7.863   5.878   3.025  1.4595 -1.4723 -0.2253
19786SOL    HW261991   7.871   5.828   2.882 -0.1118  0.8198 -1.1744
19787SOL     OW61992   0.170   1.938   5.803  0.2737  0.0493  0.3995
19787SOL    HW161993   0.169   2.019   5.855 -1.6047  0.3000  0.0599
19787SOL    HW261994   0.118   1.960   5.725 -1.5705 -1.9080  1.0069
19788SOL     OW61995   6.057  10.116   4.669 -0.0278  0.2655  0.1577
19788SOL    HW161996   6.126  10.062   4.630 -0.0300 -0.0331  0.5521
19788SOL    HW261997   6.090  10.137   4.757  0.1715  1.2894 -0.1465
19789SOL     OW61998   0.651   3.365   1.410  0.8793 -0.0986 -0.0027
19789SOL    HW161999   0.613   3.354   1.323  4.6030 -0.7371 -1.7527
19789SOL    HW262000   0.595   3.314   1.468 -1.3653 -0.1765 -2.0800
19790SOL     OW62001   1.735   0.638   1.623 -0.7197 -0.0147 -0.4261
19790SOL    HW162002   1.793   0.712   1.640  0.4024 -1.1672  1.0610
19790SOL    HW262003   1.694   0.620   1.708 -1.1984 -0.9042 -0.8258
19791SOL     OW62004   9.662   5.569   0.713 -0.0866  0.2551  0.3880
19791SOL    HW162005   9.703   5.643   0.758  0.0214  0.7363 -0.4818
19791SOL    HW262006   9.617   5.608   0.638 -0.8965 -0.4475  0.4952
19792SOL     OW62007   1.768   6.254   9.770 -0.6959 -0.0644  0.3864
19792SOL    HW162008   1.699   6.217   9.826 -0.1139 -1.7344  0.0691
19792SOL    HW262009   1.731   6.335   9.735 -2.4141 -0.8170  0.3899
19793SOL     OW62010   5.222   1.032   1.742  0.0718 -0.0824  0.2841
19793SOL    HW162011   5.215   0.938   1.758 -1.5856  0.0355  0.3944
19793SOL    HW262012   5.201   1.072   1.826 -0.3218  0.3940 -0.0348
19794SOL     OW62013   5.231   7.272   1.950  0.2136  0.2154 -0.1372
19794SOL    HW162014   5.182   7.321   1.884  0.3354 -0.9426 -1.0984
19794SOL    HW262015   5.181   7.192   1.963  0.4228  0.2380  0.8759
19795SOL     OW62016   1.757   0.444   3.212 -0.2952  0.0646  0.1889
19795SOL    HW162017   1.767   0.506   3.284 -0.3034 -0.1629  0.3874
19795SOL    HW262018   1.757   0.358   3.254 -0.6661 -0.0518 -0.0445
19796SOL     OW62019   5.436   1.172   4.223 -0.1971  0.0819 -0.2887
19796SOL    HW162020   5.359   1.118   4.242  2.4606 -3.4053  1.8493
19796SOL    HW262021   5.464   1.145   4.136 -0.5053  0.2220 -0.4332
19797SOL     OW62022   6.186   2.969   6.846 -0.0794 -0.7784  0.5694
19797SOL    HW162023   6.167   3.053   6.804 -0.7074 -0.1480  2.0373
19797SOL    HW262024   6.254   2.930   6.791  1.3646  1.3750  0.6748
19798SOL     OW62025   2.414   8.685   2.013  0.0490  0.5363  0.4326
19798SOL    HW162026   2.391   8.712   2.102 -1.2644 -1.7856  0.8614
19798SOL    HW262027   2.331   8.667   1.971  0.5472  2.7854 -1.7835
19799SOL     OW62028   9.998   8.155   5.678 -0.3354 -0.4941 -0.1251
19799SOL    HW162029   9.918   8.206   5.693 -1.2857 -0.7311 -3.5663
19799SOL    HW262030   9.967   8.066   5.660  0.7083 -0.6487 -1.2732
19800SOL     OW62031   8.588   9.093   5.432 -0.6318  0.0979  0.2434
19800SOL    HW162032   8.510   9.039   5.445 -0.4457  0.1031  1.5981
19800SOL    HW262033   8.658   9.030   5.413 -0.8230  0.0397 -0.2854
19801SOL     OW62034   4.349   8.283   5.321  0.0591  0.6221 -0.8698
19801SOL    HW162035   4.349   8.371   5.358  1.7149  0.8242 -1.2861
19801SOL    HW262036   4.424   8.282   5.261  0.9516 -1.4955  0.1731
19802SOL     OW62037   4.331   6.035   0.100 -0.4808  0.2684  0.9191
19802SOL    HW162038   4.284   6.032   0.016 -0.5598  0.6736  0.9478
19802SOL    HW262039   4.341   6.129   0.118  1.1277  0.1982  0.4681
19803SOL     OW62040   2.885  10.279   6.143  0.5144  0.1576 -0.5430
19803SOL    HW162041   2.807  10.333   6.130  0.6664  0.5033 -0.0538
19803SOL    HW262042   2.953  10.322   6.092  0.1825 -0.6463 -1.7110
19804SOL     OW62043   0.437   6.317   7.879  0.0721 -0.4424  0.2031
19804SOL    HW162044   0.517   6.364   7.859  0.3361 -0.2987  1.4856
19804SOL    HW262045   0.413   6.272   7.798  1.9380 -1.2271  0.0441
19805SOL     OW62046   5.431   4.409   2.667  0.3785  0.0239  0.1065
19805SOL    HW162047   5.458   4.500   2.675 -2.2337  0.8417  0.3065
19805SOL    HW262048   5.393   4.387   2.752  0.1756 -0.9637 -0.2241
19806SOL     OW62049   0.762   7.328   9.397 -0.6129  0.0271 -0.0602
19806SOL    HW162050   0.760   7.359   9.307 -0.0210 -2.6764 -1.1129
19806SOL    HW262051   0.674   7.345   9.430 -1.7213 -1.3292 -2.0917
19807SOL     OW62052   3.930   6.161   5.621 -0.2090 -0.0640  0.1989
19807SOL    HW162053   3.867   6.103   5.664  0.1312 -0.0687  0.6996
19807SOL    HW262054   3.899   6.249   5.640  0.5823 -0.0313  1.4834
19808SOL     OW62055   0.021   8.328   0.021  0.1414 -0.8267 -0.1388
19808SOL    HW162056  -0.061   8.284   0.044  1.6257 -2.8320  1.7810
19808SOL    HW262057   0.052   8.281  -0.057 -0.0922 -0.6892 -0.3147
19809SOL     OW62058   5.599   5.523   3.659  0.0244  0.8342 -0.4426
19809SOL    HW162059   5.672   5.475   3.621  1.7150  1.4425  1.8150
19809SOL    HW262060   5.538   5.456   3.688  1.4815  0.0445  0.9827
19810SOL     OW62061   8.998   9.337   4.920 -0.5954  0.4260  0.4013
19810SOL    HW162062   8.962   9.418   4.957  0.3160  1.5528 -1.0609
19810SOL    HW262063   9.033   9.290   4.996 -0.1570  1.9389  1.1755
19811SOL     OW62064   3.705   9.383   5.225  0.3034 -0.0520 -0.2720
19811SOL    HW162065   3.694   9.304   5.172 -0.4484  2.4480 -4.2664
19811SOL    HW262066   3.767   9.437   5.175  2.9076  0.9549  3.6185
19812SOL     OW62067   9.016  10.147   5.877  0.8709 -0.9045  0.8382
19812SOL    HW162068   9.091  10.149   5.936  0.8963 -2.3580  0.8905
19812SOL    HW262069   9.028  10.222   5.819  2.7791 -1.5548  0.3330
19813SOL     OW62070   2.006   3.536   9.991 -0.2840  0.0457 -0.3116
19813SOL    HW162071   1.917   3.523   9.957  0.2435 -1.4418 -1.1994
19813SOL    HW262072   1.995   3.529  10.086 -1.0660 -0.4888 -0.4258
19814SOL     OW62073   5.937   9.476   3.100  0.0110  0.1185  0.9062
19814SOL    HW162074   5.971   9.392   3.131 -1.0146 -0.9400 -0.6958
19814SOL    HW262075   5.878   9.453   3.029  0.3002  2.2628 -0.1041
19815SOL     OW62076   7.223   8.871   4.165  0.3880 -0.0657  0.1763
19815SOL    HW162077   7.224   8.829   4.251 -0.1180  0.4206  0.4257
19815SOL    HW262078   7.137   8.850   4.129  0.7226 -0.5591 -0.3702
19816SOL     OW62079   2.274   4.649   6.180 -1.1449  0.2599 -0.1798
19816SOL    HW162080   2.336   4.604   6.237 -1.4842 -2.3428 -1.7127
19816SOL    HW262081   2.329   4.703   6.123 -0.7168  1.8280  1.6114
19817SOL     OW62082  10.203   4.589   5.023 -0.1742 -0.1157  0.2591
19817SOL    HW162083  10.263   4.583   4.949 -2.6830 -2.0215 -1.8430
19817SOL    HW262084  10.145   4.662   5.002  0.1514  0.4618  1.2810
19818SOL     OW62085   9.845   2.999   7.649  0.2080 -0.9624 -0.0665
19818SOL    HW162086   9.849   2.904   7.661 -1.4801 -1.1628 -0.7784
19818SOL    HW262087   9.790   3.030   7.720  2.8535 -0.0843  1.7874
19819SOL     OW62088   6.244   9.543   1.824  0.0152 -0.0196 -0.1158
19819SOL    HW162089   6.249   9.602   1.749  0.2058  0.0991 -0.0096
19819SOL    HW262090   6.151   9.519   1.828 -0.3467  1.3589  0.6542
19820SOL     OW62091   5.025   2.060   1.514 -0.0974  0.5516 -0.4871
19820SOL    HW162092   5.068   2.120   1.453 -1.0904  0.8613 -0.9045
19820SOL    HW262093   5.062   1.974   1.493  0.4757  0.8394 -0.6785
19821SOL     OW62094   8.215   8.224   6.347  0.1282 -0.1921 -0.3332
19821SOL    HW162095   8.274   8.282   6.395  0.9401  0.3434 -1.9367
19821SOL    HW262096   8.165   8.281   6.289 -0.0253 -0.9541 -0.9695
19822SOL     OW62097   2.856  10.233   4.237  0.4612 -0.1151 -0.0846
19822SOL    HW162098   2.854  10.260   4.328 -0.8553 -0.0759 -0.1094
19822SOL    HW262099   2.944  10.196   4.224  0.3320 -1.0303  1.4581
19823SOL     OW62100   1.161   5.506   9.192 -0.1323  0.3051  0.1890
19823SOL    HW162101   1.104   5.449   9.244 -1.3732  0.3794 -1.0246
19823SOL    HW262102   1.195   5.570   9.254 -0.2500 -0.6128  1.2099
19824SOL     OW62103   8.826   9.459   0.121  0.0285 -0.3551  0.1271
19824SOL    HW162104   8.917   9.467   0.091 -0.0776  1.2707  0.1560
19824SOL    HW262105   8.779   9.422   0.046  0.8464 -2.1317  0.4256
19825SOL     OW62106   2.531   3.203   6.558  0.8614  0.2189  0.3540
19825SOL    HW162107   2.489   3.190   6.474  0.6245 -0.5272  0.5807
19825SOL    HW262108   2.572   3.118   6.578  1.0202  0.4229  0.9252
19826SOL     OW62109   5.496   0.724   9.321 -0.7545 -0.1968 -1.0966
19826SOL    HW162110   5.471   0.813   9.295 -2.5486 -0.2184  0.3323
19826SOL    HW262111   5.432   0.700   9.388  0.1831 -2.2785 -0.8707
19827SOL     OW62112   9.121   2.207   7.740  0.5638 -0.0118 -0.2214
19827SOL    HW162113   9.210   2.227   7.767  0.2718  0.7468  0.2169
19827SOL    HW262114   9.119   2.222   7.646  0.8409  0.1977 -0.1927
19828SOL     OW62115   2.429   3.347   8.608 -0.7835  0.0314  0.4681
19828SOL    HW162116   2.486   3.399   8.665 -0.5076 -1.1712  1.3218
19828SOL    HW262117   2.457   3.369   8.519 -0.0937  0.6839  0.8363
19829SOL     OW62118   1.479   7.896   2.586  0.0376 -0.2847  0.1002
19829SOL    HW162119   1.447   7.864   2.502  1.0382 -2.0328  0.3339
19829SOL    HW262120   1.518   7.982   2.567  0.9649 -1.0061 -1.3917
19830SOL     OW62121   9.298   7.415   3.484 -0.1593  1.0142  0.2389
19830SOL    HW162122   9.223   7.455   3.527 -0.6220 -0.7866  1.1869
19830SOL    HW262123   9.306   7.329   3.525  0.6510  0.0311 -1.8640
19831SOL     OW62124   6.156   3.430   3.763 -0.1447  0.0501  0.1436
19831SOL    HW162125   6.173   3.360   3.825 -1.2973 -0.4435 -0.0816
19831SOL    HW262126   6.095   3.393   3.700  0.7409  0.6447 -1.1104
19832SOL     OW62127   3.339   7.959   5.250  0.0090  0.0346 -0.4901
19832SOL    HW162128   3.362   7.867   5.261  0.8385  0.2733 -0.1183
19832SOL    HW262129   3.252   7.967   5.289 -0.2499 -0.6663 -0.8956
19833SOL     OW62130   4.932   9.066   4.590  0.3553 -0.3384 -0.8794
19833SOL    HW162131   4.949   8.975   4.617  1.8190 -0.2237 -1.3141
19833SOL    HW262132   5.018   9.100   4.566 -0.4795  0.4065 -3.1076
19834SOL     OW62133   3.851   9.271   6.305 -0.2945 -0.2378 -0.3053
19834SOL    HW162134   3.947   9.275   6.313 -0.2350 -1.2747 -0.3237
19834SOL    HW262135   3.830   9.179   6.321 -1.2778 -0.0497 -0.4713
19835SOL     OW62136   2.767   6.291   7.960  0.0099  0.1338  0.2891
19835SOL    HW162137   2.687   6.279   7.910  1.1741  0.2749 -1.7679
19835SOL    HW262138   2.740   6.292   8.051 -2.0330 -1.9793 -0.2155
19836SOL     OW62139   2.337   7.556   7.500 -0.1608 -0.5551 -0.6894
19836SOL    HW162140   2.331   7.483   7.439 -0.2688  0.3632 -1.8249
19836SOL    HW262141   2.406   7.612   7.463 -0.5004  0.2172 -0.1803
19837SOL     OW62142   5.905   6.966   3.304  0.0416  0.0531 -0.2444
19837SOL    HW162143   5.998   6.952   3.321 -0.4043 -2.3047  0.7269
19837SOL    HW262144   5.867   6.878   3.307 -2.2272  0.9518 -0.5957
19838SOL     OW62145   8.703   2.765   5.668  0.0989 -0.2356 -0.3330
19838SOL    HW162146   8.740   2.779   5.581 -1.1029  0.9056 -0.6890
19838SOL    HW262147   8.616   2.805   5.663 -0.7515 -1.8667  0.7994
19839SOL     OW62148   1.053   1.906   6.155  0.5412  0.0429  0.5266
19839SOL    HW162149   1.060   1.916   6.250 -1.1234 -0.3875  0.7203
19839SOL    HW262150   0.964   1.873   6.140  0.1514  1.6936 -1.3062
19840SOL     OW62151   5.658   6.762   6.665 -0.0810  0.0244 -0.1866
19840SOL    HW162152   5.653   6.790   6.574  0.2260  0.4910 -0.0655
19840SOL    HW262153   5.576   6.792   6.704  0.3700  1.0575  0.0151
19841SOL     OW62154   5.853   4.577   0.504  0.1035  0.2509  0.1660
19841SOL    HW162155   5.883   4.661   0.539 -0.9974  0.1389  1.4789
19841SOL    HW262156   5.777   4.599   0.450  1.4638  0.3611 -1.7656
19842SOL     OW62157   8.874   1.201   4.254  0.2202 -0.1443 -0.1917
19842SOL    HW162158   8.911   1.254   4.183  0.5413  1.6963  1.2528
19842SOL    HW262159   8.783   1.229   4.259  0.6156  1.0234  1.1692
19843SOL     OW62160   3.622   4.134   5.344 -0.2160 -0.3767  0.0189
19843SOL    HW162161   3.557   4.198   5.373  1.0564  0.6717  0.6380
19843SOL    HW262162   3.702   4.185   5.333  0.6005 -1.7118 -0.3867
19844SOL     OW62163   4.563   9.895   5.671  0.0503 -0.3611 -0.5758
19844SOL    HW162164   4.479   9.927   5.703  0.6657  1.0445 -0.2763
19844SOL    HW262165   4.585   9.955   5.599  1.0020 -0.4373 -0.3570
19845SOL     OW62166   7.126   2.357   1.487  0.4131  0.0384  0.5330
19845SOL    HW162167   7.122   2.405   1.404  0.2670  0.6235  0.8662
19845SOL    HW262168   7.073   2.410   1.547 -0.9151 -1.2612  0.5756
19846SOL     OW62169   6.560   2.670   6.672  0.2922  0.6735  0.2779
19846SOL    HW162170   6.523   2.651   6.586 -0.7951 -1.2676  1.1050
19846SOL    HW262171   6.639   2.616   6.676  0.0517  0.3483  0.6845
19847SOL     OW62172   9.480   2.656   0.794 -0.2495  0.0589  0.1349
19847SOL    HW162173   9.510   2.746   0.803 -1.6278  0.5112  0.5751
19847SOL    HW262174   9.537   2.617   0.728  0.8753  1.0099  0.5266
19848SOL     OW62175   4.987   1.390   5.190  0.0198  0.0509  0.1090
19848SOL    HW162176   4.949   1.421   5.272 -0.5992  1.7212 -0.7574
19848SOL    HW262177   5.082   1.393   5.204 -0.0929 -0.1102  0.9103
19849SOL     OW62178   6.946   9.533   2.139 -0.1907  0.9022  0.0225
19849SOL    HW162179   6.962   9.627   2.123  0.6305  0.6242 -0.8916
19849SOL    HW262180   6.977   9.520   2.229 -1.9786  1.8565  0.8186
19850SOL     OW62181   9.988   5.341   4.819 -0.2832  0.3205 -0.0422
19850SOL    HW162182  10.046   5.340   4.743 -0.2773 -0.1602 -0.0359
19850SOL    HW262183  10.014   5.264   4.870 -0.4104  0.5359  0.3512
19851SOL     OW62184   7.606   1.838   6.820 -0.2930  0.1187  0.6889
19851SOL    HW162185   7.534   1.900   6.830 -0.6539 -0.3552  1.0689
19851SOL    HW262186   7.664   1.855   6.894  1.0852  1.9111 -0.7244
19852SOL     OW62187   0.527   9.222   9.495 -0.4387  0.2567  0.8721
19852SOL    HW162188   0.510   9.130   9.515  1.4220 -0.0914  1.0417
19852SOL    HW262189   0.462   9.244   9.428 -1.5975 -0.8558  1.5757
19853SOL     OW62190   6.403   9.598   9.548  0.0961  0.0993  0.0339
19853SOL    HW162191   6.354   9.681   9.546  0.7385  0.4724 -0.5105
19853SOL    HW262192   6.387   9.563   9.636  0.5327  1.2291  0.5813
19854SOL     OW62193   9.869  10.230   9.260  0.1885  0.0458 -0.0326
19854SOL    HW162194   9.908  10.203   9.343  0.3775  0.1067 -0.1005
19854SOL    HW262195   9.794  10.172   9.248  0.2587 -0.0717  0.0997
19855SOL     OW62196   6.597   4.799   3.870  0.6664 -0.2633  0.2188
19855SOL    HW162197   6.581   4.892   3.881 -0.4662 -0.1894 -1.6800
19855SOL    HW262198   6.633   4.791   3.781  1.8866 -1.5349  0.7756
19856SOL     OW62199   4.264   6.969   2.720  0.1682  0.1708  0.5378
19856SOL    HW162200   4.271   6.894   2.779  0.5545  0.4039  0.7877
19856SOL    HW262201   4.310   7.040   2.765 -0.8403  0.7702  0.6436
19857SOL     OW62202   2.175   9.074   0.714  0.4856 -0.1431 -0.3356
19857SOL    HW162203   2.182   9.006   0.647  1.8098 -0.9231  0.5301
19857SOL    HW262204   2.236   9.045   0.782  0.7515  1.7036  0.2456
19858SOL     OW62205   2.912  10.294   6.618  0.4577 -0.1678  0.0308
19858SOL    HW162206   2.844  10.257   6.561 -0.7732 -1.0450  1.9958
19858SOL    HW262207   2.865  10.350   6.679  1.5927 -0.2576  1.0257
19859SOL     OW62208   8.348   4.191  10.314  0.9451  0.2621 -0.1217
19859SOL    HW162209   8.306   4.272  10.343 -0.4900 -0.2416 -0.6783
19859SOL    HW262210   8.297   4.165  10.237  1.7229 -0.8916 -0.2621
19860SOL     OW62211   7.039   5.575   8.111  0.9384 -0.7606  0.0911
19860SOL    HW162212   6.962   5.614   8.154 -0.1323 -0.0217 -2.3270
19860SOL    HW262213   7.112   5.629   8.140  0.2142 -0.0710  0.6966
19861SOL     OW62214   1.205   0.182   6.772  0.0159  0.1639  0.0414
19861SOL    HW162215   1.153   0.148   6.699  1.9683  1.0310 -1.8161
19861SOL    HW262216   1.182   0.275   6.777  2.0134  0.7870 -1.4355
19862SOL     OW62217   3.536   7.545   9.143 -0.7679 -0.2306  0.2076
19862SOL    HW162218   3.605   7.611   9.134 -0.7778 -0.4783 -2.6961
19862SOL    HW262219   3.565   7.490   9.215  1.5804  0.2842 -0.2636
19863SOL     OW62220   5.120   4.532   3.018 -0.2316 -0.0636 -0.9793
19863SOL    HW162221   5.077   4.583   3.086 -0.4525 -1.9612  0.4103
19863SOL    HW262222   5.177   4.594   2.972 -2.1862  1.8662 -0.9295
19864SOL     OW62223   9.742   1.665   3.557  0.0736  0.0975  0.3225
19864SOL    HW162224   9.755   1.570   3.558  1.3386  0.1846 -1.6217
19864SOL    HW262225   9.747   1.691   3.649 -1.5562 -1.8287  1.0306
19865SOL     OW62226   6.062   2.947   3.559  0.6649  0.4319  0.5604
19865SOL    HW162227   6.131   2.898   3.602  1.4846  1.8692  0.9696
19865SOL    HW262228   6.102   2.980   3.478 -0.4004 -0.9861 -0.5912
19866SOL     OW62229   9.229   7.659   7.775  0.2238  0.7309  0.2553
19866SOL    HW162230   9.192   7.590   7.719 -0.0345  0.1946  1.0637
19866SOL    HW262231   9.211   7.629   7.864 -0.1564  2.0051  0.6248
19867SOL     OW62232   6.606   2.421   7.947  0.1292 -0.5591  0.5694
19867SOL    HW162233   6.653   2.494   7.989  1.1287 -0.7714 -0.1384
19867SOL    HW262234   6.661   2.345   7.964  0.0002 -0.8322 -0.2140
19868SOL     OW62235   8.650   0.613   9.571 -0.0013 -0.0588  0.3876
19868SOL    HW162236   8.648   0.683   9.637  1.4017  0.2156  0.1605
19868SOL    HW262237   8.596   0.647   9.500 -0.2042  0.3327  0.7198
19869SOL     OW62238   1.037   2.995   6.869 -0.6695 -0.1669  0.0773
19869SOL    HW162239   1.072   2.996   6.780  1.2086 -1.4814  0.7500
19869SOL    HW262240   1.058   3.081   6.904 -1.2939  0.3064 -0.6717
19870SOL     OW62241   1.833   2.051   0.964  0.0909  0.3650 -0.2966
19870SOL    HW162242   1.887   2.128   0.945  1.9131 -0.9944 -0.9112
19870SOL    HW262243   1.816   2.012   0.878 -1.4741  0.4632 -0.0631
19871SOL     OW62244   8.833   6.171   1.761  0.7183  0.1813  0.0168
19871SOL    HW162245   8.919   6.191   1.797  0.7820 -0.6009  0.3172
19871SOL    HW262246   8.780   6.249   1.778  0.5230 -0.4040  2.4832
19872SOL     OW62247   9.607   1.783   9.209  0.1876  0.2416  0.3989
19872SOL    HW162248   9.583   1.811   9.297  0.1604  0.0028  0.4688
19872SOL    HW262249   9.562   1.844   9.151 -1.8049 -1.0512  0.4705
19873SOL     OW62250   2.376   2.610   8.417 -0.0566  0.4200  0.4404
19873SOL    HW162251   2.287   2.644   8.407  0.5735  1.5504 -2.1451
19873SOL    HW262252   2.365   2.515   8.423 -1.3871  0.3421 -1.9637
19874SOL     OW62253   0.933   5.995   1.597 -1.1910  0.0938 -0.9296
19874SOL    HW162254   0.960   5.914   1.640 -1.3520  0.8119  0.5674
19874SOL    HW262255   0.974   5.990   1.510  1.5890 -0.0870  0.2922
19875SOL     OW62256   0.230   4.821   8.190 -0.2989  0.0202 -0.0170
19875SOL    HW162257   0.157   4.870   8.151 -0.8006  0.2662  1.1858
19875SOL    HW262258   0.216   4.829   8.284  1.0874 -0.2477  0.2264
19876SOL     OW62259   6.555  10.261   2.505  0.0599  0.4459  0.0857
19876SOL    HW162260   6.527  10.339   2.457  0.4927  0.2791 -0.4505
19876SOL    HW262261   6.541  10.283   2.597  0.0875  1.1218 -0.0645
19877SOL     OW62262   4.058   4.603   0.567 -0.3027 -0.0206  0.1461
19877SOL    HW162263   4.114   4.529   0.543 -1.4129 -0.4928 -1.0960
19877SOL    HW262264   4.002   4.617   0.491 -0.8129  1.4530  0.7517
19878SOL     OW62265   0.662   2.913   1.528  0.3230 -0.2595 -0.1742
19878SOL    HW162266   0.715   2.982   1.488  0.9204 -0.5954  0.0384
19878SOL    HW262267   0.677   2.836   1.473 -1.6988  0.1793 -1.4767
19879SOL     OW62268   5.441   9.499   9.534 -0.0145 -0.4296 -0.6807
19879SOL    HW162269   5.470   9.408   9.538 -0.2684 -0.4836  0.2907
19879SOL    HW262270   5.509   9.547   9.582 -0.7467 -0.3558  0.3119
19880SOL     OW62271   8.054   5.573  10.020 -0.4602 -0.0183 -0.6544
19880SOL    HW162272   8.021   5.590  10.108 -1.6358  1.5620 -1.3603
19880SOL    HW262273   8.122   5.506  10.033  0.7426  1.5003  1.6802
19881SOL     OW62274   5.275  10.018   4.916  0.2299 -0.4190  0.1877
19881SOL    HW162275   5.292  10.102   4.874  1.2211 -0.8334 -0.2803
19881SOL    HW262276   5.319  10.024   5.000 -0.7173 -0.0385  0.6650
19882SOL     OW62277   7.263   1.496   0.181 -0.3344  0.3171  0.1979
19882SOL    HW162278   7.171   1.520   0.190 -0.7175 -0.3801 -1.5263
19882SOL    HW262279   7.297   1.553   0.112  0.1373 -0.3995 -0.1755
19883SOL     OW62280   4.533   3.073   0.293  0.5632 -0.2520 -0.5217
19883SOL    HW162281   4.493   3.019   0.361  0.9479 -0.5217 -0.5094
19883SOL    HW262282   4.528   3.162   0.326  3.3036 -0.6276  1.1589
19884SOL     OW62283   1.838   6.923   8.514 -0.2553 -0.3595 -0.2398
19884SOL    HW162284   1.767   6.871   8.478  0.0287  0.6258 -2.3616
19884SOL    HW262285   1.824   6.921   8.609 -2.4458 -1.1086 -0.5295
19885SOL     OW62286   1.028   2.583   1.306 -0.3858 -0.1644  0.2274
19885SOL    HW162287   1.115   2.619   1.322 -0.6772  1.5987 -1.6751
19885SOL    HW262288   0.977   2.610   1.383 -0.1831  2.3013 -0.4155
19886SOL     OW62289   3.974   4.779   0.780 -0.0257 -0.5695 -0.8264
19886SOL    HW162290   3.923   4.735   0.849  0.4193 -0.4344 -0.4035
19886SOL    HW262291   3.958   4.727   0.701 -1.7617  0.1346 -0.9901
19887SOL     OW62292   2.893   1.780   8.032  0.4678  0.5080 -0.1586
19887SOL    HW162293   2.817   1.723   8.028 -0.8926  2.2731 -0.9770
19887SOL    HW262294   2.939   1.754   8.112 -1.3879 -0.1334  0.7626
19888SOL     OW62295   7.502   9.290   4.256  0.1009  0.4107 -0.1111
19888SOL    HW162296   7.597   9.282   4.248  0.0928  0.6183 -0.4352
19888SOL    HW262297   7.467   9.214   4.210  0.0876  0.8525 -0.8376
19889SOL     OW62298   1.054   9.898   7.420 -0.0818  0.3459  0.4337
19889SOL    HW162299   1.027   9.851   7.341  1.7976  2.4595 -1.5996
19889SOL    HW262300   0.981   9.956   7.440  0.0250  0.8726 -0.6652
19890SOL     OW62301   8.241   4.133   2.353 -0.4288 -0.3083 -0.2175
19890SOL    HW162302   8.193   4.115   2.272 -0.7558 -0.6883  0.0620
19890SOL    HW262303   8.273   4.048   2.382  2.7952  0.1912 -1.8371
19891SOL     OW62304   2.632   2.045   1.663  0.2446 -0.8005 -0.2323
19891SOL    HW162305   2.584   2.073   1.741  1.2046 -0.4222  0.2460
19891SOL    HW262306   2.604   2.105   1.594  0.7285  0.0351  0.2795
19892SOL     OW62307   7.808   1.146   9.516 -0.6851 -0.5183  0.2612
19892SOL    HW162308   7.826   1.054   9.534 -0.8205 -0.2514  1.9543
19892SOL    HW262309   7.752   1.174   9.588  1.2135  1.4671  1.0929
19893SOL     OW62310   1.984   4.206   2.801  0.6343 -0.0030  0.7574
19893SOL    HW162311   1.895   4.176   2.822  0.4817 -0.0188  0.1166
19893SOL    HW262312   2.023   4.226   2.886 -0.1881  0.5677  1.0183
19894SOL     OW62313   9.771   6.664   0.896 -0.8117  0.6968  0.4623
19894SOL    HW162314   9.736   6.575   0.887  0.7961 -0.0321  0.9008
19894SOL    HW262315   9.838   6.669   0.827 -0.6482  1.4507  0.6749
19895SOL     OW62316   3.610   8.687   3.835  0.8558 -0.5760  0.1184
19895SOL    HW162317   3.572   8.681   3.747  2.2852  0.3590 -0.5978
19895SOL    HW262318   3.690   8.635   3.830  1.5090  0.3524  0.5139
19896SOL     OW62319   7.789   9.681   0.103  0.1983  0.1187  0.0491
19896SOL    HW162320   7.778   9.686   0.198  2.7144 -1.2763  0.5145
19896SOL    HW262321   7.720   9.737   0.068 -2.7311 -1.6704  2.5303
19897SOL     OW62322   8.890   3.508   3.592 -0.0646 -0.1096 -0.0923
19897SOL    HW162323   8.949   3.568   3.636 -0.2480 -0.1697  0.2437
19897SOL    HW262324   8.858   3.556   3.516 -1.4071  0.8224  1.0034
19898SOL     OW62325   2.418   1.879   5.707  0.8065 -0.1847 -0.9450
19898SOL    HW162326   2.351   1.857   5.642  1.5384 -0.4542 -1.6338
19898SOL    HW262327   2.496   1.831   5.678  1.2236 -0.0997 -0.0046
19899SOL     OW62328   1.195   7.841   1.739 -0.4276  0.4342  0.3198
19899SOL    HW162329   1.157   7.911   1.685 -0.7316  0.1145  0.1174
19899SOL    HW262330   1.150   7.762   1.711 -0.1787  0.1749  0.6454
19900SOL     OW62331   2.239   7.741   8.340 -0.2942  0.2134 -0.1719
19900SOL    HW162332   2.239   7.648   8.316 -0.2537  0.1384  0.1133
19900SOL    HW262333   2.162   7.777   8.296 -0.0083  0.1606 -0.7192
19901SOL     OW62334  10.010   6.467   2.873  0.3395  0.3803  0.2346
19901SOL    HW162335  10.018   6.409   2.948  0.3033 -0.6036 -0.5041
19901SOL    HW262336   9.983   6.551   2.911 -0.0223 -0.1845  1.2844
19902SOL     OW62337   6.498   4.888   6.986  0.1321 -0.0730  0.0753
19902SOL    HW162338   6.552   4.967   6.982  0.0553 -0.0451 -0.6869
19902SOL    HW262339   6.410   4.920   7.007  0.6349 -0.2506  2.7999
19903SOL     OW62340   0.203   7.461   6.683  0.0280  0.1815  0.5784
19903SOL    HW162341   0.290   7.421   6.680 -0.3404 -0.6835  1.1327
19903SOL    HW262342   0.157   7.426   6.607  0.2756  0.9433  0.0608
19904SOL     OW62343   0.818   4.810   4.117  0.5225  0.1415 -0.2899
19904SOL    HW162344   0.807   4.905   4.123  0.5155  0.0903  0.8499
19904SOL    HW262345   0.805   4.789   4.025 -0.1636  1.1643 -0.4378
19905SOL     OW62346   0.346   6.100   2.428 -0.2107 -0.0744 -0.2833
19905SOL    HW162347   0.368   6.159   2.356 -0.0919  0.5439  0.2460
19905SOL    HW262348   0.261   6.131   2.458 -0.7262 -0.9579 -0.7889
19906SOL     OW62349   0.476   8.995   2.743  0.0399 -0.3653  0.2128
19906SOL    HW162350   0.448   8.910   2.710 -0.5680  0.5703 -1.8587
19906SOL    HW262351   0.403   9.054   2.724  1.0953  0.9512  0.0482
19907SOL     OW62352   9.356   8.193   4.085 -0.4284 -0.0630  0.4762
19907SOL    HW162353   9.387   8.283   4.084 -0.8955  0.1001  0.2907
19907SOL    HW262354   9.418   8.146   4.028 -0.7671  0.3456 -0.2540
19908SOL     OW62355   8.696   8.470   0.982 -0.9485 -0.0881 -0.4335
19908SOL    HW162356   8.717   8.489   1.074  2.4861 -2.5967 -0.4995
19908SOL    HW262357   8.719   8.550   0.935  0.8566  0.0287  0.5559
19909SOL     OW62358   9.730   2.061   5.985 -0.1721  0.7822  0.5294
19909SOL    HW162359   9.801   2.125   5.992  0.4412  0.2054 -0.2857
19909SOL    HW262360   9.726   2.039   5.892  0.8113 -1.6924  0.9939
19910SOL     OW62361   7.663   6.455   9.352 -0.6788  0.2345  0.0300
19910SOL    HW162362   7.684   6.389   9.286 -2.2336 -0.8111  0.5367
19910SOL    HW262363   7.570   6.472   9.341 -0.1968  2.9744 -0.5859
19911SOL     OW62364   2.244   4.529   8.532 -0.3117  0.0733 -0.2045
19911SOL    HW162365   2.248   4.524   8.628 -0.6766 -1.4094 -0.2397
19911SOL    HW262366   2.329   4.565   8.506  0.8380 -1.9700  0.5503
19912SOL     OW62367   4.443   2.859   7.284 -0.0305 -0.5740 -0.5151
19912SOL    HW162368   4.402   2.784   7.328  1.0556 -1.6355 -1.2403
19912SOL    HW262369   4.517   2.821   7.237  1.5511  1.2317  0.4072
19913SOL     OW62370   4.027   2.388   6.541  0.7645 -0.7082 -0.1357
19913SOL    HW162371   3.988   2.414   6.457  2.7736 -0.2904 -1.0093
19913SOL    HW262372   4.009   2.294   6.547  1.6905 -1.0280 -1.7065
19914SOL     OW62373   1.976   8.999   7.760 -0.3112 -0.0270  0.3111
19914SOL    HW162374   2.032   9.037   7.828 -0.8660  0.3063  0.5887
19914SOL    HW262375   1.969   9.067   7.693 -3.0646  1.3192  1.7806
19915SOL     OW62376   4.372   3.603   8.338 -0.2110  0.0105 -0.3188
19915SOL    HW162377   4.292   3.558   8.311 -1.4145  1.9699 -0.1668
19915SOL    HW262378   4.360   3.621   8.431 -0.6118  2.2285 -0.7451
19916SOL     OW62379   9.376   0.562   4.404 -0.2365 -0.0786  0.3814
19916SOL    HW162380   9.396   0.602   4.319  0.9164 -1.3890 -0.0104
19916SOL    HW262381   9.458   0.571   4.453 -0.9205  0.7349  1.4067
19917SOL     OW62382  10.253   4.057   6.150  0.2524  0.1894  0.0630
19917SOL    HW162383  10.220   4.091   6.234  0.5903 -0.8974  0.6524
19917SOL    HW262384  10.319   4.121   6.123  1.0040 -0.0462  1.2415
19918SOL     OW62385   5.916   5.034   8.491 -0.1242  0.2141 -0.1305
19918SOL    HW162386   5.862   4.978   8.548  1.5467 -0.3033  1.0287
19918SOL    HW262387   5.975   4.973   8.446  0.9732  0.9250  0.3056
19919SOL     OW62388   7.021   9.544   9.010 -0.8054 -0.3934  0.0202
19919SOL    HW162389   7.041   9.560   9.103  1.9842  1.3305 -0.7447
19919SOL    HW262390   7.103   9.510   8.974 -1.6885 -0.5482 -1.9048
19920SOL     OW62391   1.741   7.774   4.768  0.5003  0.2319  0.5842
19920SOL    HW162392   1.817   7.719   4.788  0.8851  0.3522 -0.4739
19920SOL    HW262393   1.669   7.712   4.756  0.7153  0.0219  0.3598
19921SOL     OW62394   1.364   9.609   8.930 -0.3069 -0.0797 -0.2622
19921SOL    HW162395   1.310   9.576   8.858  1.0718 -1.5859 -0.6640
19921SOL    HW262396   1.431   9.661   8.888  1.0439 -1.6973 -0.2248
19922SOL     OW62397   6.743   2.668   1.844  1.1304 -0.6961 -0.0526
19922SOL    HW162398   6.821   2.703   1.801  0.6832 -0.9403 -1.1046
19922SOL    HW262399   6.675   2.734   1.826  1.0334 -0.6018  0.6454
19923SOL     OW62400   5.873   7.498  10.339  0.7555  0.1230  0.0200
19923SOL    HW162401   5.871   7.445  10.259  1.0187 -0.3425  0.3227
19923SOL    HW262402   5.786   7.540  10.341 -0.0242 -1.4576  0.5571
19924SOL     OW62403   8.424   7.303   8.123  0.2949 -0.6116 -0.2046
19924SOL    HW162404   8.361   7.316   8.052  0.7744  1.3899 -0.3182
19924SOL    HW262405   8.431   7.389   8.165  0.5887 -1.5632  1.8205
19925SOL     OW62406   7.146   0.549   4.945 -0.9151  0.3426 -0.1903
19925SOL    HW162407   7.096   0.509   4.874 -1.2119  0.3921 -0.0107
19925SOL    HW262408   7.107   0.512   5.025  0.1215 -0.5643 -0.0724
19926SOL     OW62409   4.009   5.807   6.062  0.2104  0.4059  0.4339
19926SOL    HW162410   3.963   5.891   6.066 -0.0769  0.2852 -0.2164
19926SOL    HW262411   3.953   5.747   6.110 -1.3681 -0.1997 -1.9584
19927SOL     OW62412   4.305   6.467   6.068  0.3646  0.6107 -0.6686
19927SOL    HW162413   4.264   6.382   6.087  0.1802  1.1219  1.3495
19927SOL    HW262414   4.392   6.462   6.109  0.3580  1.3883 -0.5450
19928SOL     OW62415   7.066   9.458   4.701 -0.1339 -0.0259  0.0248
19928SOL    HW162416   7.036   9.421   4.618 -0.1653 -1.8548  0.7984
19928SOL    HW262417   7.006   9.422   4.766  1.0738 -0.2472  1.0611
19929SOL     OW62418   3.607   2.367   6.157  0.1375  0.3810  0.1009
19929SOL    HW162419   3.589   2.348   6.249 -1.7355  1.7322  0.0641
19929SOL    HW262420   3.524   2.350   6.113  0.7351  0.7218 -1.1900
19930SOL     OW62421   3.268   1.446   8.305 -0.3857  0.4448 -0.3930
19930SOL    HW162422   3.316   1.369   8.336 -1.5994  0.3900  1.4922
19930SOL    HW262423   3.259   1.502   8.382 -2.3895  0.9285 -0.9130
19931SOL     OW62424   7.296   5.509   3.126  0.8598 -0.2642  0.6258
19931SOL    HW162425   7.331   5.571   3.061 -1.5227 -1.8280 -2.3911
19931SOL    HW262426   7.262   5.565   3.196 -0.2806  1.8738 -1.4739
19932SOL     OW62427   9.987   3.630   2.538 -0.2932 -0.4090  0.4628
19932SOL    HW162428  10.033   3.637   2.455  1.5999 -1.2587  1.3752
19932SOL    HW262429  10.047   3.669   2.602 -0.8373 -1.5406  1.7147
19933SOL     OW62430   7.569   4.832   6.562 -0.5883 -0.2669 -0.3121
19933SOL    HW162431   7.602   4.842   6.472 -1.4883 -1.8447 -0.8569
19933SOL    HW262432   7.474   4.834   6.552 -0.8497  3.4459  1.1274
19934SOL     OW62433   2.974   0.290   0.758 -0.6372  0.0588 -0.1488
19934SOL    HW162434   3.031   0.222   0.723  0.8856  0.6614  1.0486
19934SOL    HW262435   3.009   0.310   0.844 -3.1579 -0.0573  0.9988
19935SOL     OW62436  10.217   8.886   3.301  0.3024 -0.0359 -1.0450
19935SOL    HW162437  10.291   8.924   3.254  0.3519 -1.0262 -1.8024
19935SOL    HW262438  10.243   8.796   3.318 -1.3119 -0.8949 -2.7160
19936SOL     OW62439   5.735   8.024   0.690 -0.1113 -0.2650  0.2365
19936SOL    HW162440   5.759   8.018   0.783  2.9229  1.2590 -0.2880
19936SOL    HW262441   5.646   8.058   0.690 -0.1360 -0.1593  2.6105
19937SOL     OW62442   0.212   7.324   1.982  0.1973 -0.1327  0.0442
19937SOL    HW162443   0.161   7.369   2.050  1.3200 -0.8244  1.4109
19937SOL    HW262444   0.215   7.233   2.011 -0.4913 -0.7634 -1.7245
19938SOL     OW62445   2.810   1.094   1.110  0.0679  0.2576 -0.3408
19938SOL    HW162446   2.798   1.071   1.017 -0.5686  0.2540 -0.2639
19938SOL    HW262447   2.724   1.126   1.138  0.3793  0.6815  0.1328
19939SOL     OW62448   3.699   9.847   8.619  0.0301  0.1292 -0.6500
19939SOL    HW162449   3.658   9.818   8.537  0.2403  1.1531 -1.1384
19939SOL    HW262450   3.717   9.940   8.604  0.2156  0.2869  0.5075
19940SOL     OW62451  10.259   3.558   5.142  0.4252  0.3273  0.0150
19940SOL    HW162452  10.350   3.530   5.146  0.3130 -0.0249  0.1324
19940SOL    HW262453  10.223   3.536   5.228  0.2152  0.4101 -0.0500
19941SOL     OW62454   7.498   9.392   7.578 -0.5564 -0.3607 -0.5740
19941SOL    HW162455   7.464   9.417   7.492  0.0344  0.5851 -0.5444
19941SOL    HW262456   7.508   9.475   7.625 -0.9437 -0.8653  0.4432
19942SOL     OW62457   3.871   4.799   3.950 -0.0248 -0.1788 -0.3953
19942SOL    HW162458   3.804   4.866   3.943  0.2094 -0.0419 -1.5376
19942SOL    HW262459   3.930   4.831   4.018  0.1910  0.8863 -1.0509
19943SOL     OW62460   5.437   7.301   6.301  0.0447  0.1646  0.3971
19943SOL    HW162461   5.435   7.251   6.219 -1.4380 -0.1217  0.5726
19943SOL    HW262462   5.415   7.390   6.276  1.7588  0.5633  0.2132
19944SOL     OW62463   6.985   4.520   4.833  0.4228  0.2497  0.7346
19944SOL    HW162464   6.991   4.600   4.780 -0.1359  0.3935  0.8721
19944SOL    HW262465   7.071   4.481   4.828  0.5023  0.4970  0.0825
19945SOL     OW62466   9.622   9.164   4.686 -0.4225 -0.4479 -0.5660
19945SOL    HW162467   9.612   9.204   4.773 -1.7074 -1.0258 -0.4323
19945SOL    HW262468   9.692   9.215   4.645  0.3432 -0.2861  0.8690
19946SOL     OW62469   0.432   9.387   3.858 -0.0970  0.3031 -0.1251
19946SOL    HW162470   0.372   9.391   3.932 -0.1734  0.5658 -0.2020
19946SOL    HW262471   0.446   9.293   3.844 -0.4024  0.2429 -0.0368
19947SOL     OW62472   3.303   1.034   7.304 -0.1217  0.1444  0.0795
19947SOL    HW162473   3.226   1.038   7.361  0.4630 -0.0672  0.9022
19947SOL    HW262474   3.272   0.988   7.226 -0.7650 -0.1615  0.5043
19948SOL     OW62475   3.309   8.226   1.128 -0.0400  0.2416 -0.4953
19948SOL    HW162476   3.293   8.132   1.136  1.4087 -0.2568 -2.5459
19948SOL    HW262477   3.369   8.247   1.200 -0.7260 -0.2867  0.2420
19949SOL     OW62478   7.028   7.734  10.170  0.7126 -0.5812 -0.0164
19949SOL    HW162479   6.967   7.674  10.213  0.9417 -0.2519  0.7901
19949SOL    HW262480   6.971   7.793  10.120  0.4692 -1.2215 -0.5088
19950SOL     OW62481   6.056   0.157   1.844  0.0994  0.0076 -0.0257
19950SOL    HW162482   6.118   0.220   1.881  0.2858 -0.0593 -0.2196
19950SOL    HW262483   5.973   0.178   1.885  0.0363  0.7506 -0.5141
19951SOL     OW62484   6.260   4.607   4.723 -0.0753 -0.2997 -0.5077
19951SOL    HW162485   6.191   4.571   4.779 -0.2715 -0.9073 -1.1203
19951SOL    HW262486   6.230   4.696   4.702  0.4772  0.2999  1.1279
19952SOL     OW62487   4.723   8.569   3.015 -0.2107  0.0381 -0.0944
19952SOL    HW162488   4.779   8.492   3.007 -0.6525 -0.1832 -1.3365
19952SOL    HW262489   4.754   8.629   2.948 -0.1311  0.7902  0.5970
19953SOL     OW62490   4.571   9.327   2.634 -0.0053 -0.1825 -0.0426
19953SOL    HW162491   4.559   9.349   2.726  0.8748  1.3569 -0.2605
19953SOL    HW262492   4.495   9.366   2.590 -1.0157 -1.8721  0.1297
19954SOL     OW62493   5.732   1.347   2.399 -0.0730 -0.4019 -0.7035
19954SOL    HW162494   5.778   1.308   2.325  0.5181  1.6548 -1.4847
19954SOL    HW262495   5.797   1.406   2.439 -0.5860 -0.9748  1.0788
19955SOL     OW62496   5.008   8.992   1.296 -0.7151  0.0335  0.3057
19955SOL    HW162497   5.061   9.044   1.235  1.2967  0.0794  1.9879
19955SOL    HW262498   5.004   8.905   1.256 -0.3261  0.3258 -0.3939
19956SOL     OW62499   9.905   3.103   2.603  0.2092  0.4767 -0.0822
19956SOL    HW162500   9.813   3.127   2.616  0.7100  1.1605  2.7372
19956SOL    HW262501   9.949   3.186   2.586  0.5205  0.3393  0.0472
19957SOL     OW62502   8.526   7.803   4.663  0.5418 -0.3037 -0.4752
19957SOL    HW162503   8.526   7.834   4.573  1.0424  0.2781 -0.2792
19957SOL    HW262504   8.511   7.708   4.656 -2.7689  0.1217 -1.0227
19958SOL     OW62505   9.757   1.943   4.393  0.1332 -0.1120  0.6741
19958SOL    HW162506   9.840   1.916   4.355  0.0813  0.5333  0.0948
19958SOL    HW262507   9.692   1.928   4.324  0.3728  3.3002 -0.4370
19959SOL     OW62508   2.688   9.888   1.896  0.3036 -0.3224  0.4404
19959SOL    HW162509   2.743   9.946   1.842  0.1770 -0.6104 -0.0051
19959SOL    HW262510   2.631   9.844   1.833 -0.2770 -0.2022  0.8752
19960SOL     OW62511   7.243   1.769   5.934  0.5367 -0.7797  0.4595
19960SOL    HW162512   7.329   1.809   5.947 -0.0654  1.3988 -1.4836
19960SOL    HW262513   7.256   1.705   5.864  0.3356  0.8085 -1.1068
19961SOL     OW62514   3.049   5.562   9.999  0.1058  0.7771 -0.0086
19961SOL    HW162515   2.959   5.528   9.998  0.3442  0.0894  0.7930
19961SOL    HW262516   3.091   5.520   9.924  0.2443 -0.3199  0.6577
19962SOL     OW62517   9.614   1.506   9.275 -0.0697 -0.5986 -0.6852
19962SOL    HW162518   9.612   1.601   9.286 -0.6300 -0.7735  1.2321
19962SOL    HW262519   9.633   1.492   9.183 -0.9786  1.3866 -1.2284
19963SOL     OW62520   4.675   0.077   2.141  0.9572  0.1324  0.2152
19963SOL    HW162521   4.630   0.138   2.198  1.0523 -0.4418  0.9226
19963SOL    HW262522   4.664  -0.008   2.183 -2.0675 -0.9834 -2.3612
19964SOL     OW62523   9.221   5.334   8.133 -0.1188  0.2791 -0.3760
19964SOL    HW162524   9.307   5.299   8.154 -0.3202  0.6961  1.2824
19964SOL    HW262525   9.180   5.266   8.078  1.5720  0.5002 -1.9934
19965SOL     OW62526   6.737   5.155   3.713  0.0983  0.4901  0.1613
19965SOL    HW162527   6.704   5.111   3.635  1.0177 -2.4731  1.3177
19965SOL    HW262528   6.739   5.248   3.689 -1.9640 -0.0203 -2.4454
19966SOL     OW62529   5.506   5.718   8.298 -0.4790 -0.9024 -0.7450
19966SOL    HW162530   5.464   5.659   8.235  1.2116 -3.0179 -0.0230
19966SOL    HW262531   5.523   5.663   8.374 -2.0742  1.4561  1.4986
19967SOL     OW62532   3.596   5.126   3.546  0.3919  0.7223 -0.2714
19967SOL    HW162533   3.671   5.181   3.521  0.7803 -0.1575 -1.0953
19967SOL    HW262534   3.633   5.039   3.559 -0.5203  0.2272 -0.8987
19968SOL     OW62535   1.469   6.892   0.083  0.0330 -0.2182 -0.4072
19968SOL    HW162536   1.476   6.917  -0.010 -0.3766  0.9974 -0.1308
19968SOL    HW262537   1.398   6.946   0.117 -1.1453 -2.0606  0.1794
19969SOL     OW62538   4.381   1.509   4.926  0.3518 -0.2667  0.1608
19969SOL    HW162539   4.476   1.514   4.939  1.0048  0.7023 -3.6259
19969SOL    HW262540   4.350   1.455   4.998  3.3278  1.5867  3.1608
19970SOL     OW62541   3.211  10.234   5.650 -0.2080 -0.3389  0.4823
19970SOL    HW162542   3.214  10.309   5.590  1.0883  0.6547  1.7115
19970SOL    HW262543   3.142  10.178   5.615  1.4119 -0.5532 -2.7998
19971SOL     OW62544   1.776   3.298   9.052 -0.2229 -0.0082  0.4685
19971SOL    HW162545   1.806   3.313   9.141 -1.0711  1.5912  0.5180
19971SOL    HW262546   1.857   3.295   9.000  0.3669 -2.1798  1.3917
19972SOL     OW62547   8.624   5.430   1.290  1.1322 -0.0851 -0.6928
19972SOL    HW162548   8.600   5.447   1.381 -2.3041  1.4346 -1.7385
19972SOL    HW262549   8.612   5.514   1.246  3.4133 -0.6122 -2.4854
19973SOL     OW62550   6.572   3.799   3.563  0.9592  0.1323 -0.6492
19973SOL    HW162551   6.579   3.731   3.496 -1.4971  0.0225 -0.8641
19973SOL    HW262552   6.652   3.789   3.615  1.2040 -2.1672 -1.3625
19974SOL     OW62553   8.667   1.243   6.757 -0.1146  0.0854 -0.6763
19974SOL    HW162554   8.576   1.261   6.781  0.0252 -1.1126  0.9356
19974SOL    HW262555   8.706   1.329   6.746 -1.4327  0.6245 -1.4464
19975SOL     OW62556   5.108   9.374   8.200 -0.2415  0.4714 -0.3413
19975SOL    HW162557   5.117   9.391   8.107 -0.7502  1.8197 -0.1590
19975SOL    HW262558   5.169   9.303   8.217  1.2910  1.4943 -1.3398
19976SOL     OW62559   8.134   2.139   0.199  0.6884  0.3551 -0.7796
19976SOL    HW162560   8.090   2.215   0.160  0.5583 -0.0305 -1.3918
19976SOL    HW262561   8.207   2.121   0.139  0.7160 -0.0031 -0.6380
19977SOL     OW62562   0.989   1.007   8.537  0.3862  0.3857  0.2612
19977SOL    HW162563   0.962   1.083   8.485  0.2770 -0.2278 -0.6124
19977SOL    HW262564   0.951   1.022   8.623 -1.0467  0.5307 -0.3613
19978SOL     OW62565   8.942   3.872   6.304 -0.1891  0.1055 -0.2782
19978SOL    HW162566   9.001   3.946   6.318 -0.1319 -0.1169  0.7614
19978SOL    HW262567   8.996   3.795   6.317 -0.9132 -0.1125  1.9068
19979SOL     OW62568   5.685   8.553  10.194  0.0782  0.0788 -0.3016
19979SOL    HW162569   5.716   8.463  10.200 -1.6114 -0.5525 -0.4165
19979SOL    HW262570   5.758   8.606  10.226  2.1032 -1.1002 -2.6448
19980SOL     OW62571   4.802   8.795   4.623 -0.5600  0.1895  0.2868
19980SOL    HW162572   4.867   8.777   4.555  0.0907 -0.1206  0.9759
19980SOL    HW262573   4.726   8.743   4.597 -0.7890  1.0572 -0.8738
19981SOL     OW62574   6.607   4.529   5.721 -0.0045  0.0042 -0.2055
19981SOL    HW162575   6.690   4.553   5.762 -0.9478  0.5370  1.4453
19981SOL    HW262576   6.551   4.605   5.733 -1.3776 -1.0839  0.4906
19982SOL     OW62577   0.992   9.293   3.408 -0.0186  0.1634 -0.1509
19982SOL    HW162578   0.991   9.215   3.464  0.7978  0.0612 -0.2654
19982SOL    HW262579   0.920   9.347   3.441 -0.2574 -0.4019  0.2702
19983SOL     OW62580   6.269   5.547   9.670  0.4402  0.7933 -0.1649
19983SOL    HW162581   6.354   5.507   9.689 -0.2131 -0.4417  0.2681
19983SOL    HW262582   6.223   5.546   9.754 -1.7230 -2.8719 -1.1887
19984SOL     OW62583   9.437   4.656   7.357  0.3215  0.1451  0.0305
19984SOL    HW162584   9.454   4.672   7.450  1.3281  0.9972 -0.2815
19984SOL    HW262585   9.368   4.717   7.333 -1.0399 -1.1186  0.5447
19985SOL     OW62586  10.076   0.166   6.830  0.1066 -0.4308 -0.5023
19985SOL    HW162587  10.150   0.149   6.889 -0.3303  0.6387  0.4026
19985SOL    HW262588  10.107   0.141   6.744  1.5966  0.1624 -0.1614
19986SOL     OW62589   8.658   2.257   6.571  0.2109  0.4468 -0.0747
19986SOL    HW162590   8.604   2.188   6.534  0.5261  0.2374 -0.1524
19986SOL    HW262591   8.609   2.337   6.555  0.5481  0.4181 -1.3646
19987SOL     OW62592   7.684   4.342  10.047  0.6075 -0.1696  0.1543
19987SOL    HW162593   7.636   4.398   9.986  0.3570 -0.4164  0.1241
19987SOL    HW262594   7.622   4.325  10.118  1.5605  1.9242  1.6221
19988SOL     OW62595   9.405   1.431   6.718  0.1338 -0.3841  0.2023
19988SOL    HW162596   9.437   1.435   6.808 -1.3114  1.6531  0.6932
19988SOL    HW262597   9.476   1.470   6.666  0.2627  0.0675  0.7054
19989SOL     OW62598   6.539   5.531   8.028  0.2234  0.3566  0.3829
19989SOL    HW162599   6.529   5.561   8.119 -2.5555 -0.4910  0.4746
19989SOL    HW262600   6.590   5.600   7.985  0.1648  1.6107  2.1988
19990SOL     OW62601   0.254   4.833   6.081  0.0768 -0.2019  0.0552
19990SOL    HW162602   0.310   4.757   6.068 -1.8921 -1.4132 -2.1313
19990SOL    HW262603   0.166   4.796   6.091 -0.8388  1.7577 -0.3792
19991SOL     OW62604  10.291   7.644   0.911  0.0453  0.0136 -0.3611
19991SOL    HW162605  10.232   7.715   0.935  1.1813 -0.0589  3.1348
19991SOL    HW262606  10.239   7.564   0.925  0.2803  0.0268  0.6769
19992SOL     OW62607   4.868   9.101   5.892 -0.0573 -0.3235 -0.2468
19992SOL    HW162608   4.936   9.054   5.939 -1.3345 -0.4392  1.5790
19992SOL    HW262609   4.786   9.059   5.919 -0.9623  0.5471 -1.4797
19993SOL     OW62610   8.818   0.376   0.096  0.8242  0.4728  0.1628
19993SOL    HW162611   8.896   0.322   0.082  0.6730  0.0290  0.9587
19993SOL    HW262612   8.768   0.367   0.015  0.8252 -0.5680  0.2582
19994SOL     OW62613   1.614   5.187   9.831  0.4687 -0.5130  0.2199
19994SOL    HW162614   1.680   5.250   9.802 -0.8843  0.4991 -0.8496
19994SOL    HW262615   1.660   5.104   9.835  2.4227  0.5730  2.0606
19995SOL     OW62616   2.369   8.443   4.681  0.0081  0.1696  0.1372
19995SOL    HW162617   2.313   8.367   4.668  0.1667 -0.2079  1.5435
19995SOL    HW262618   2.458   8.411   4.664  0.0529  0.0964  0.5066
19996SOL     OW62619   3.143   4.774   2.331 -0.5791  0.0640  0.1324
19996SOL    HW162620   3.065   4.791   2.279 -1.2272 -0.9739  0.7191
19996SOL    HW262621   3.206   4.739   2.269 -1.2990 -1.0395 -0.0119
19997SOL     OW62622   9.526   8.856   5.620  0.5704  0.2294  0.3461
19997SOL    HW162623   9.542   8.766   5.648  0.7811 -0.0559 -0.6656
19997SOL    HW262624   9.554   8.858   5.529 -1.1774  0.8252 -0.2135
19998SOL     OW62625   2.937   7.822   4.206 -0.0637 -0.0047  0.0912
19998SOL    HW162626   2.976   7.902   4.171  1.4874  0.8767  3.4167
19998SOL    HW262627   3.009   7.760   4.209 -0.0368  0.0587  1.8230
19999SOL     OW62628   5.940   4.666   6.739  0.0915  0.8257 -0.5695
19999SOL    HW162629   5.878   4.671   6.667  0.6984  1.7341 -1.0364
19999SOL    HW262630   5.913   4.587   6.787 -2.4659  2.0541  0.2239
20000SOL     OW62631   3.915   5.336   4.132 -0.8275  0.1183 -0.0113
20000SOL    HW162632   3.857   5.261   4.145  0.6260 -0.7375  1.9848
20000SOL    HW262633   3.930   5.338   4.037 -3.2211 -0.2651 -0.4464
20001SOL     OW62634   8.880   5.682   0.446  0.1888  0.6693  0.1464
20001SOL    HW162635   8.942   5.666   0.517 -0.9848  1.6766  1.4600
20001SOL    HW262636   8.854   5.773   0.457 -2.3106  0.0111  0.3084
20002SOL     OW62637   4.894   3.803   9.855 -0.7449 -0.3808  0.4793
20002SOL    HW162638   4.850   3.816   9.772 -1.4264  0.7076  0.9922
20002SOL    HW262639   4.955   3.731   9.839  0.7809  1.2470 -1.6028
20003SOL     OW62640   0.575   2.193   8.981  0.1852  0.3185  0.2436
20003SOL    HW162641   0.592   2.283   9.008 -0.2127  0.4326  0.1282
20003SOL    HW262642   0.497   2.167   9.030 -0.5557  0.5327 -0.7738
20004SOL     OW62643   0.362   4.464   5.855 -0.1585  0.6341 -0.1624
20004SOL    HW162644   0.344   4.518   5.778  1.8932  1.6876  0.0343
20004SOL    HW262645   0.388   4.527   5.923  2.5821 -0.5224 -0.0035
20005SOL     OW62646   3.381   4.049   8.972 -0.2140 -0.2969 -0.5187
20005SOL    HW162647   3.287   4.054   8.956 -0.6046 -1.7256  1.0193
20005SOL    HW262648   3.414   3.992   8.902 -0.2126  1.3541 -1.9118
20006SOL     OW62649   0.642   3.436   4.877  0.3522  0.3864 -0.0960
20006SOL    HW162650   0.605   3.449   4.965  0.9229  0.6609  0.1071
20006SOL    HW262651   0.588   3.492   4.821  0.9025  1.3617  0.3132
20007SOL     OW62652   9.760   6.233   5.623  0.0338 -0.1585 -0.1981
20007SOL    HW162653   9.671   6.252   5.652 -0.1670 -1.1864 -0.1149
20007SOL    HW262654   9.816   6.266   5.693 -0.4174 -2.0186  1.1064
20008SOL     OW62655   1.737   6.351   4.646 -0.2770 -0.7628 -0.0908
20008SOL    HW162656   1.787   6.421   4.688 -1.5571 -0.1906  0.5697
20008SOL    HW262657   1.802   6.299   4.599  0.7996  0.4509 -0.0026
20009SOL     OW62658   1.055   7.172   3.265  0.2214 -0.1020  0.3140
20009SOL    HW162659   1.046   7.208   3.177 -1.1199 -1.5202 -0.1754
20009SOL    HW262660   1.058   7.077   3.252  0.3617 -0.3180  1.7659
20010SOL     OW62661   8.663   5.644   5.822  0.3711  0.1495  0.1521
20010SOL    HW162662   8.719   5.567   5.808 -0.1362  0.1079 -1.9102
20010SOL    HW262663   8.724   5.715   5.840  0.8669 -0.5954  1.6475
20011SOL     OW62664   5.331   5.928   7.211  0.6033 -0.0774 -0.0631
20011SOL    HW162665   5.304   5.836   7.204  0.4341  0.0380 -1.0967
20011SOL    HW262666   5.358   5.951   7.122 -0.5928  1.2543 -0.1157
20012SOL     OW62667   5.322   1.273   1.119 -0.0032 -0.1219 -0.5046
20012SOL    HW162668   5.285   1.208   1.179  0.4461  0.1555  0.0726
20012SOL    HW262669   5.416   1.256   1.119  0.2586  1.2188  0.4958
20013SOL     OW62670   3.640   4.073   1.274 -0.1591  0.5090  0.6358
20013SOL    HW162671   3.636   4.167   1.254  1.9629  0.2899 -1.2943
20013SOL    HW262672   3.631   4.030   1.190  1.7205 -0.8616  1.0564
20014SOL     OW62673   3.253   4.690   0.409 -0.4502  0.5032  0.1416
20014SOL    HW162674   3.176   4.747   0.419 -0.8117 -0.0014  0.2922
20014SOL    HW262675   3.257   4.671   0.316 -0.1283  1.0441  0.0415
20015SOL     OW62676   7.441   7.666   5.687 -0.1449 -0.6183 -0.2588
20015SOL    HW162677   7.377   7.628   5.747 -0.3731  0.6651  0.3336
20015SOL    HW262678   7.504   7.710   5.744 -0.1216  0.2490 -0.9396
20016SOL     OW62679   4.029   2.960   6.353  0.1059  0.2216 -0.4019
20016SOL    HW162680   3.980   3.042   6.351  0.3408  0.3572 -0.6330
20016SOL    HW262681   4.111   2.982   6.399 -0.7963 -0.4187  1.6502
20017SOL     OW62682   1.619   5.259   5.281 -0.2436  0.0588  0.0590
20017SOL    HW162683   1.538   5.253   5.230 -1.0089  1.2328  1.0596
20017SOL    HW262684   1.596   5.222   5.366  0.5673 -0.4511  0.0697
20018SOL     OW62685   2.883   4.295   8.606 -0.1666  0.1562 -0.0823
20018SOL    HW162686   2.846   4.241   8.537 -0.6909 -0.5456  0.7407
20018SOL    HW262687   2.977   4.277   8.602 -0.0550  0.8770 -1.2474
20019SOL     OW62688   0.398   5.055   8.741 -0.7585  0.3280  0.3892
20019SOL    HW162689   0.428   5.137   8.779  0.5878 -1.0291  2.4961
20019SOL    HW262690   0.391   4.996   8.816 -0.3695 -1.8565 -1.2031
20020SOL     OW62691   1.832   0.340   3.948 -0.3169 -0.0948  1.1240
20020SOL    HW162692   1.839   0.260   3.896  1.5692  0.6227  0.2094
20020SOL    HW262693   1.895   0.400   3.909 -1.0936  1.5698  2.3147
20021SOL     OW62694   2.967  10.024   3.983 -0.4282 -0.0110  0.4079
20021SOL    HW162695   3.056  10.021   4.019 -0.9837  0.9950  1.9419
20021SOL    HW262696   2.976  10.074   3.902  0.6650 -1.3595 -0.3533
20022SOL     OW62697   1.129   1.615   3.889  0.1097  0.1269 -0.6955
20022SOL    HW162698   1.132   1.667   3.808  1.8525 -0.9846 -1.3889
20022SOL    HW262699   1.170   1.670   3.955 -0.8644  0.8413 -0.6657
20023SOL     OW62700   9.893   7.518   1.131  0.0383 -0.4529  0.8870
20023SOL    HW162701   9.889   7.548   1.040 -1.4691  0.2740  1.1631
20023SOL    HW262702   9.976   7.553   1.164 -0.3277  0.9934  0.3522
20024SOL     OW62703   9.354   6.535   5.892 -0.6800  0.7002  0.6607
20024SOL    HW162704   9.319   6.622   5.875 -1.0151  0.3084 -0.7818
20024SOL    HW262705   9.419   6.521   5.824  0.4688  0.3915  1.7752
20025SOL     OW62706   9.115   3.272   2.944  0.2278 -0.3986 -0.3917
20025SOL    HW162707   9.034   3.321   2.933  0.2451 -0.5695 -1.3689
20025SOL    HW262708   9.108   3.201   2.880  0.8448 -0.8140 -0.0033
20026SOL     OW62709   6.230   5.847   3.168  0.0813 -0.3199  0.2215
20026SOL    HW162710   6.167   5.913   3.196 -0.4522  0.1402 -1.8493
20026SOL    HW262711   6.181   5.792   3.106  1.0569 -1.4525  0.4217
20027SOL     OW62712   5.920   9.467   4.478 -0.0799  0.2615 -0.3358
20027SOL    HW162713   5.928   9.406   4.551 -2.4972 -0.4641 -0.5959
20027SOL    HW262714   5.987   9.534   4.495  1.0881 -1.2042  1.1744
20028SOL     OW62715   5.713   8.859   3.383  0.3229  0.1423  0.0798
20028SOL    HW162716   5.743   8.786   3.329  0.4711 -0.0977  0.4783
20028SOL    HW262717   5.619   8.865   3.365  0.4267  0.2563 -0.4259
20029SOL     OW62718   0.680   2.719   9.016  0.1226 -0.6930 -0.4039
20029SOL    HW162719   0.592   2.728   8.979  0.3282  0.6876 -0.6059
20029SOL    HW262720   0.714   2.808   9.019  0.3510 -0.7805  2.5950
20030SOL     OW62721   2.744   8.657   5.652 -0.5082  0.4873  0.5866
20030SOL    HW162722   2.784   8.710   5.721 -1.1216 -1.5722  2.6310
20030SOL    HW262723   2.808   8.588   5.635 -0.5947  0.6700 -0.5712
20031SOL     OW62724   8.340   9.704   8.785 -0.1065 -0.2706  0.2647
20031SOL    HW162725   8.325   9.612   8.762  0.6340 -0.3368  0.0295
20031SOL    HW262726   8.319   9.753   8.706  1.5831 -0.4279 -0.3264
20032SOL     OW62727   0.717   2.594   5.211 -0.5299 -0.2370 -0.4532
20032SOL    HW162728   0.663   2.570   5.286  0.4627  0.6202  0.6013
20032SOL    HW262729   0.798   2.629   5.251  0.6972 -1.2554 -1.9452
20033SOL     OW62730   6.329   0.767   3.999 -0.4363  0.2111  0.2697
20033SOL    HW162731   6.289   0.764   3.912 -1.4243  0.9885  0.6870
20033SOL    HW262732   6.354   0.676   4.017  2.1277  0.3651 -1.8793
20034SOL     OW62733   3.860   6.086  10.249 -0.1994  0.2169  1.1156
20034SOL    HW162734   3.806   6.044  10.183  0.1889  2.8046 -1.0035
20034SOL    HW262735   3.798   6.125  10.310 -0.7351  1.4283 -0.1557
20035SOL     OW62736   7.724   7.539   5.366  0.0879 -0.1730  0.1754
20035SOL    HW162737   7.813   7.545   5.402  1.6423  0.6630 -3.3108
20035SOL    HW262738   7.687   7.626   5.378  0.6280  0.1270 -0.2699
20036SOL     OW62739  10.293   3.270   6.007 -0.0258 -0.3927  0.4833
20036SOL    HW162740  10.278   3.360   5.979  0.1420  0.3146  2.4983
20036SOL    HW262741  10.249   3.263   6.092  1.2244 -1.7517  1.0688
20037SOL     OW62742   4.116   8.743   1.432  0.5762  0.0621 -0.0175
20037SOL    HW162743   4.186   8.770   1.492  1.6563  2.0666 -2.0168
20037SOL    HW262744   4.143   8.657   1.401  0.0440 -0.9784  2.1746
20038SOL     OW62745   5.685   3.348   1.066  0.1305 -0.0773 -0.7368
20038SOL    HW162746   5.765   3.323   1.111  1.1210  3.3691 -0.3021
20038SOL    HW262747   5.617   3.342   1.133  0.4562 -0.7373 -0.4574
20039SOL     OW62748   0.536   1.950   0.228  0.0399 -0.3473 -0.3068
20039SOL    HW162749   0.591   1.893   0.174 -1.1720 -0.0771 -1.8806
20039SOL    HW262750   0.525   2.029   0.176 -1.3460 -0.1522  0.2530
20040SOL     OW62751   8.799   5.390   6.660 -0.5962  0.3761  0.5417
20040SOL    HW162752   8.797   5.297   6.637 -1.1879  0.3637  0.6163
20040SOL    HW262753   8.889   5.418   6.642 -1.1299  0.5356 -2.4167
20041SOL     OW62754   5.190   2.544   4.650 -0.3519  0.2548  0.2810
20041SOL    HW162755   5.270   2.581   4.688 -0.6268  0.6497  0.4790
20041SOL    HW262756   5.147   2.501   4.724 -1.1920  1.5450  0.5633
20042SOL     OW62757   0.452   8.717   5.596  0.1108  0.4575 -0.4239
20042SOL    HW162758   0.400   8.662   5.654 -0.0299  1.5014  0.4770
20042SOL    HW262759   0.513   8.657   5.554 -1.0294 -0.6070 -0.6095
20043SOL     OW62760   8.415   0.802   1.343  0.1236 -0.2323 -0.0534
20043SOL    HW162761   8.360   0.726   1.324  1.3285 -1.0550 -0.3626
20043SOL    HW262762   8.430   0.797   1.438 -0.8734  0.3865  0.1488
20044SOL     OW62763   6.850   2.818   2.313 -0.0222  0.3323 -0.6252
20044SOL    HW162764   6.828   2.904   2.278 -1.3081  1.2577  2.1800
20044SOL    HW262765   6.929   2.832   2.365 -0.6602  0.0043  0.4569
20045SOL     OW62766   6.549   5.027   7.638 -0.0372 -0.6842  0.2253
20045SOL    HW162767   6.617   4.986   7.585  1.2479  0.8756  0.5681
20045SOL    HW262768   6.559   4.988   7.725  0.4148 -0.4907  0.2635
20046SOL     OW62769   2.489   3.961   3.263  0.1196  0.5775 -0.1197
20046SOL    HW162770   2.510   3.867   3.263  1.8228  0.8624  2.3574
20046SOL    HW262771   2.404   3.967   3.306  0.8077  0.2641  1.3212
20047SOL     OW62772   8.055   8.897   2.230  0.0201 -0.2524  0.7657
20047SOL    HW162773   7.983   8.835   2.226 -1.1378  1.0904 -0.5372
20047SOL    HW262774   8.119   8.857   2.288  0.0759 -3.3883 -1.2378
20048SOL     OW62775   8.794   9.914  10.295 -0.9429 -0.2093 -0.4212
20048SOL    HW162776   8.752   9.853  10.235  1.4286 -0.3084 -2.1425
20048SOL    HW262777   8.827   9.859  10.366  0.1096 -0.8026 -1.3391
20049SOL     OW62778   6.218   6.551   7.175  0.1514 -0.0637 -0.6005
20049SOL    HW162779   6.144   6.579   7.229  0.5068 -2.7483  1.4247
20049SOL    HW262780   6.295   6.570   7.227  0.6847 -0.3537 -1.2697
20050SOL     OW62781   6.875   0.177   7.236 -0.1389 -0.2387 -0.2439
20050SOL    HW162782   6.858   0.216   7.150 -0.5332  0.1123 -0.0098
20050SOL    HW262783   6.907   0.089   7.216  1.0857  0.3126 -0.7771
20051SOL     OW62784   3.221   3.290   8.105  0.4160 -0.3141 -0.2783
20051SOL    HW162785   3.218   3.203   8.145 -3.1360 -1.0316 -1.7587
20051SOL    HW262786   3.168   3.346   8.162  0.9215  0.3510 -0.4441
20052SOL     OW62787   3.186   3.276   8.809 -0.7580  0.2184 -0.2183
20052SOL    HW162788   3.099   3.267   8.770 -0.5189 -1.5148 -0.4114
20052SOL    HW262789   3.207   3.188   8.842  1.2956  0.3832 -0.9740
20053SOL     OW62790   9.252   2.216   3.759  0.2738  0.3106  0.8445
20053SOL    HW162791   9.292   2.155   3.696 -0.7858 -0.4321  0.8585
20053SOL    HW262792   9.276   2.303   3.727  0.9025 -0.0860  0.2004
20054SOL     OW62793   3.547   3.046   7.260 -0.6946 -0.3246 -0.7830
20054SOL    HW162794   3.576   3.060   7.170  0.2207  1.0358 -0.3174
20054SOL    HW262795   3.622   3.007   7.304 -0.8863 -0.3212 -0.4479
20055SOL     OW62796   1.267   1.103   1.681  0.2972 -0.4801  0.1554
20055SOL    HW162797   1.266   1.139   1.770 -0.9336  0.2183 -0.1168
20055SOL    HW262798   1.186   1.051   1.676 -0.8738  1.3301 -1.2473
20056SOL     OW62799   8.824   1.838   4.715 -0.0098 -0.0152  0.3806
20056SOL    HW162800   8.867   1.791   4.786  0.7074 -3.1171 -1.8715
20056SOL    HW262801   8.892   1.897   4.681  0.1821  0.2284  1.1763
20057SOL     OW62802   6.773   9.082   5.164 -0.3539 -0.0139  0.2056
20057SOL    HW162803   6.847   9.135   5.135  0.0844 -0.4649  0.4804
20057SOL    HW262804   6.766   9.013   5.099 -1.4454  0.8225 -0.6096
20058SOL     OW62805   2.183   4.907   2.633  0.4524 -0.0996  0.2097
20058SOL    HW162806   2.152   4.905   2.723  0.4118  2.5134  0.3119
20058SOL    HW262807   2.107   4.932   2.581  1.1805  1.5449 -0.1236
20059SOL     OW62808   4.488   6.753  10.072  0.0358  0.0339 -0.1922
20059SOL    HW162809   4.557   6.796  10.021  1.6613 -1.9589  0.2099
20059SOL    HW262810   4.518   6.758  10.162 -0.9275  0.1200  0.1395
20060SOL     OW62811   6.281   4.758   7.368 -0.0474 -0.7821  0.0074
20060SOL    HW162812   6.306   4.850   7.371 -2.2148 -0.1017 -0.8374
20060SOL    HW262813   6.331   4.717   7.439  0.2889  1.1973  0.9890
20061SOL     OW62814  10.244   7.577   7.806 -0.3740 -0.2480  0.1325
20061SOL    HW162815  10.263   7.630   7.883 -1.1581  0.5686 -0.2178
20061SOL    HW262816  10.215   7.641   7.740  1.2992 -0.7921 -1.1904
20062SOL     OW62817   0.455   2.272   0.773 -0.3977  0.0439 -0.0511
20062SOL    HW162818   0.461   2.238   0.684 -0.2106  0.3001 -0.1377
20062SOL    HW262819   0.370   2.316   0.775 -0.2460  0.3456 -0.2119
20063SOL     OW62820   7.401   2.411   5.848  0.0800  0.6815  0.8836
20063SOL    HW162821   7.488   2.450   5.854 -0.3959  1.7020  1.3741
20063SOL    HW262822   7.345   2.482   5.817 -0.1096 -0.6845 -2.3025
20064SOL     OW62823   3.046  10.243   2.702  0.1391  0.0665 -0.2148
20064SOL    HW162824   3.006  10.265   2.786  0.5198  0.9815 -0.2530
20064SOL    HW262825   3.134  10.212   2.724  0.2353  0.2963 -0.2642
20065SOL     OW62826   8.612   2.607  10.090  0.1783  0.3030 -0.2262
20065SOL    HW162827   8.531   2.656  10.106  0.0545  0.1454 -0.3709
20065SOL    HW262828   8.647   2.588  10.177  0.0134  0.2940 -0.1630
20066SOL     OW62829   6.509   5.378   8.490 -0.1978 -0.0565 -0.2336
20066SOL    HW162830   6.568   5.353   8.561  0.2557 -0.2586 -0.6813
20066SOL    HW262831   6.500   5.473   8.498 -1.3249 -0.2275  1.0046
20067SOL     OW62832   1.547   0.037   3.376 -0.2362 -0.0287  0.0993
20067SOL    HW162833   1.570  -0.047   3.336 -1.3936  0.0172 -0.7224
20067SOL    HW262834   1.467   0.065   3.330 -1.2719  0.3454  1.9857
20068SOL     OW62835   3.051   8.803   0.481 -0.0948 -0.3008 -0.0035
20068SOL    HW162836   3.029   8.894   0.498  0.1967 -0.0938 -0.7318
20068SOL    HW262837   3.078   8.768   0.567  2.0983  0.9253 -0.1272
20069SOL     OW62838   1.399   8.145  10.061 -0.1103  0.5879 -0.5340
20069SOL    HW162839   1.489   8.121  10.036  0.7233  1.6582  1.2500
20069SOL    HW262840   1.384   8.228  10.015 -0.9240 -0.4869 -2.2993
20070SOL     OW62841   6.899   5.531   1.960  0.0195  0.5262 -0.2001
20070SOL    HW162842   6.901   5.624   1.936 -1.1329  0.8484  0.8457
20070SOL    HW262843   6.836   5.492   1.900  1.0092  0.2421 -1.1019
20071SOL     OW62844   8.765   8.265   0.169 -0.0183  0.0096 -0.6658
20071SOL    HW162845   8.821   8.197   0.206  0.3376  0.2770 -0.6994
20071SOL    HW262846   8.785   8.265   0.076 -2.1631 -1.8294 -1.2037
20072SOL     OW62847   7.812   5.171   5.645  0.3167 -0.4610 -0.0582
20072SOL    HW162848   7.772   5.241   5.697  0.1293 -0.8903  0.3806
20072SOL    HW262849   7.905   5.195   5.641  0.2222 -0.0845 -0.0762
20073SOL     OW62850   5.203   5.773   0.243 -0.2310 -0.1494  0.2607
20073SOL    HW162851   5.122   5.758   0.291 -0.7360 -0.0471 -0.5397
20073SOL    HW262852   5.262   5.703   0.273 -0.2188  0.4500  1.6795
20074SOL     OW62853   8.710   9.427   9.238  0.2176 -0.4468  0.0986
20074SOL    HW162854   8.614   9.424   9.232  0.1703  0.0561  0.5946
20074SOL    HW262855   8.734   9.510   9.197  0.2284  0.7790  2.4598
20075SOL     OW62856   9.812   3.605   9.651  0.2610 -0.0798 -0.7840
20075SOL    HW162857   9.812   3.600   9.556 -0.8710 -2.5936 -0.7180
20075SOL    HW262858   9.725   3.637   9.674 -1.0333 -3.3231 -0.6006
20076SOL     OW62859   9.286   7.006   0.207  0.4088  0.0679 -0.3682
20076SOL    HW162860   9.257   7.090   0.243  0.3424 -0.2774  0.4234
20076SOL    HW262861   9.369   7.024   0.165  1.2648  0.2234  1.3106
20077SOL     OW62862  10.295   1.659   6.851  0.2708  0.2058  0.1885
20077SOL    HW162863  10.213   1.669   6.803  0.7096 -0.3216 -0.7106
20077SOL    HW262864  10.340   1.742   6.841  0.6771 -0.1345 -0.9610
20078SOL     OW62865  10.355   4.396   0.765  0.2277  0.3950  0.1682
20078SOL    HW162866  10.261   4.415   0.758  0.6979  3.3418  0.2540
20078SOL    HW262867  10.376   4.413   0.857  0.7173 -1.1940  0.3754
20079SOL     OW62868   6.843   1.827   9.032 -0.4982 -0.5186  0.5519
20079SOL    HW162869   6.871   1.824   9.123  3.4292 -0.7724 -0.5175
20079SOL    HW262870   6.807   1.916   9.021  1.0922  0.3319  1.8282
20080SOL     OW62871   0.366  10.134   4.919 -0.6187 -0.1580 -0.3178
20080SOL    HW162872   0.351  10.086   5.001 -1.2954 -2.1798 -1.5685
20080SOL    HW262873   0.329  10.221   4.936 -2.0203 -0.9593  1.0744
20081SOL     OW62874   6.474   4.267   4.932  0.1545  0.6806 -0.5367
20081SOL    HW162875   6.506   4.354   4.955 -0.0237  0.4200  0.8035
20081SOL    HW262876   6.552   4.212   4.927  0.4960  1.2921 -3.4361
20082SOL     OW62877   4.970   6.839   5.288 -0.3209 -0.3040  0.0500
20082SOL    HW162878   4.989   6.913   5.230 -0.7391 -0.9736 -0.9557
20082SOL    HW262879   4.967   6.878   5.376  0.8525  0.6262 -0.3031
20083SOL     OW62880   8.850   3.021   6.961  0.3752 -0.3718  0.2208
20083SOL    HW162881   8.813   2.933   6.954 -0.1095 -0.2355  0.9449
20083SOL    HW262882   8.774   3.078   6.969  0.7253 -0.0715  1.6373
20084SOL     OW62883   9.065   9.921   7.430 -0.2778  0.2442 -0.3934
20084SOL    HW162884   9.113   9.854   7.381  1.0023  0.3896  0.6151
20084SOL    HW262885   8.974   9.890   7.429  0.3417 -1.7644  0.4198
20085SOL     OW62886   1.286   8.444   4.511  0.1866 -0.4190  0.3376
20085SOL    HW162887   1.202   8.412   4.477  0.3572 -0.2696 -0.2374
20085SOL    HW262888   1.347   8.430   4.439  0.8526 -1.3321  1.0462
20086SOL     OW62889   5.250   4.775   6.705  0.1215 -0.2861  0.5989
20086SOL    HW162890   5.231   4.833   6.631 -0.8767 -0.9425  0.3155
20086SOL    HW262891   5.302   4.828   6.765  1.7247 -0.0017 -0.9554
20087SOL     OW62892   7.493   7.734   7.384 -0.6780  0.1629  0.1990
20087SOL    HW162893   7.472   7.745   7.292 -0.5547  0.1222  0.1665
20087SOL    HW262894   7.433   7.792   7.430 -0.2530  0.7287  0.0475
20088SOL     OW62895   3.810   4.015   3.687  0.3184 -0.4182  0.4926
20088SOL    HW162896   3.875   3.994   3.755  0.2001 -1.0838  0.4039
20088SOL    HW262897   3.745   4.070   3.732  0.5628 -0.3435  0.7588
20089SOL     OW62898   1.276   8.412   4.025 -0.3348 -0.2232 -0.2006
20089SOL    HW162899   1.329   8.439   3.950  0.3693 -0.9808  0.0079
20089SOL    HW262900   1.334   8.355   4.076 -1.1203 -0.4872  0.4167
20090SOL     OW62901   7.459   0.902   5.714 -0.4125  0.0481 -0.1099
20090SOL    HW162902   7.371   0.901   5.751  0.0319 -0.7191  0.9835
20090SOL    HW262903   7.515   0.925   5.788  0.3872 -0.2976 -0.6027
20091SOL     OW62904   3.111   6.940   9.469  0.1244  0.1342 -0.2933
20091SOL    HW162905   3.132   7.031   9.489  0.5718 -0.0553  0.0972
20091SOL    HW262906   3.168   6.918   9.395 -1.2671  0.7206 -1.5979
20092SOL     OW62907   9.915   5.945   3.244  0.0395 -0.0505  0.3305
20092SOL    HW162908   9.908   5.862   3.291  1.9018  0.8531  2.4377
20092SOL    HW262909   9.862   6.006   3.296  1.8876  0.9010  1.1942
20093SOL     OW62910   9.688   5.140   0.564  0.2563  0.0543  0.6088
20093SOL    HW162911   9.668   5.077   0.633  1.5971 -0.6933  0.3583
20093SOL    HW262912   9.766   5.186   0.595  0.4333  0.2315 -0.0751
20094SOL     OW62913   3.845   4.709   1.286  0.4155  0.1628 -0.3479
20094SOL    HW162914   3.874   4.739   1.200 -1.2453  2.8927 -0.0819
20094SOL    HW262915   3.750   4.705   1.278  0.3694 -2.1950  0.6471
20095SOL     OW62916   4.562  10.126   8.935 -0.3034 -0.9495  0.3149
20095SOL    HW162917   4.599  10.055   8.882 -1.8233  0.2985 -2.7179
20095SOL    HW262918   4.631  10.193   8.937 -0.4626 -0.7276 -0.7975
20096SOL     OW62919   2.059   6.309   0.187 -0.2767  0.3987 -0.6184
20096SOL    HW162920   2.000   6.371   0.143  1.4937  0.6564 -2.7961
20096SOL    HW262921   2.019   6.224   0.173 -1.5799  0.7888  0.4739
20097SOL     OW62922   8.918   4.441   6.892  0.2464 -0.0627 -0.1841
20097SOL    HW162923   8.926   4.456   6.797  1.9769  1.6073  0.1843
20097SOL    HW262924   8.909   4.346   6.899  4.6305 -0.8250 -1.8455
20098SOL     OW62925   6.742   5.390   5.313 -0.2992 -0.4932  0.6130
20098SOL    HW162926   6.818   5.441   5.287 -0.6422  0.7590  1.9351
20098SOL    HW262927   6.695   5.373   5.231  0.8476 -0.4114 -0.0845
20099SOL     OW62928   3.147   9.972   9.527  0.6105 -0.9490  0.9665
20099SOL    HW162929   3.125  10.063   9.506 -1.0223 -1.5887 -0.2948
20099SOL    HW262930   3.219   9.951   9.468 -0.2533 -1.0190 -0.0956
20100SOL     OW62931   3.266   2.463   0.125 -0.1838 -0.8042  0.1015
20100SOL    HW162932   3.202   2.426   0.186 -0.2792 -1.4708 -0.3938
20100SOL    HW262933   3.236   2.434   0.039  1.9512 -2.9352 -0.0110
20101SOL     OW62934   9.941   4.177   8.525  0.6001 -0.5281  0.3673
20101SOL    HW162935   9.990   4.259   8.517 -0.6236  0.4095  1.9704
20101SOL    HW262936   9.911   4.175   8.616  0.9919 -3.0150  0.5117
20102SOL     OW62937   9.136   4.248   1.155  0.5633  0.3734  0.5366
20102SOL    HW162938   9.188   4.203   1.221  0.4632 -1.9928 -0.9160
20102SOL    HW262939   9.187   4.327   1.135  1.8257 -0.1180  1.6336
20103SOL     OW62940   1.476   5.486   4.405  0.2249  0.1186 -0.3105
20103SOL    HW162941   1.513   5.510   4.491  0.7195  3.5838 -1.3430
20103SOL    HW262942   1.546   5.437   4.363  0.5292 -0.3906  0.7423
20104SOL     OW62943   0.732   3.521   1.029 -0.2176  0.0101 -0.4646
20104SOL    HW162944   0.736   3.585   0.958 -0.2274 -0.1859 -0.6441
20104SOL    HW262945   0.818   3.527   1.071  0.3745 -0.9502 -1.4519
20105SOL     OW62946   5.660   1.370   0.876  0.2022  0.1612 -0.1210
20105SOL    HW162947   5.665   1.354   0.782  1.9539  0.5278 -0.1140
20105SOL    HW262948   5.621   1.458   0.883 -0.0408  0.0841 -0.5003
20106SOL     OW62949   7.631   3.991   9.567 -0.5341 -0.0100  0.1629
20106SOL    HW162950   7.707   3.974   9.622  1.0085  0.4974 -1.7109
20106SOL    HW262951   7.608   3.905   9.530  0.7906  0.2088 -1.2635
20107SOL     OW62952   0.508   8.886  10.176  0.0941 -0.2292 -0.6349
20107SOL    HW162953   0.524   8.975  10.207  0.2058 -0.2758 -0.5553
20107SOL    HW262954   0.421   8.889  10.137 -0.4812 -0.4119  0.5981
20108SOL     OW62955   3.901   7.045   9.791 -0.0621 -0.3673  0.5244
20108SOL    HW162956   3.822   7.006   9.754 -0.0575 -0.3062  0.4488
20108SOL    HW262957   3.973   6.995   9.753 -0.0999 -1.3734  1.7029
20109SOL     OW62958   9.110  10.348   9.349 -0.0389  0.2368  0.6598
20109SOL    HW162959   9.154  10.433   9.347 -1.3588  0.9402  0.4357
20109SOL    HW262960   9.048  10.354   9.422  0.1007 -0.6658  0.8624
20110SOL     OW62961   6.847   3.821   5.177 -0.0931  0.5379  0.2409
20110SOL    HW162962   6.885   3.754   5.233  0.7502  1.0397  0.2960
20110SOL    HW262963   6.921   3.877   5.153 -0.6992  1.1927 -0.1571
20111SOL     OW62964   0.427   8.457   3.768 -1.0098 -0.1922 -0.1821
20111SOL    HW162965   0.361   8.451   3.838 -0.1039 -0.8447  0.6447
20111SOL    HW262966   0.500   8.505   3.808 -1.4468  1.6766 -1.4880
20112SOL     OW62967   1.477   8.424   6.457 -0.0770 -0.3061  0.3009
20112SOL    HW162968   1.527   8.409   6.376 -0.9846 -0.9470 -0.1569
20112SOL    HW262969   1.519   8.501   6.496  0.2768  0.1314 -0.8705
20113SOL     OW62970   7.855   5.295   6.036 -0.5361 -0.2819 -0.0967
20113SOL    HW162971   7.930   5.340   5.996 -0.6791 -1.4838 -1.8294
20113SOL    HW262972   7.818   5.359   6.096  0.5405  1.1357 -0.8784
20114SOL     OW62973   4.757   2.501   3.436  0.0264  0.3582  0.2276
20114SOL    HW162974   4.740   2.407   3.425  0.3277  0.3008  0.2463
20114SOL    HW262975   4.851   2.510   3.420 -0.3675  0.9839 -1.9982
20115SOL     OW62976   0.384   8.036   7.889  0.2184  0.5983 -0.1700
20115SOL    HW162977   0.375   7.946   7.921  2.0686  1.5933  3.6608
20115SOL    HW262978   0.316   8.085   7.935  1.5016  1.7393  0.5646
20116SOL     OW62979   4.748   4.076   7.231  0.4543  0.4335 -0.3652
20116SOL    HW162980   4.781   3.990   7.259  1.0949  0.5295 -0.8022
20116SOL    HW262981   4.654   4.071   7.246  0.8779  1.2703  3.9546
20117SOL     OW62982   3.686   6.907   6.137  0.1057 -0.1963  0.0930
20117SOL    HW162983   3.732   6.982   6.177  1.3300 -0.5067 -0.6802
20117SOL    HW262984   3.610   6.894   6.192 -0.4748  2.0115 -0.0811
20118SOL     OW62985   4.210   9.682   3.767  0.1825  0.6616  0.5175
20118SOL    HW162986   4.272   9.700   3.838  1.5793  0.8178 -0.6888
20118SOL    HW262987   4.264   9.645   3.698 -1.1494  0.5298 -0.4821
20119SOL     OW62988   8.416   2.643   5.149  0.0163 -0.4667  0.5703
20119SOL    HW162989   8.435   2.666   5.058 -0.1340 -0.1635  0.6146
20119SOL    HW262990   8.474   2.569   5.168 -0.4477 -0.9966  0.0026
20120SOL     OW62991   6.970   6.265   1.427  0.2505 -0.0420 -0.6590
20120SOL    HW162992   7.032   6.261   1.354 -0.5583 -1.4932 -1.3339
20120SOL    HW262993   6.944   6.173   1.441 -4.2785  0.6251 -2.7332
20121SOL     OW62994  10.288   4.887   1.495 -0.2177 -0.4708 -0.6380
20121SOL    HW162995  10.200   4.925   1.501 -0.1006 -0.2439 -0.3529
20121SOL    HW262996  10.274   4.794   1.509 -0.2312 -0.2449  1.0530
20122SOL     OW62997   0.760   1.058   3.791  0.1829 -0.4893 -0.0856
20122SOL    HW162998   0.832   1.092   3.739 -0.7208  0.2214 -0.9064
20122SOL    HW262999   0.721   1.136   3.831 -1.0440 -0.6901 -0.8539
20123SOL     OW63000   6.397   3.131   0.628 -0.1720  0.5854 -0.1708
20123SOL    HW163001   6.452   3.177   0.691 -0.4714 -0.6314  1.0313
20123SOL    HW263002   6.429   3.158   0.543  1.3187  1.0279  0.5062
20124SOL     OW63003   0.769   2.863   6.181  0.2434 -0.0384  0.4823
20124SOL    HW163004   0.860   2.891   6.186  0.5440 -0.4427 -1.5223
20124SOL    HW263005   0.724   2.935   6.136 -0.3816  0.0603  1.2531
20125SOL     OW63006  10.205   0.415   6.851 -0.3819 -0.3688  0.5386
20125SOL    HW163007  10.120   0.375   6.864  0.1764 -1.5425  0.7276
20125SOL    HW263008  10.254   0.396   6.931  0.4050 -0.6335  0.0111
20126SOL     OW63009   3.351   7.402   8.941  0.3795 -0.1565 -0.4355
20126SOL    HW163010   3.398   7.413   8.858 -2.5655  0.9809 -2.1067
20126SOL    HW263011   3.284   7.337   8.921 -1.4522  1.3588  0.5082
20127SOL     OW63012   3.383   6.470   2.702  0.3195 -0.0985 -0.2816
20127SOL    HW163013   3.311   6.513   2.655  0.4190 -0.1434 -0.4778
20127SOL    HW263014   3.430   6.543   2.744 -1.0677 -0.2430  1.6139
20128SOL     OW63015   8.005  10.079   1.895  0.4141  0.1729 -0.3361
20128SOL    HW163016   7.967  10.166   1.886 -0.2749 -0.0452  0.3119
20128SOL    HW263017   7.988  10.055   1.986  0.4856 -0.6793 -0.5408
20129SOL     OW63018   0.649   0.715   5.943  0.2259 -0.0577  0.0991
20129SOL    HW163019   0.723   0.733   5.886 -2.2886  2.0561 -2.8171
20129SOL    HW263020   0.682   0.733   6.031  3.1060  0.9649 -1.0667
20130SOL     OW63021   5.717   8.738   7.583  0.0007  0.0850  0.5457
20130SOL    HW163022   5.790   8.794   7.558 -0.8296  0.8779 -0.1325
20130SOL    HW263023   5.724   8.662   7.525  1.1007 -0.5223  1.4390
20131SOL     OW63024   1.344   5.707   0.251 -0.5181 -0.1830 -0.0426
20131SOL    HW163025   1.279   5.710   0.181 -2.2067 -0.0348  1.4485
20131SOL    HW263026   1.412   5.767   0.223 -1.8828  1.0427 -0.8894
20132SOL     OW63027   4.663   8.417   4.463  0.4188  0.1801 -0.3516
20132SOL    HW163028   4.615   8.350   4.414 -1.0932 -1.0019  2.4963
20132SOL    HW263029   4.752   8.381   4.471  0.0882 -0.6768 -0.3400
20133SOL     OW63030   2.696   8.115   0.839 -0.0492 -0.1121 -0.0311
20133SOL    HW163031   2.726   8.170   0.912 -1.3766  1.2356 -0.4570
20133SOL    HW263032   2.769   8.054   0.824  2.7117  3.1442 -1.2205
20134SOL     OW63033   9.865   3.891   8.580  0.0989  0.1218  0.5008
20134SOL    HW163034   9.834   3.953   8.646  1.2850  1.8328 -0.4631
20134SOL    HW263035   9.958   3.909   8.572  0.3937 -1.5030 -0.1548
20135SOL     OW63036   4.143  10.120   4.269  0.1031 -0.2190  0.3536
20135SOL    HW163037   4.213  10.077   4.318  0.7071  0.4609  0.1064
20135SOL    HW263038   4.163  10.213   4.276 -0.1199 -0.0813 -0.7059
20136SOL     OW63039   1.992   2.717   5.930  0.1854 -0.6261  0.2117
20136SOL    HW163040   1.917   2.771   5.906 -0.6258 -0.8932  2.0116
20136SOL    HW263041   2.054   2.778   5.971  0.8603 -0.4654 -0.9790
20137SOL     OW63042   7.098   1.012   2.065  0.1071  0.3418  0.4666
20137SOL    HW163043   7.140   1.098   2.068  0.4655  0.1749  0.2526
20137SOL    HW263044   7.167   0.953   2.037 -0.4391  0.1700 -0.5655
20138SOL     OW63045   9.296   5.886   0.044  0.1185 -0.1328 -0.1741
20138SOL    HW163046   9.244   5.843   0.112 -1.1589  3.3951  1.3114
20138SOL    HW263047   9.387   5.867   0.068 -0.3291 -2.5220 -0.1038
20139SOL     OW63048   7.024   6.769   3.071  0.4108 -0.2376 -0.0875
20139SOL    HW163049   7.033   6.819   3.153  0.5888  1.5704 -1.1453
20139SOL    HW263050   6.966   6.697   3.093  1.8204 -0.8225  2.0660
20140SOL     OW63051   3.924   5.034  10.072 -0.6616  0.0186 -0.1944
20140SOL    HW163052   3.856   5.053  10.137 -1.5939  0.5341 -1.2831
20140SOL    HW263053   3.967   5.118  10.056 -0.3029 -0.1455 -0.1073
20141SOL     OW63054   2.580   0.422   8.221 -0.6431  0.3612  0.6150
20141SOL    HW163055   2.562   0.496   8.163  0.3305 -0.5629 -0.9448
20141SOL    HW263056   2.504   0.366   8.212 -0.6106  0.3451  0.4427
20142SOL     OW63057   5.716   4.898  10.291  0.5027  0.5014 -0.1831
20142SOL    HW163058   5.647   4.938  10.240  0.9344 -0.6277 -1.7309
20142SOL    HW263059   5.791   4.894  10.232  1.1095 -0.5985  0.6080
20143SOL     OW63060   5.937   1.300   4.919 -0.3913  0.2287 -0.0281
20143SOL    HW163061   5.991   1.250   4.857 -0.8899 -0.7713  0.3283
20143SOL    HW263062   5.981   1.288   5.003 -0.8696 -0.1567  0.1690
20144SOL     OW63063   7.925   1.307   8.883  0.3588  0.0560  0.1240
20144SOL    HW163064   7.850   1.254   8.858  0.7488 -0.3898 -0.1338
20144SOL    HW263065   7.896   1.356   8.961  0.5503 -1.9044  1.5078
20145SOL     OW63066   1.193   4.714   3.126  0.6138  0.6231  0.3672
20145SOL    HW163067   1.115   4.677   3.085  0.3193  0.0407  1.3979
20145SOL    HW263068   1.161   4.748   3.210  1.2504  1.4806  0.2761
20146SOL     OW63069   9.462   9.280   6.269 -0.0267 -0.5452  0.1378
20146SOL    HW163070   9.471   9.333   6.191 -0.7932 -0.0862  0.3472
20146SOL    HW263071   9.402   9.329   6.325  0.6450 -0.7801  1.0907
20147SOL     OW63072   2.167   4.349   7.091  0.3673  0.0677  0.4795
20147SOL    HW163073   2.091   4.394   7.127 -0.6351 -1.6840  0.7065
20147SOL    HW263074   2.190   4.398   7.012 -2.3602 -0.5118 -0.7924
20148SOL     OW63075   9.270   1.640   4.269 -0.0003  0.5528  0.2031
20148SOL    HW163076   9.248   1.733   4.276 -0.5772  0.4220  0.2024
20148SOL    HW263077   9.338   1.627   4.335 -0.6009  0.7767  0.8844
20149SOL     OW63078   9.942   8.985   9.464  0.2720  0.5229 -0.7341
20149SOL    HW163079   9.895   9.032   9.532 -0.5201 -0.0746 -0.8560
20149SOL    HW263080   9.988   8.915   9.511 -2.1525 -1.3901 -0.9953
20150SOL     OW63081   2.586   2.836  10.055  0.2286 -0.3786 -0.2938
20150SOL    HW163082   2.626   2.770  10.111 -2.4699 -0.5350  1.6723
20150SOL    HW263083   2.532   2.889  10.115 -1.7647  0.3083 -2.5276
20151SOL     OW63084   1.831   6.266   1.941  0.4282  0.1799  0.5939
20151SOL    HW163085   1.741   6.234   1.954  0.1457  0.2987 -0.8160
20151SOL    HW263086   1.828   6.358   1.965 -0.2409  0.5740 -0.8586
20152SOL     OW63087   4.492   9.411   7.023 -0.3867 -0.3238  0.0090
20152SOL    HW163088   4.575   9.434   6.982 -1.2395 -1.3732 -2.4597
20152SOL    HW263089   4.432   9.480   6.997 -0.4634  0.1057  1.2739
20153SOL     OW63090   8.025   2.383  10.251 -0.0029 -0.0559 -0.0223
20153SOL    HW163091   8.037   2.406  10.343  0.3616 -1.2444  0.2434
20153SOL    HW263092   7.936   2.348  10.247  0.6248 -1.8068  0.2997
20154SOL     OW63093   5.056   8.656  10.331 -0.4258 -0.0574  0.3849
20154SOL    HW163094   5.066   8.663  10.426  0.8902  0.0524  0.2576
20154SOL    HW263095   5.102   8.575  10.309 -0.6246 -0.0161 -0.1734
20155SOL     OW63096   1.231   6.851   0.978 -0.1074  0.6324 -0.5134
20155SOL    HW163097   1.223   6.878   0.887  0.5847  2.1240 -0.1557
20155SOL    HW263098   1.170   6.908   1.026 -1.0969 -0.7005 -0.1121
20156SOL     OW63099   6.067   2.962   2.763 -0.3244  0.2573 -0.0861
20156SOL    HW163100   6.117   2.982   2.843  0.7300 -0.0814 -0.6348
20156SOL    HW263101   6.122   2.900   2.716 -1.6526 -0.7558 -0.3517
20157SOL     OW63102   2.411   3.664   4.820 -0.2035 -0.0198 -0.3715
20157SOL    HW163103   2.450   3.751   4.827 -0.4761  0.1522 -0.9604
20157SOL    HW263104   2.321   3.680   4.793  0.1856 -0.5387 -2.1035
20158SOL     OW63105   7.985   7.108   5.443 -0.2688  0.6161 -0.8151
20158SOL    HW163106   8.078   7.093   5.424 -0.3526  0.8954 -1.4498
20158SOL    HW263107   7.982   7.117   5.538  0.4349  1.1424 -0.8291
20159SOL     OW63108   4.726   5.484  10.191 -0.2498  0.2472 -0.3537
20159SOL    HW163109   4.686   5.440  10.266  1.6182 -0.6821  0.1908
20159SOL    HW263110   4.743   5.573  10.221 -0.4796  0.1840 -0.0319
20160SOL     OW63111   9.118   5.624   8.516 -0.5004  0.4098 -0.5956
20160SOL    HW163112   9.095   5.548   8.569  1.1806  0.0928 -0.2451
20160SOL    HW263113   9.081   5.606   8.430 -1.4075 -0.0895 -0.1144
20161SOL     OW63114   3.624   4.964   8.908 -0.3079  0.5868  0.4312
20161SOL    HW163115   3.631   4.916   8.826  2.3252  0.0777  0.8616
20161SOL    HW263116   3.607   4.898   8.975  2.1859  0.2739  0.8631
20162SOL     OW63117   4.133   1.780   5.015 -0.3593 -0.3408  0.3925
20162SOL    HW163118   4.173   1.755   4.932 -1.0608  1.3078 -0.4922
20162SOL    HW263119   4.197   1.756   5.081  0.6815 -0.6846 -0.7132
20163SOL     OW63120   2.056   9.665   8.694 -0.3366  0.4254  0.4647
20163SOL    HW163121   2.034   9.610   8.618 -1.1704  0.3578  0.7416
20163SOL    HW263122   2.143   9.698   8.675  0.3206 -1.2346  0.4229
20164SOL     OW63123   3.015   8.154   8.227  0.0923 -0.5720  0.6296
20164SOL    HW163124   2.977   8.190   8.147  5.4356 -0.1220 -2.1207
20164SOL    HW263125   3.015   8.060   8.213  1.4997 -0.4703 -0.3261
20165SOL     OW63126   4.598   1.187   8.350 -0.4317 -0.1240 -0.7811
20165SOL    HW163127   4.671   1.245   8.372  0.5688 -1.6370  0.1231
20165SOL    HW263128   4.580   1.140   8.431 -1.2395 -1.0226 -1.4610
20166SOL     OW63129   6.326   4.774   1.917 -0.3111 -0.3139 -0.0693
20166SOL    HW163130   6.259   4.830   1.955  2.1067  2.2260  0.7323
20166SOL    HW263131   6.334   4.804   1.826 -1.0685 -1.4825 -0.5502
20167SOL     OW63132   4.037   8.255   8.492 -0.1049 -0.5094  0.0228
20167SOL    HW163133   3.991   8.192   8.548  1.2942 -1.3080  0.3262
20167SOL    HW263134   3.968   8.305   8.450 -1.2179 -0.8087  1.4282
20168SOL     OW63135   3.823   2.172   2.443  0.0151 -0.3388 -0.6627
20168SOL    HW163136   3.899   2.143   2.394  0.5448  0.9279 -0.6230
20168SOL    HW263137   3.780   2.091   2.471  1.3138 -1.0713 -0.7198
20169SOL     OW63138   9.360   1.860   2.531 -0.3936 -0.6824 -0.7734
20169SOL    HW163139   9.337   1.931   2.470 -0.3718 -1.1869 -1.3795
20169SOL    HW263140   9.452   1.841   2.511  0.1034  0.2215  0.5202
20170SOL     OW63141   9.088   4.834   1.715 -0.2995 -0.2058 -0.2899
20170SOL    HW163142   9.065   4.782   1.793  1.0142  0.3981  0.5253
20170SOL    HW263143   9.087   4.925   1.746  0.7248  0.0035 -0.8504
20171SOL     OW63144   7.779   2.282   2.453  0.4106 -0.0541  0.5700
20171SOL    HW163145   7.774   2.216   2.521  0.3691  1.7337  2.3777
20171SOL    HW263146   7.690   2.285   2.416 -0.2801  0.7241  2.2166
20172SOL     OW63147   7.303   1.845   5.378 -0.1739  0.3142 -0.3315
20172SOL    HW163148   7.364   1.884   5.441  1.1028 -0.1326 -1.2438
20172SOL    HW263149   7.241   1.916   5.358  1.2474  1.4680 -0.8733
20173SOL     OW63150   4.352   6.107   3.754 -0.2047  0.5210  0.0623
20173SOL    HW163151   4.402   6.079   3.831  0.2991  0.3901 -0.3094
20173SOL    HW263152   4.416   6.148   3.697 -0.6223  0.8294 -0.1907
20174SOL     OW63153   5.884   2.376   6.136 -0.0222  0.6155  0.4515
20174SOL    HW163154   5.878   2.307   6.071  0.4384  0.3755  0.6600
20174SOL    HW263155   5.960   2.428   6.110  0.4265  0.2604  1.0381
20175SOL     OW63156  10.306   2.608   0.312 -0.8552 -0.0050  0.3099
20175SOL    HW163157  10.226   2.658   0.298 -0.3301  0.3565 -1.7206
20175SOL    HW263158  10.371   2.674   0.338  0.2507  0.8819 -3.8786
20176SOL     OW63159   3.785   6.968   3.968 -0.4868 -0.6054  0.1480
20176SOL    HW163160   3.772   7.042   4.027  1.9085  0.9476 -1.1095
20176SOL    HW263161   3.871   6.933   3.991 -0.7267 -1.7561 -0.5877
20177SOL     OW63162   2.218   9.067   9.273 -0.0740  0.1262  0.0427
20177SOL    HW163163   2.207   9.008   9.347  1.7611 -2.4213 -1.5802
20177SOL    HW263164   2.312   9.081   9.267 -0.3059  1.4158 -1.0000
20178SOL     OW63165   0.080   6.005   6.433 -0.0503 -0.1907 -0.5381
20178SOL    HW163166   0.135   5.996   6.355  1.3773 -0.3454  0.4466
20178SOL    HW263167   0.054   6.097   6.433  1.7515  0.3583 -0.0664
20179SOL     OW63168   2.507   4.593   0.624 -0.0096  0.4112  0.0409
20179SOL    HW163169   2.483   4.562   0.537 -0.4542  2.0347 -0.4606
20179SOL    HW263170   2.435   4.564   0.680 -1.0694  1.5579 -0.6561
20180SOL     OW63171   9.839   7.192   0.034  0.2060  0.1384 -0.4569
20180SOL    HW163172   9.883   7.156  -0.043  0.0322 -0.1707 -0.4134
20180SOL    HW263173   9.771   7.128   0.054 -1.2661  1.3209 -1.4441
20181SOL     OW63174   3.517   0.084   1.810  0.0525 -0.0400  0.3441
20181SOL    HW163175   3.438   0.122   1.850  0.0519  1.2263 -0.7692
20181SOL    HW263176   3.577   0.071   1.883  0.2291  2.6269  0.7754
20182SOL     OW63177   6.346   0.423   2.969 -0.3182  0.7020 -0.0155
20182SOL    HW163178   6.400   0.502   2.970 -0.0359  0.5085  0.2474
20182SOL    HW263179   6.314   0.413   3.058 -1.7418  1.4483 -0.4157
20183SOL     OW63180   2.803   5.272   7.892  0.3741  0.3866  0.1421
20183SOL    HW163181   2.838   5.217   7.962  2.0188  0.3693 -0.6617
20183SOL    HW263182   2.841   5.237   7.812  1.3428  2.5553 -0.4191
20184SOL     OW63183   7.505   6.081   7.971 -0.1820 -0.0160  0.6232
20184SOL    HW163184   7.583   6.137   7.968  0.2825 -0.6972 -1.7197
20184SOL    HW263185   7.433   6.142   7.983  0.3803  1.0668 -1.1214
20185SOL     OW63186   4.734   8.317   3.198 -0.0959  0.5574 -0.4778
20185SOL    HW163187   4.721   8.222   3.189  0.6955  0.2340  1.3881
20185SOL    HW263188   4.815   8.334   3.149 -0.4023  0.3473 -1.0759
20186SOL     OW63189   1.512   5.054   9.467 -0.3231 -0.1754  0.1642
20186SOL    HW163190   1.434   5.098   9.433  1.6312  1.9578 -2.0460
20186SOL    HW263191   1.500   5.052   9.561 -3.4156 -0.7783 -0.1701
20187SOL     OW63192   0.363   1.462   6.787 -0.4509 -0.0485 -0.2410
20187SOL    HW163193   0.420   1.389   6.765 -0.4781  0.2136 -1.2690
20187SOL    HW263194   0.275   1.430   6.766 -0.5382  0.0258  0.0105
20188SOL     OW63195   2.906   7.396   4.734  0.3577 -0.3265  0.1148
20188SOL    HW163196   2.970   7.333   4.765 -0.7390 -0.9040  1.3129
20188SOL    HW263197   2.832   7.343   4.705  0.2884  0.3320 -0.9613
20189SOL     OW63198   4.017   7.263   4.664 -0.1953 -0.4070  0.2301
20189SOL    HW163199   4.032   7.179   4.708  0.0672 -0.5833 -0.1808
20189SOL    HW263200   4.104   7.304   4.661 -0.6071  0.6850  2.0022
20190SOL     OW63201   8.260   7.866   8.498  0.4516 -0.5600  0.3032
20190SOL    HW163202   8.331   7.807   8.522 -0.3815 -1.3100  1.0154
20190SOL    HW263203   8.291   7.953   8.523  1.9925 -0.5677 -1.4316
20191SOL     OW63204   1.068   9.014   4.153 -0.2547 -0.3157 -0.3800
20191SOL    HW163205   1.049   9.073   4.226 -0.0220 -0.8020  0.0797
20191SOL    HW263206   1.115   9.068   4.090 -2.1765  0.6344 -1.0794
20192SOL     OW63207   7.200   3.521   9.261  0.1872  0.3104  0.4791
20192SOL    HW163208   7.110   3.550   9.246 -0.3433 -1.0242  0.9175
20192SOL    HW263209   7.198   3.427   9.244  1.1904  0.0231  1.7927
20193SOL     OW63210   5.605   8.894   6.203  0.3099  0.7835  0.1652
20193SOL    HW163211   5.679   8.893   6.143  2.2374  0.2601  2.3712
20193SOL    HW263212   5.618   8.972   6.257 -0.1447  0.1403  1.2585
20194SOL     OW63213   9.529   9.302   0.587 -0.7175  0.4172 -0.7690
20194SOL    HW163214   9.451   9.351   0.562 -0.7393 -0.3346 -2.2971
20194SOL    HW263215   9.596   9.329   0.524 -0.5049 -0.9036 -1.1354
20195SOL     OW63216   0.172   5.304  10.228  0.5265  0.6866  0.1396
20195SOL    HW163217   0.208   5.318  10.315  0.1023 -2.0188  0.8449
20195SOL    HW263218   0.081   5.277  10.244  0.9020 -1.4490 -0.9630
20196SOL     OW63219   5.958   9.842   7.471  0.1715 -0.2919  0.3081
20196SOL    HW163220   6.023   9.775   7.450  0.4071  0.2090 -0.5922
20196SOL    HW263221   5.900   9.800   7.535 -0.3081 -1.7133 -1.0027
20197SOL     OW63222   8.899   2.887  10.093 -0.3170  0.3842  0.0999
20197SOL    HW163223   8.821   2.943  10.089 -0.4053  0.2315 -0.5026
20197SOL    HW263224   8.870   2.802  10.060  0.0486  0.2571  0.0944
20198SOL     OW63225   5.297   0.620   6.196 -0.4997  0.1594  0.3297
20198SOL    HW163226   5.363   0.581   6.138 -3.2460  0.0477 -3.0346
20198SOL    HW263227   5.346   0.685   6.247  2.3127 -0.3607 -1.4356
20199SOL     OW63228   6.232   5.021   7.075 -0.2359  0.3490 -0.0541
20199SOL    HW163229   6.211   5.110   7.046 -1.0232 -0.4533 -2.0926
20199SOL    HW263230   6.176   4.964   7.023  0.1122 -1.3728  1.3315
20200SOL     OW63231   3.565   0.924   9.370  0.1117 -0.1256 -0.2449
20200SOL    HW163232   3.508   0.856   9.335  0.3164  0.0191 -0.8734
20200SOL    HW263233   3.650   0.908   9.330  1.0740 -1.5147  2.1448
20201SOL     OW63234   5.403  10.231   4.777 -0.5553  0.0238  0.1884
20201SOL    HW163235   5.459  10.253   4.851  0.9813 -0.1767 -0.8565
20201SOL    HW263236   5.450  10.264   4.701 -1.4389 -0.9278 -0.8105
20202SOL     OW63237   9.959   4.375   3.879  0.0769 -0.1105 -0.9932
20202SOL    HW163238   9.944   4.467   3.902  0.7904  0.3551 -2.3003
20202SOL    HW263239  10.031   4.348   3.936  0.2509  0.3156 -1.0054
20203SOL     OW63240   5.149   0.718   0.079 -0.8908  0.1621 -0.1149
20203SOL    HW163241   5.169   0.646   0.020 -3.6412  0.3219 -1.4194
20203SOL    HW263242   5.173   0.687   0.166 -0.1373 -1.5197 -0.8956
20204SOL     OW63243   9.923   7.300   9.782 -0.4248 -0.0585  0.1118
20204SOL    HW163244   9.985   7.352   9.731 -1.8430  1.0622 -0.5588
20204SOL    HW263245   9.961   7.296   9.870  0.4576  0.8033 -0.2111
20205SOL     OW63246   8.373   2.326   0.597  0.2150  0.3641 -0.3275
20205SOL    HW163247   8.458   2.323   0.552  1.2916 -0.2411  1.6197
20205SOL    HW263248   8.394   2.358   0.684 -1.9340  2.3607 -0.4622
20206SOL     OW63249   6.767   6.086   8.599 -0.2195 -0.1026  0.7930
20206SOL    HW163250   6.794   6.130   8.679 -0.3355  1.7425 -0.1141
20206SOL    HW263251   6.752   6.158   8.537  0.9970 -1.4885 -1.2186
20207SOL     OW63252   9.831   8.189   3.788 -0.3440 -0.0808 -0.6316
20207SOL    HW163253   9.790   8.240   3.858  1.2196 -0.9413  0.9663
20207SOL    HW263254   9.892   8.250   3.746  0.0726 -0.0700 -0.0159
20208SOL     OW63255   7.787   1.724   1.128  0.4742 -0.3177  0.5601
20208SOL    HW163256   7.812   1.774   1.206 -0.9163 -0.6184  1.2370
20208SOL    HW263257   7.735   1.651   1.162 -0.2156 -0.4241 -0.6478
20209SOL     OW63258  10.175   0.686   0.372  0.1499 -0.1017 -0.3089
20209SOL    HW163259  10.189   0.762   0.429  1.3565 -0.5196 -0.0212
20209SOL    HW263260  10.114   0.631   0.421  1.9690 -0.9558  1.1155
20210SOL     OW63261   1.006   9.724   3.138  0.0493 -0.1962 -0.8310
20210SOL    HW163262   1.063   9.789   3.097  0.2929  0.0016 -0.1849
20210SOL    HW263263   1.064   9.650   3.159 -0.7379 -2.0871 -4.4963
20211SOL     OW63264   5.737   6.104   3.946 -0.1662 -0.8296 -0.5016
20211SOL    HW163265   5.651   6.147   3.946 -0.1846 -0.8595 -0.0907
20211SOL    HW263266   5.722   6.022   3.900 -0.6833 -1.4456  0.7049
20212SOL     OW63267   9.671   0.779  10.307 -0.3120 -0.9659 -0.7512
20212SOL    HW163268   9.646   0.709  10.367  2.5840 -1.4263  0.0708
20212SOL    HW263269   9.649   0.860  10.355 -0.0249 -1.3247 -0.0016
20213SOL     OW63270   9.444   8.094   0.213 -0.6500 -0.1331 -0.2560
20213SOL    HW163271   9.437   8.181   0.253  1.6075  1.4702 -3.0146
20213SOL    HW263272   9.532   8.064   0.237  0.3215  0.3907 -2.8356
20214SOL     OW63273   5.580   9.244   4.308  0.1097 -0.0653 -0.4615
20214SOL    HW163274   5.581   9.161   4.260  4.0055 -0.7646  0.5221
20214SOL    HW263275   5.543   9.307   4.246 -2.3450 -2.3009 -1.4735
20215SOL     OW63276   1.038   2.968   5.198  0.2362  0.5632 -0.2837
20215SOL    HW163277   1.040   3.051   5.151  3.0302  1.2698  0.8497
20215SOL    HW263278   1.125   2.930   5.182  0.1348 -0.6245  1.7118
20216SOL     OW63279   3.087   0.256   3.648 -0.1515 -0.4312  0.1353
20216SOL    HW163280   3.026   0.322   3.683  2.6409  1.7812  1.1881
20216SOL    HW263281   3.155   0.248   3.715  1.7216 -1.3675 -1.7794
20217SOL     OW63282   2.766   7.023   7.126  0.2400  0.0273  0.1617
20217SOL    HW163283   2.809   7.057   7.205  1.5784  0.7514 -0.8404
20217SOL    HW263284   2.696   6.968   7.159  1.3022 -0.3756  1.8823
20218SOL     OW63285   1.326   7.607   6.937  0.5251  0.3461  0.5429
20218SOL    HW163286   1.291   7.606   7.026 -1.5857  2.1761 -0.1692
20218SOL    HW263287   1.300   7.523   6.900 -0.4363  0.4310  1.0063
20219SOL     OW63288   0.495   9.514   0.666 -0.2895 -0.2062  0.1520
20219SOL    HW163289   0.557   9.557   0.608 -0.5252  1.2258  0.8940
20219SOL    HW263290   0.469   9.434   0.620  2.1018 -0.8746 -0.1610
20220SOL     OW63291   3.848  10.046   3.104  0.2457  0.6391 -0.4426
20220SOL    HW163292   3.863   9.986   3.031 -1.4438 -0.1908 -0.1804
20220SOL    HW263293   3.868   9.993   3.182 -1.2597  0.3437 -0.2093
20221SOL     OW63294   4.061   9.501   8.394 -1.1176  0.5333  0.0171
20221SOL    HW163295   3.994   9.440   8.423 -1.2633 -0.3871 -2.0328
20221SOL    HW263296   4.121   9.509   8.468 -1.8190 -1.0615  0.8001
20222SOL     OW63297   3.710  10.144   0.604  0.3381 -0.1055  0.3071
20222SOL    HW163298   3.657  10.184   0.674 -2.4050  0.2522 -1.7820
20222SOL    HW263299   3.671  10.057   0.593 -0.4728  0.4662 -1.8360
20223SOL     OW63300   7.293   7.172   4.918  0.3825  0.0088  0.6742
20223SOL    HW163301   7.299   7.077   4.930 -0.8846 -0.2293 -0.3979
20223SOL    HW263302   7.355   7.191   4.848 -1.5495 -0.5279 -1.2812
20224SOL     OW63303   6.548   8.842   0.800  0.2594 -0.3313  0.3618
20224SOL    HW163304   6.633   8.810   0.769 -0.0969 -0.2114 -0.7553
20224SOL    HW263305   6.566   8.875   0.889  1.8568  1.7388 -0.6466
20225SOL     OW63306   8.556   3.355   9.146  0.7102  0.2178 -0.0341
20225SOL    HW163307   8.525   3.281   9.093 -0.9717  0.0315  1.1317
20225SOL    HW263308   8.648   3.333   9.166  1.5515  0.5141 -3.1295
20226SOL     OW63309   3.840   4.045   5.678  0.1382 -0.2533 -0.2311
20226SOL    HW163310   3.861   4.048   5.771  1.8836  0.0155 -0.5971
20226SOL    HW263311   3.773   4.112   5.666  0.9037  0.6915  0.6106
20227SOL     OW63312   4.761   1.654   0.778 -0.3257 -0.5555  0.5573
20227SOL    HW163313   4.748   1.579   0.720 -0.4788  1.4052 -2.1081
20227SOL    HW263314   4.679   1.703   0.774  0.9308  1.6107 -0.7328
20228SOL     OW63315   0.685   2.277   3.363 -0.0670  0.1042  0.2986
20228SOL    HW163316   0.747   2.344   3.336 -2.7527  2.0807 -1.4268
20228SOL    HW263317   0.650   2.309   3.446 -2.2072  1.5987 -1.0935
20229SOL     OW63318  10.029   1.750   8.357 -0.1952 -0.3395  0.4117
20229SOL    HW163319  10.073   1.829   8.388  0.2919 -0.3027 -0.3734
20229SOL    HW263320  10.011   1.766   8.265 -0.9664 -0.7627  0.4745
20230SOL     OW63321   2.783   9.912   9.861 -0.1217 -0.2999 -0.4103
20230SOL    HW163322   2.879   9.917   9.853 -0.1026  0.0977  0.0380
20230SOL    HW263323   2.767   9.825   9.897  0.0088 -0.7235 -1.3392
20231SOL     OW63324   6.122   6.635   6.008  0.6366 -0.1628 -0.3725
20231SOL    HW163325   6.125   6.541   6.027 -0.4398 -0.3654 -1.0851
20231SOL    HW263326   6.028   6.654   5.999  0.8149  1.0629  0.1267
20232SOL     OW63327   6.032   0.793   5.885  0.0018 -0.3421 -0.4057
20232SOL    HW163328   6.082   0.856   5.833  0.8851 -2.5698 -2.4210
20232SOL    HW263329   5.941   0.814   5.866  0.3009 -0.3020 -1.8950
20233SOL     OW63330   3.616   9.116   7.871  0.0466 -0.3290  0.3105
20233SOL    HW163331   3.554   9.156   7.932 -1.1265 -1.1089 -0.3168
20233SOL    HW263332   3.702   9.145   7.901 -0.6242  0.9278  1.1144
20234SOL     OW63333   7.075   2.171   3.410  0.2494  0.4812 -0.5937
20234SOL    HW163334   7.008   2.197   3.346 -0.2056 -1.4291 -0.9548
20234SOL    HW263335   7.149   2.229   3.392 -0.3618  0.8822 -1.9580
20235SOL     OW63336   4.394   6.559   0.886  0.5072 -0.4830 -0.0166
20235SOL    HW163337   4.465   6.608   0.927 -0.1823  0.5262  0.0069
20235SOL    HW263338   4.341   6.529   0.960 -0.7152  1.3042 -0.1026
20236SOL     OW63339   5.303   1.527   5.944 -0.2813  0.0796 -0.5063
20236SOL    HW163340   5.289   1.541   5.851 -1.6441 -1.0189 -0.4972
20236SOL    HW263341   5.218   1.546   5.984 -0.3180 -1.4935  0.2485
20237SOL     OW63342  10.022   7.423   0.114  0.9222 -0.1060 -0.4615
20237SOL    HW163343   9.960   7.490   0.084  1.5768  0.1707 -1.2392
20237SOL    HW263344   9.977   7.340   0.097  0.7435  0.0911 -0.9715
20238SOL     OW63345   2.376   2.862   1.927  0.0060  0.2412  0.2852
20238SOL    HW163346   2.350   2.857   2.018 -1.3783  0.5680 -0.0728
20238SOL    HW263347   2.294   2.859   1.878  0.7941 -1.8170 -1.0487
20239SOL     OW63348   5.857   7.020   8.083  0.0436 -0.3110 -0.1084
20239SOL    HW163349   5.770   7.039   8.048  0.0573 -1.2460 -0.6655
20239SOL    HW263350   5.842   7.001   8.175 -0.3922 -0.7600 -0.2669
20240SOL     OW63351   6.749   7.809   7.655 -0.0316 -0.0462  0.0061
20240SOL    HW163352   6.779   7.888   7.701  0.5809 -0.9652  1.2447
20240SOL    HW263353   6.658   7.799   7.681  0.2012 -0.3430  0.7432
20241SOL     OW63354   1.687   9.526   5.284 -0.8282  0.3993 -0.4128
20241SOL    HW163355   1.709   9.580   5.208  0.9224  1.4658  0.7759
20241SOL    HW263356   1.602   9.561   5.313  0.4066  2.8860  0.5352
20242SOL     OW63357   5.644   8.402   6.911 -0.0592  0.2165 -0.1986
20242SOL    HW163358   5.567   8.439   6.867 -0.5814  0.1212  0.6217
20242SOL    HW263359   5.718   8.437   6.861 -0.4664  3.1247  1.0101
20243SOL     OW63360   0.681   5.661   4.074 -0.0891 -0.1845 -0.2083
20243SOL    HW163361   0.697   5.609   4.153  0.0990  0.3428  0.1036
20243SOL    HW263362   0.752   5.724   4.072  0.6370 -1.0050 -1.4963
20244SOL     OW63363   1.283   5.291   0.787 -0.3438  0.4058 -0.1070
20244SOL    HW163364   1.363   5.302   0.736  0.4398  0.1487  1.0224
20244SOL    HW263365   1.217   5.264   0.723 -0.1048  2.6897 -1.4411
20245SOL     OW63366   4.563   8.764   0.882  0.0703  0.2790 -0.2065
20245SOL    HW163367   4.569   8.679   0.926 -1.7212  0.4698  0.5001
20245SOL    HW263368   4.634   8.762   0.817  0.5688 -1.4250  0.3201
20246SOL     OW63369   0.320   3.169   4.288  0.5518  0.4628  1.1232
20246SOL    HW163370   0.315   3.113   4.366 -0.8161 -0.0641  0.6905
20246SOL    HW263371   0.401   3.142   4.245 -0.1387 -1.3060  0.8621
20247SOL     OW63372   3.293   8.507   7.836 -0.2029 -0.1989  0.3363
20247SOL    HW163373   3.303   8.510   7.741 -0.7901 -0.0285  0.2725
20247SOL    HW263374   3.338   8.427   7.862  0.6642  0.1698  0.0156
20248SOL     OW63375   0.290   5.245   9.722 -0.7201 -0.2322  0.2561
20248SOL    HW163376   0.275   5.301   9.798 -0.7395 -0.2218  0.2449
20248SOL    HW263377   0.219   5.182   9.724 -0.2830 -0.7127  0.6785
20249SOL     OW63378   0.031   6.599   3.271 -0.4541  0.2114  0.0611
20249SOL    HW163379   0.026   6.687   3.232  0.7992  0.2156 -0.1104
20249SOL    HW263380   0.030   6.540   3.196 -0.1457  0.1304  0.1205
20250SOL     OW63381   7.010   6.396   3.661 -0.2438  0.5907 -0.2380
20250SOL    HW163382   7.066   6.337   3.611  2.4685  3.4451 -0.9148
20250SOL    HW263383   6.987   6.465   3.599 -2.3566  0.8959  0.8004
20251SOL     OW63384   1.367   1.794   5.490  0.0714  0.0984 -0.5452
20251SOL    HW163385   1.458   1.808   5.518 -0.0635 -0.9851  0.5047
20251SOL    HW263386   1.318   1.860   5.540  0.1926  0.1844 -0.5365
20252SOL     OW63387   6.464   5.805   6.188  0.2125 -0.1836 -0.4149
20252SOL    HW163388   6.377   5.835   6.161 -0.8185 -1.5912  1.1286
20252SOL    HW263389   6.474   5.720   6.145  1.0369  0.1818 -0.9552
20253SOL     OW63390   4.202   1.392   7.712  0.0381 -0.0642  0.4790
20253SOL    HW163391   4.211   1.352   7.626  0.6775  0.9604  0.0476
20253SOL    HW263392   4.108   1.401   7.725 -0.1532 -1.9789  0.7515
20254SOL     OW63393   9.757   8.121   3.078  0.8869  0.0340 -0.0711
20254SOL    HW163394   9.728   8.161   2.996 -0.6829  0.2645  0.5485
20254SOL    HW263395   9.675   8.093   3.121  1.4831  1.3647  2.1317
20255SOL     OW63396   1.768   3.130   5.074  0.2614 -0.2979 -0.3241
20255SOL    HW163397   1.720   3.166   5.148 -0.0861  0.3545 -0.8615
20255SOL    HW263398   1.759   3.035   5.084 -0.8811 -0.1949 -0.2389
20256SOL     OW63399   8.515   5.394   8.321 -0.0642  0.2524  0.4308
20256SOL    HW163400   8.420   5.393   8.328 -0.2306  0.8826 -1.1972
20256SOL    HW263401   8.542   5.306   8.345 -1.1705 -0.2730 -0.1575
20257SOL     OW63402   9.453   8.912   8.270  0.4417  0.2376 -0.7971
20257SOL    HW163403   9.473   8.991   8.320 -1.8248 -0.0699  0.7662
20257SOL    HW263404   9.536   8.865   8.264  0.9438  0.4670  2.4984
20258SOL     OW63405   5.633   0.561   8.276  0.1769  0.0077 -0.8034
20258SOL    HW163406   5.574   0.634   8.291  1.5490  1.2466 -1.1776
20258SOL    HW263407   5.639   0.554   8.181  0.9586  0.1857 -0.7729
20259SOL     OW63408   1.528   2.566   2.351  0.0635  0.0577  0.1571
20259SOL    HW163409   1.615   2.598   2.326  0.3082 -0.0721  0.8257
20259SOL    HW263410   1.546   2.484   2.398 -0.3685  0.3922  0.9173
20260SOL     OW63411   2.539   8.212   8.736  0.5633 -0.0331  0.3381
20260SOL    HW163412   2.588   8.283   8.695  0.7198 -0.0185  0.5516
20260SOL    HW263413   2.542   8.141   8.672  0.0261  0.2996 -0.0661
20261SOL     OW63414   4.426   1.932   7.260 -0.2368  0.0343  0.1657
20261SOL    HW163415   4.344   1.891   7.235 -0.3823 -0.0033  0.6959
20261SOL    HW263416   4.480   1.928   7.181 -1.8306  2.9263 -1.2350
20262SOL     OW63417   8.265   7.001   1.672 -0.0192  0.0563  0.4227
20262SOL    HW163418   8.302   7.069   1.728  1.8584  0.6969 -1.4548
20262SOL    HW263419   8.339   6.968   1.621 -1.8164  0.9204 -3.0786
20263SOL     OW63420   5.010   1.999   9.435  0.0760  0.3751 -0.7381
20263SOL    HW163421   5.011   1.922   9.379  0.3303 -0.0850 -0.1138
20263SOL    HW263422   4.942   2.055   9.399 -0.4188 -0.3490 -0.9305
20264SOL     OW63423   3.236  10.327   6.656  0.0751  0.3769  0.8974
20264SOL    HW163424   3.277  10.388   6.595 -0.8821 -0.5709 -0.7503
20264SOL    HW263425   3.149  10.364   6.672  0.4405  0.8001  1.9872
20265SOL     OW63426   9.838   3.665   6.443 -0.3034  0.5276 -0.0730
20265SOL    HW163427   9.908   3.714   6.487  0.6147  1.0796 -2.0013
20265SOL    HW263428   9.884   3.609   6.380 -1.5564  1.6435 -2.1157
20266SOL     OW63429   4.041   9.564  10.155 -0.0344  0.0459 -0.2186
20266SOL    HW163430   4.049   9.658  10.139 -0.5802  0.0838 -0.2866
20266SOL    HW263431   4.095   9.549  10.233 -1.5624  0.7880  1.0405
20267SOL     OW63432   1.967   9.902   5.907  0.4731  0.0472 -0.1479
20267SOL    HW163433   2.030   9.908   5.979 -0.1857  1.1692  0.3648
20267SOL    HW263434   1.949   9.993   5.883 -0.1099 -0.2835 -1.0404
20268SOL     OW63435   7.834   6.720   7.084 -0.3746 -0.4726  0.3451
20268SOL    HW163436   7.760   6.701   7.025  0.7419 -0.8503 -0.9979
20268SOL    HW263437   7.875   6.798   7.045 -1.5798  1.4226  2.5924
20269SOL     OW63438   1.501   8.440   3.844 -0.0258  0.2935  0.0491
20269SOL    HW163439   1.597   8.443   3.838  0.1852  0.4577  2.5942
20269SOL    HW263440   1.471   8.449   3.753  2.3635 -0.3834 -0.8826
20270SOL     OW63441   0.919  10.231   9.961 -0.1450  0.0429  0.2493
20270SOL    HW163442   1.014  10.237   9.960 -0.0614 -1.0490 -1.0605
20270SOL    HW263443   0.889  10.304   9.907  0.0788 -0.8780 -1.1795
20271SOL     OW63444   1.171   5.081   2.380  0.1238 -0.4649  0.4179
20271SOL    HW163445   1.167   4.989   2.352  3.3442 -1.3443  2.3741
20271SOL    HW263446   1.122   5.083   2.462  0.0804 -0.4468  0.3914
20272SOL     OW63447   7.595   4.506   1.045  0.5261 -0.0894  0.1622
20272SOL    HW163448   7.659   4.543   0.983 -0.9464  0.4021 -1.1439
20272SOL    HW263449   7.579   4.576   1.108  0.9412 -0.0656  0.2471
20273SOL     OW63450   1.845  10.178   0.770 -0.6639 -0.2409  0.3498
20273SOL    HW163451   1.863  10.260   0.816  2.9336 -0.5611 -0.2499
20273SOL    HW263452   1.836  10.112   0.839 -0.2759  0.1087  0.7358
20274SOL     OW63453   4.779   2.870   2.376 -0.2979  0.7484 -0.3635
20274SOL    HW163454   4.872   2.890   2.387  0.0403 -0.3286 -0.9768
20274SOL    HW263455   4.759   2.809   2.447 -0.0474 -0.3790 -1.2094
20275SOL     OW63456   7.350   8.825   9.766  0.0203 -0.4792  1.0542
20275SOL    HW163457   7.265   8.804   9.806 -1.1503  2.0436  0.0992
20275SOL    HW263458   7.351   8.773   9.685 -0.0784 -1.3699  1.6052
20276SOL     OW63459   2.512   5.736  10.297  0.7063  0.1968  0.0350
20276SOL    HW163460   2.418   5.740  10.316  0.6339 -1.7321  0.2912
20276SOL    HW263461   2.553   5.782  10.369  0.0649 -1.1321  1.2996
20277SOL     OW63462   8.075   9.382   3.091  0.0057  0.0592  0.4888
20277SOL    HW163463   7.984   9.399   3.115 -0.4417  0.9506 -1.6422
20277SOL    HW263464   8.115   9.468   3.086  0.4755 -0.2031 -0.4135
20278SOL     OW63465   9.421   1.511   6.994  0.8184 -0.3343  0.0274
20278SOL    HW163466   9.435   1.603   7.018 -0.8604  0.2316 -0.9633
20278SOL    HW263467   9.360   1.478   7.060  1.5275 -0.7910  0.4620
20279SOL     OW63468   0.616   1.220   1.906  0.0961 -0.0080 -0.4094
20279SOL    HW163469   0.570   1.266   1.977 -0.3471 -0.4057 -0.4313
20279SOL    HW263470   0.585   1.130   1.912 -1.4316  0.3150 -2.2810
20280SOL     OW63471   6.540   5.918   8.304 -0.2996  0.4323  0.3749
20280SOL    HW163472   6.477   5.889   8.238 -1.5498  0.4261  1.5125
20280SOL    HW263473   6.485   5.955   8.374  0.9575  0.3194  1.4581
20281SOL     OW63474   2.922   8.621   0.082 -0.1300 -0.7144 -0.3653
20281SOL    HW163475   2.926   8.701   0.030  1.6708 -1.7542 -1.9728
20281SOL    HW263476   2.845   8.575   0.049 -1.7111  0.6624  1.1864
20282SOL     OW63477  10.307   4.431   3.840 -0.1388 -0.0195 -0.2339
20282SOL    HW163478  10.249   4.380   3.897  0.8623 -1.3011 -0.3341
20282SOL    HW263479  10.392   4.389   3.849  0.3697  0.7031 -1.5219
20283SOL     OW63480   2.912   5.834   9.915 -0.3601  0.1918 -0.2215
20283SOL    HW163481   2.880   5.885   9.990 -1.7174 -0.0853 -0.5785
20283SOL    HW263482   2.946   5.754   9.954  0.0221  0.5485  0.1899
20284SOL     OW63483   6.276   9.060   5.838  0.8837 -0.0497  0.0619
20284SOL    HW163484   6.236   8.976   5.814  1.2387 -0.6523  1.4673
20284SOL    HW263485   6.357   9.063   5.787  0.9560 -0.6529  0.1298
20285SOL     OW63486   0.730   6.811   3.508  0.0919 -0.1191  0.0826
20285SOL    HW163487   0.750   6.887   3.562 -0.4764  0.4138 -0.4473
20285SOL    HW263488   0.790   6.743   3.539 -0.8536 -0.1282  2.0262
20286SOL     OW63489   8.495   6.771   5.247  0.3255  0.2752 -0.6829
20286SOL    HW163490   8.516   6.723   5.167  1.2047  0.9943 -0.9032
20286SOL    HW263491   8.572   6.827   5.262 -0.4570  1.2546 -0.1784
20287SOL     OW63492   7.844   6.442   0.653  0.6288  0.0458 -0.2901
20287SOL    HW163493   7.881   6.492   0.580  0.0032  0.2267 -0.4955
20287SOL    HW263494   7.894   6.471   0.729  1.1617 -0.0030 -0.6177
20288SOL     OW63495   9.681   5.079   3.581  0.2568  0.3855  0.5775
20288SOL    HW163496   9.593   5.114   3.567 -0.0424  0.3510  2.1484
20288SOL    HW263497   9.740   5.151   3.558 -0.2626  1.0229  1.2027
20289SOL     OW63498   0.242   7.141   3.099  0.2030  0.2222  0.3716
20289SOL    HW163499   0.192   7.128   3.180 -0.0556 -2.8433 -0.1775
20289SOL    HW263500   0.329   7.108   3.119  0.6918  1.1898 -0.0840
20290SOL     OW63501   9.664   8.647   2.235  0.0968  0.0772 -0.2024
20290SOL    HW163502   9.751   8.648   2.274  1.0981 -0.3787 -2.2692
20290SOL    HW263503   9.622   8.569   2.271  0.9415 -0.2759  0.0285
20291SOL     OW63504   4.349   5.604   9.063  0.1334 -0.2012 -0.3760
20291SOL    HW163505   4.325   5.621   9.154  2.9997 -1.8071  0.8212
20291SOL    HW263506   4.427   5.658   9.049 -1.0317  1.0646 -2.3871
20292SOL     OW63507   7.832   4.800   2.317 -0.0758 -0.2419 -0.0049
20292SOL    HW163508   7.777   4.778   2.392 -0.9601  0.5041 -0.4228
20292SOL    HW263509   7.817   4.893   2.303  0.3101 -0.3133 -0.9426
20293SOL     OW63510   2.008   2.734   0.129 -0.1215  0.4009 -0.6054
20293SOL    HW163511   1.925   2.733   0.176 -0.2818  0.0272 -0.8941
20293SOL    HW263512   1.986   2.707   0.040  0.7288 -2.4507 -0.0291
20294SOL     OW63513   5.973   6.446   6.814 -0.1902 -0.2349  0.2334
20294SOL    HW163514   5.957   6.539   6.797  0.4480  0.2624  2.0687
20294SOL    HW263515   6.066   6.433   6.795  0.0793 -0.1121  1.3806
20295SOL     OW63516   4.413   9.246   6.277  0.3952  0.2070 -0.4057
20295SOL    HW163517   4.459   9.238   6.360  0.4638  2.4504 -0.1532
20295SOL    HW263518   4.481   9.241   6.211  0.2443 -2.5115 -0.4605
20296SOL     OW63519   8.882   1.278   0.366  0.0681 -0.4853 -0.3329
20296SOL    HW163520   8.810   1.319   0.413  0.7168 -0.1876  0.4324
20296SOL    HW263521   8.846   1.195   0.334  0.4559 -2.3269  3.5282
20297SOL     OW63522   8.593   5.396   7.639  0.6460  0.3274 -0.4091
20297SOL    HW163523   8.674   5.348   7.658 -0.3759 -0.6772  1.6941
20297SOL    HW263524   8.592   5.468   7.702 -0.4087 -0.0893  0.0757
20298SOL     OW63525   6.306   8.634   8.223 -0.0532 -0.0566  0.9151
20298SOL    HW163526   6.393   8.624   8.262  1.1385  1.8515 -1.0569
20298SOL    HW263527   6.256   8.560   8.258  2.0452 -0.6865  2.8539
20299SOL     OW63528   2.140   1.214   6.650  0.0135 -0.1087 -0.2272
20299SOL    HW163529   2.176   1.261   6.726 -0.6857  0.9186 -0.5130
20299SOL    HW263530   2.211   1.215   6.585  0.1283  0.2340 -0.0964
20300SOL     OW63531   2.725   1.791   2.702  0.3511  0.2814  0.2760
20300SOL    HW163532   2.680   1.807   2.619 -0.7708  1.6638  1.1001
20300SOL    HW263533   2.796   1.855   2.703  1.7743 -1.2038 -0.5530
20301SOL     OW63534   4.279   8.390   6.538 -0.1897 -0.4256 -0.0081
20301SOL    HW163535   4.222   8.394   6.462 -0.2866  0.9083  0.1146
20301SOL    HW263536   4.318   8.302   6.534 -1.2101 -0.8647 -0.8331
20302SOL     OW63537   7.791   5.663   2.608  0.1168 -0.0257 -0.1918
20302SOL    HW163538   7.746   5.658   2.523  1.1181  1.6650 -0.8610
20302SOL    HW263539   7.720   5.655   2.672 -0.5340 -2.6506 -1.0965
20303SOL     OW63540   8.968   9.512   7.010  0.5014 -0.1962  0.3232
20303SOL    HW163541   9.021   9.477   6.938  1.3140  0.0990  0.7650
20303SOL    HW263542   8.887   9.541   6.968  1.1995  0.5163 -0.5755
20304SOL     OW63543   7.157   2.534   6.046 -0.0547 -0.0538 -0.0828
20304SOL    HW163544   7.245   2.525   6.084 -0.7750 -1.9611  1.2414
20304SOL    HW263545   7.173   2.539   5.951  1.4383 -1.1518  0.0776
20305SOL     OW63546   6.205   1.533   8.985 -0.0557  0.5427 -0.2688
20305SOL    HW163547   6.255   1.594   9.039 -1.3381  0.5545  0.9750
20305SOL    HW263548   6.129   1.583   8.955 -0.5574 -0.1198 -0.1328
20306SOL     OW63549   0.515   9.937   7.699 -0.2408 -0.0225  0.2222
20306SOL    HW163550   0.507  10.015   7.754  0.6354  0.8676 -0.8594
20306SOL    HW263551   0.427   9.901   7.696 -0.5746  0.6625  1.1121
20307SOL     OW63552   8.311   2.695   8.851  0.1325 -0.5055 -0.1611
20307SOL    HW163553   8.240   2.663   8.908  0.6003  0.5697  1.0871
20307SOL    HW263554   8.270   2.763   8.798  0.4684  1.0533  1.4921
20308SOL     OW63555   3.687   9.380   0.531 -0.4811 -0.6607  0.1675
20308SOL    HW163556   3.639   9.379   0.614  0.2065  1.2839  0.6292
20308SOL    HW263557   3.716   9.289   0.520  0.2721 -0.7933  2.5844
20309SOL     OW63558   7.764   5.999   2.543 -0.3000 -0.3271  0.6264
20309SOL    HW163559   7.698   5.983   2.476 -0.4454  2.0113  0.1440
20309SOL    HW263560   7.722   5.970   2.624 -2.0712  1.3004  0.3723
20310SOL     OW63561   0.487   0.815  10.207  0.5477 -0.1645  0.5043
20310SOL    HW163562   0.401   0.805  10.247  0.8551 -0.2874  1.1539
20310SOL    HW263563   0.514   0.727  10.182  1.1665 -0.3622  1.7799
20311SOL     OW63564   5.434   4.305   7.210 -0.1892  0.3253 -0.4231
20311SOL    HW163565   5.353   4.258   7.190  0.6849 -1.4337  0.0147
20311SOL    HW263566   5.489   4.292   7.132  0.8536 -1.2139  0.5303
20312SOL     OW63567   2.731   6.411   1.134 -0.4237  0.3667 -0.0192
20312SOL    HW163568   2.646   6.367   1.132 -0.0968 -0.2478 -0.8365
20312SOL    HW263569   2.755   6.411   1.227 -0.9266 -0.2203  0.1174
20313SOL     OW63570   8.932   2.563   7.115 -0.2660 -0.6540  0.4265
20313SOL    HW163571   8.872   2.561   7.041  1.1885  1.0290 -0.9012
20313SOL    HW263572   8.949   2.471   7.136 -0.9646 -1.1573 -1.1140
20314SOL     OW63573   4.853   9.887   9.238  0.1556  0.1973 -0.1757
20314SOL    HW163574   4.938   9.853   9.265 -0.9542 -2.2979  0.5156
20314SOL    HW263575   4.860   9.896   9.143  1.6402  1.5074  0.0296
20315SOL     OW63576   5.612   6.867   6.387  0.0004 -0.3767  0.4562
20315SOL    HW163577   5.595   6.958   6.412  1.5597 -0.0161  0.2998
20315SOL    HW263578   5.676   6.873   6.316 -0.2050 -1.5901  0.1403
20316SOL     OW63579   5.896   8.719   1.046  0.4778 -0.2647  0.0759
20316SOL    HW163580   5.868   8.777   1.117 -0.1395 -0.4333 -0.0258
20316SOL    HW263581   5.870   8.765   0.966 -0.0886 -0.7174 -0.0038
20317SOL     OW63582   2.759   1.304   1.405  0.2250 -0.3427 -0.1111
20317SOL    HW163583   2.831   1.248   1.377  0.5311 -0.3961  0.7697
20317SOL    HW263584   2.800   1.373   1.456 -0.1274  0.8077 -1.3244
20318SOL     OW63585   1.467   3.022   1.771 -0.3620  0.0617 -0.2632
20318SOL    HW163586   1.517   2.953   1.727 -0.5237  0.1062 -0.5217
20318SOL    HW263587   1.379   3.014   1.734 -0.0859  1.2198 -1.2459
20319SOL     OW63588   8.465   3.590   0.913  0.0753 -0.5440 -0.1082
20319SOL    HW163589   8.455   3.685   0.900 -0.9167 -0.3652  1.6216
20319SOL    HW263590   8.559   3.577   0.923  0.1196  0.5095  1.1056
20320SOL     OW63591   7.294   3.326   6.316 -0.2299  0.0633 -0.3591
20320SOL    HW163592   7.356   3.313   6.245  0.7402  0.8525  0.3136
20320SOL    HW263593   7.323   3.265   6.384 -2.0889 -1.8494 -1.1666
20321SOL     OW63594   8.899   9.090   7.683 -0.3086 -0.1392 -0.4448
20321SOL    HW163595   8.880   9.139   7.764  0.4434 -2.5998  1.3528
20321SOL    HW263596   8.975   9.036   7.706  1.3884  0.7196 -3.5788
20322SOL     OW63597   2.866  10.205   9.456 -0.4743 -0.8270  0.0710
20322SOL    HW163598   2.930  10.276   9.447  0.0465 -1.1166  1.3729
20322SOL    HW263599   2.782  10.250   9.466 -0.5930 -0.4456 -2.0469
20323SOL     OW63600   1.135   6.614   1.703  0.2685  0.2042 -0.2106
20323SOL    HW163601   1.226   6.609   1.674  0.2866 -1.2447  0.0216
20323SOL    HW263602   1.084   6.604   1.623  0.3047  0.9321 -0.3299
20324SOL     OW63603   1.597   0.205   4.163  0.1828  0.1545 -0.7494
20324SOL    HW163604   1.524   0.211   4.224 -0.5368 -1.5459 -1.3941
20324SOL    HW263605   1.632   0.295   4.158 -1.0466  0.7339  0.5310
20325SOL     OW63606   8.351   9.989   2.993 -0.2680  0.6234  0.2151
20325SOL    HW163607   8.375  10.010   3.083  1.7943  0.4393 -0.2572
20325SOL    HW263608   8.427   9.943   2.957 -1.6701 -0.7794 -1.1436
20326SOL     OW63609   3.359   2.221   3.042 -0.1100 -0.3816 -0.0859
20326SOL    HW163610   3.356   2.295   3.103 -0.3765 -0.9255  0.5687
20326SOL    HW263611   3.270   2.189   3.039  0.2355 -1.4431  0.5951
20327SOL     OW63612   9.427   2.329   7.465 -0.5071 -0.6062 -0.4246
20327SOL    HW163613   9.419   2.405   7.522 -0.1806 -0.3650 -0.6983
20327SOL    HW263614   9.498   2.351   7.405 -0.6047 -1.0057 -0.6930
20328SOL     OW63615   6.189   9.164   8.134 -0.4864 -0.4550  0.4236
20328SOL    HW163616   6.254   9.223   8.173  1.9506 -0.9344 -2.5463
20328SOL    HW263617   6.211   9.078   8.169  0.3306 -0.5631 -0.3167
20329SOL     OW63618   5.674   1.961   5.244 -0.6080 -0.1072 -0.0418
20329SOL    HW163619   5.585   1.940   5.212 -1.2274  1.1264  0.8132
20329SOL    HW263620   5.700   2.038   5.194  0.0164 -0.4746 -0.3015
20330SOL     OW63621   3.812   1.746   7.942  0.9266  0.2465  0.1116
20330SOL    HW163622   3.746   1.677   7.946  1.3276 -0.1327  0.5248
20330SOL    HW263623   3.809   1.778   7.852  0.5921 -0.1737 -0.0321
20331SOL     OW63624   8.651   0.845   8.770 -0.4770  1.0298  0.4647
20331SOL    HW163625   8.722   0.862   8.707 -0.6914  2.7361  0.6324
20331SOL    HW263626   8.696   0.820   8.851 -0.0651  1.6822  0.4461
20332SOL     OW63627   2.927   0.971   7.232 -0.4328  0.1920  0.1852
20332SOL    HW163628   2.981   0.985   7.154 -0.0881 -3.6822 -0.4669
20332SOL    HW263629   2.987   0.985   7.305  0.5596 -0.6146 -0.4384
20333SOL     OW63630   2.868   0.163   9.511  0.4239  0.2051 -0.6980
20333SOL    HW163631   2.901   0.250   9.533 -0.7578  0.6139 -0.4509
20333SOL    HW263632   2.821   0.135   9.590  0.0383 -0.2755 -1.0943
20334SOL     OW63633   7.621   0.556   1.708 -0.3291 -0.4186  0.1648
20334SOL    HW163634   7.598   0.500   1.782  0.5807 -0.0801  0.7174
20334SOL    HW263635   7.559   0.532   1.640 -1.5393 -0.3638  1.2038
20335SOL     OW63636   9.263   1.227   9.195  0.5963 -0.1716  0.2963
20335SOL    HW163637   9.265   1.291   9.267  1.4054 -0.4455  0.5179
20335SOL    HW263638   9.205   1.268   9.130 -1.8169 -0.7979  1.8956
20336SOL     OW63639   7.125   0.562   2.396 -0.0932  0.1440 -0.0171
20336SOL    HW163640   7.074   0.518   2.328  0.0741  0.7990 -0.5742
20336SOL    HW263641   7.095   0.522   2.478 -1.3431  0.3697 -0.3514
20337SOL     OW63642   2.794   0.159   5.413  0.2076  0.1844 -0.5428
20337SOL    HW163643   2.796   0.235   5.471  1.2369  0.7859 -1.3096
20337SOL    HW263644   2.737   0.186   5.341 -1.1646 -0.6044  0.2183
20338SOL     OW63645   9.611   6.677   4.647  0.0909 -0.8399  0.1660
20338SOL    HW163646   9.686   6.725   4.681 -0.5727  0.3839 -0.0306
20338SOL    HW263647   9.583   6.727   4.571  0.7381 -2.8016 -1.4594
20339SOL     OW63648   0.297   9.905   3.326  0.0167  0.3464 -0.2758
20339SOL    HW163649   0.337   9.859   3.399 -0.8673 -1.1875 -0.7163
20339SOL    HW263650   0.266   9.836   3.268 -1.1962  1.4963 -1.0559
20340SOL     OW63651   3.364   7.036   3.185  0.3109  0.8004  0.1919
20340SOL    HW163652   3.331   6.962   3.235  0.6419  0.5002 -0.0237
20340SOL    HW263653   3.459   7.022   3.182  0.3649  1.1798  0.0645
20341SOL     OW63654   6.218   9.772   8.681 -0.3931 -0.1001  0.1119
20341SOL    HW163655   6.237   9.746   8.771 -1.9771 -2.0232 -0.0364
20341SOL    HW263656   6.301   9.761   8.634  0.4892  1.0661  1.3075
20342SOL     OW63657   7.503   9.616   3.122 -0.1740  0.5144  0.1812
20342SOL    HW163658   7.449   9.645   3.049  1.0076 -2.0216 -1.8317
20342SOL    HW263659   7.585   9.666   3.112 -0.4952  1.1432  0.6131
20343SOL     OW63660   7.216   3.511   5.587 -0.2567 -0.0665 -0.3156
20343SOL    HW163661   7.187   3.448   5.652  0.3886 -1.7062 -1.5418
20343SOL    HW263662   7.304   3.536   5.615 -0.1921 -0.3511 -0.2579
20344SOL     OW63663   1.442   2.185   8.943 -0.4490 -0.4472 -0.2436
20344SOL    HW163664   1.452   2.267   8.895  0.3620 -2.1507 -3.1948
20344SOL    HW263665   1.481   2.119   8.887  0.5627 -2.6812  2.7964
20345SOL     OW63666   0.047   2.836   0.675 -0.6087  0.5499 -0.6524
20345SOL    HW163667   0.102   2.914   0.675  0.6438 -0.1687  2.7040
20345SOL    HW263668   0.102   2.768   0.637 -1.3857  0.9906 -2.7320
20346SOL     OW63669   5.649   0.870   2.271 -0.0454  0.2121  0.0677
20346SOL    HW163670   5.603   0.787   2.260 -0.4110  0.7756 -4.0444
20346SOL    HW263671   5.584   0.929   2.310 -0.3331 -0.8953  1.3290
20347SOL     OW63672   8.241   3.781   6.272  0.2412  0.3011 -0.4412
20347SOL    HW163673   8.248   3.718   6.200  0.4593 -0.8288  0.5385
20347SOL    HW263674   8.152   3.815   6.265  0.4311  0.6160 -1.5558
20348SOL     OW63675   9.594   0.399   8.285  0.1080 -0.3565 -0.3726
20348SOL    HW163676   9.595   0.475   8.227  0.2755 -0.3990 -0.4258
20348SOL    HW263677   9.576   0.435   8.372 -3.4341 -0.5669 -0.8586
20349SOL     OW63678   8.338   8.060   7.211 -0.2456 -0.0289  0.3628
20349SOL    HW163679   8.254   8.016   7.195  0.9847 -2.1126 -0.7154
20349SOL    HW263680   8.323   8.151   7.184 -2.4351 -0.0697  1.2395
20350SOL     OW63681   8.798   2.103   5.579 -0.1888 -0.0207 -0.2704
20350SOL    HW163682   8.720   2.145   5.617  0.5052  0.3842  0.7530
20350SOL    HW263683   8.772   2.082   5.490 -0.8476  1.8500 -0.5724
20351SOL     OW63684   6.873   1.371   9.903 -0.5859 -0.0549  0.1745
20351SOL    HW163685   6.914   1.399   9.821 -0.8968  0.7745  0.2936
20351SOL    HW263686   6.813   1.442   9.926 -0.6096 -0.3419  1.0556
20352SOL     OW63687   2.408   4.297   7.914  0.1742 -0.6156 -0.2086
20352SOL    HW163688   2.362   4.219   7.884 -0.0006  0.1277 -2.0094
20352SOL    HW263689   2.493   4.292   7.871 -0.7355  1.3947 -2.4712
20353SOL     OW63690   8.858   1.727   9.892  0.2401  0.4100 -0.3756
20353SOL    HW163691   8.858   1.823   9.903 -1.2259  0.4323 -0.3045
20353SOL    HW263692   8.771   1.708   9.858  1.1903 -0.7263 -2.2719
20354SOL     OW63693   9.806   5.349   0.834  0.1452  0.0637 -0.0904
20354SOL    HW163694   9.754   5.420   0.797  1.0615  0.5877 -0.4088
20354SOL    HW263695   9.896   5.370   0.809  0.5346 -0.7163  0.6121
20355SOL     OW63696   7.539   8.376   6.213 -0.4809  0.0634  0.2691
20355SOL    HW163697   7.632   8.397   6.208 -0.4732 -0.0616 -0.1910
20355SOL    HW263698   7.504   8.399   6.127 -1.2609  1.8774  1.0298
20356SOL     OW63699   2.647   4.145   4.295 -0.1182 -0.5152 -0.0755
20356SOL    HW163700   2.568   4.104   4.328 -0.1616 -1.3466 -1.1383
20356SOL    HW263701   2.717   4.083   4.316 -0.2719 -1.5457 -2.2651
20357SOL     OW63702   2.371   9.868   6.137 -0.0514 -0.4828  0.6276
20357SOL    HW163703   2.320   9.949   6.141  0.9665  0.1719  0.8067
20357SOL    HW263704   2.403   9.855   6.226 -2.9323 -2.9491  1.4546
20358SOL     OW63705   0.299   6.425   1.482 -0.4411  0.2098 -0.0194
20358SOL    HW163706   0.356   6.484   1.530  1.3894 -2.9616  2.0586
20358SOL    HW263707   0.354   6.389   1.413 -1.5813  0.9517 -1.3751
20359SOL     OW63708   2.711   0.514   3.619  0.5085  0.8016  0.7543
20359SOL    HW163709   2.619   0.520   3.593  0.5845  1.6041  0.6273
20359SOL    HW263710   2.709   0.509   3.714  0.3312  0.7363  0.7470
20360SOL     OW63711   0.741   5.865   8.548 -0.1201  0.5385 -0.2272
20360SOL    HW163712   0.662   5.843   8.499  0.4083 -0.9999 -0.4556
20360SOL    HW263713   0.810   5.870   8.481  0.1542  0.8645  0.0794
20361SOL     OW63714   6.458   3.991   9.912 -0.3825  0.6463  0.6310
20361SOL    HW163715   6.406   4.024   9.985 -1.8466 -0.4473  0.1401
20361SOL    HW263716   6.426   4.040   9.836 -1.0992 -0.3742  0.2448
20362SOL     OW63717   5.888   4.884   4.581  0.0984  0.2138  0.3435
20362SOL    HW163718   5.904   4.923   4.494  0.7538 -0.6394  0.0639
20362SOL    HW263719   5.915   4.793   4.571 -2.0346 -0.5280  0.7900
20363SOL     OW63720   4.791   0.322   3.240 -0.2420 -0.6533 -0.0661
20363SOL    HW163721   4.801   0.416   3.232  2.2418 -0.9233 -0.9498
20363SOL    HW263722   4.782   0.290   3.150 -1.2653 -1.2682  0.2310
20364SOL     OW63723   2.332   4.211   6.249  0.1683  0.4822 -0.0907
20364SOL    HW163724   2.366   4.126   6.224  1.9404  1.4090 -1.0171
20364SOL    HW263725   2.385   4.238   6.324 -1.9290 -0.1748  1.7626
20365SOL     OW63726   3.585   4.557   0.348  0.7306 -0.0463  0.0842
20365SOL    HW163727   3.649   4.518   0.289 -0.0720  0.6329 -1.2838
20365SOL    HW263728   3.500   4.531   0.313  0.2281 -0.3641  1.4726
20366SOL     OW63729   6.522   4.647   8.238 -0.1486  0.3941  0.4364
20366SOL    HW163730   6.456   4.628   8.305  1.1957 -0.0664  1.6928
20366SOL    HW263731   6.605   4.641   8.285  0.8745 -0.3399 -1.3750
20367SOL     OW63732   8.859   3.432   4.267 -0.2601  0.5950 -0.6623
20367SOL    HW163733   8.894   3.426   4.356  2.7178 -1.8409 -1.8271
20367SOL    HW263734   8.935   3.454   4.213 -0.9798 -2.1993 -3.0516
20368SOL     OW63735   9.393   1.580   0.931 -0.3159 -0.2070 -0.2691
20368SOL    HW163736   9.363   1.561   0.842 -0.5075  2.4673 -0.8554
20368SOL    HW263737   9.313   1.585   0.983 -0.4968  1.1830 -0.6270
20369SOL     OW63738   8.870   0.767  10.314 -0.7363  0.5107 -0.5858
20369SOL    HW163739   8.917   0.815  10.382 -0.3148  1.4755 -1.5228
20369SOL    HW263740   8.938   0.719  10.267 -1.2821 -2.3991  1.2917
20370SOL     OW63741   7.373   9.553   3.350  0.3702  0.2559  0.3313
20370SOL    HW163742   7.399   9.563   3.259 -0.3347 -0.2201  0.0683
20370SOL    HW263743   7.335   9.638   3.374 -0.7777 -0.0700 -0.2739
20371SOL     OW63744   7.657   2.985   2.891 -0.0802  0.1645  0.0081
20371SOL    HW163745   7.643   3.049   2.961 -0.3235 -1.0271  1.0917
20371SOL    HW263746   7.577   2.932   2.891 -0.3885  0.5902 -1.6846
20372SOL     OW63747   7.665   0.385   8.336 -0.3019  0.5096 -0.2988
20372SOL    HW163748   7.616   0.303   8.322 -0.5906  0.8396 -1.2891
20372SOL    HW263749   7.622   0.426   8.411  0.1190 -0.4473  0.4903
20373SOL     OW63750   3.829   9.671   8.386  1.0049  0.2307  0.3619
20373SOL    HW163751   3.847   9.610   8.315  0.0532  2.1258 -1.6027
20373SOL    HW263752   3.819   9.615   8.463 -1.7149 -2.3556 -1.6109
20374SOL     OW63753   5.753   8.220   9.640  0.3380  0.0799 -0.3053
20374SOL    HW163754   5.823   8.276   9.672  1.0876 -0.9718 -0.0234
20374SOL    HW263755   5.762   8.222   9.545 -1.1177  2.2416 -0.4552
20375SOL     OW63756   8.093   0.204   6.718  0.3516 -0.4750  0.3310
20375SOL    HW163757   8.152   0.279   6.733  0.2002  0.1848 -2.0564
20375SOL    HW263758   8.006   0.241   6.729  0.3085 -0.7982  1.1214
20376SOL     OW63759   2.843   7.967   0.484 -0.0600  0.2880  0.0106
20376SOL    HW163760   2.859   8.058   0.459 -2.0443 -0.0106 -2.7293
20376SOL    HW263761   2.887   7.958   0.569  0.0439  3.8246  0.4893
20377SOL     OW63762   4.963   1.368   2.187 -0.2834 -0.2147  0.2605
20377SOL    HW163763   5.047   1.321   2.183 -0.1521  0.0944 -1.7796
20377SOL    HW263764   4.911   1.320   2.252  1.5043 -0.3093  1.7179
20378SOL     OW63765   0.127   1.162  10.096  0.1356  0.0341 -0.3832
20378SOL    HW163766   0.193   1.116  10.045  1.3598  0.6641  0.5766
20378SOL    HW263767   0.066   1.094  10.125  1.9056 -1.0418  1.0311
20379SOL     OW63768   3.723   3.945   0.425 -0.3496  0.3234  0.0233
20379SOL    HW163769   3.699   3.864   0.469 -0.9520  1.3978  1.7836
20379SOL    HW263770   3.812   3.930   0.394 -0.2295 -0.7967  0.8459
20380SOL     OW63771   2.185   7.115   6.339  0.0217 -0.6552  0.0146
20380SOL    HW163772   2.235   7.115   6.257  1.0588 -2.0775  0.6011
20380SOL    HW263773   2.094   7.101   6.312  0.4664 -2.0459 -0.8556
20381SOL     OW63774   9.260   8.241   9.964 -0.8292  0.1354 -0.4462
20381SOL    HW163775   9.295   8.188   9.892 -0.3833 -0.3767  0.1334
20381SOL    HW263776   9.215   8.178  10.020 -0.2434  0.3464  0.2784
20382SOL     OW63777   7.451   5.569   3.455 -0.4766 -0.3160  0.0036
20382SOL    HW163778   7.518   5.529   3.400  0.1063 -1.3799  1.4203
20382SOL    HW263779   7.456   5.520   3.537 -2.7347 -0.1817  0.2787
20383SOL     OW63780   7.534  10.112   6.501  0.1503 -0.1069  0.1237
20383SOL    HW163781   7.495  10.161   6.573 -0.9137 -0.1386 -0.4030
20383SOL    HW263782   7.615  10.159   6.481  0.2730  0.1100  1.0938
20384SOL     OW63783   2.065  10.119   9.180  0.7670  0.3714  0.4968
20384SOL    HW163784   2.102  10.207   9.184  0.5082  0.4998  0.1165
20384SOL    HW263785   2.106  10.080   9.103 -0.9629  1.0178 -0.7946
20385SOL     OW63786   7.559   1.137   4.549  0.1844 -0.3763 -0.5623
20385SOL    HW163787   7.551   1.157   4.643 -1.0584 -1.5361 -0.3923
20385SOL    HW263788   7.566   1.042   4.546  0.5992 -0.3179 -1.6400
20386SOL     OW63789   9.998   8.594   3.483  0.5142  0.0913 -0.2201
20386SOL    HW163790   9.987   8.687   3.460 -0.6574 -0.4276 -1.9627
20386SOL    HW263791  10.075   8.566   3.434  2.4073  0.6552  2.2106
20387SOL     OW63792   0.217   2.248   6.520  0.0688  0.5511  0.1386
20387SOL    HW163793   0.146   2.198   6.560  0.4493  0.1059  0.2663
20387SOL    HW263794   0.279   2.262   6.591  0.8568 -0.4408 -0.3407
20388SOL     OW63795   8.464   6.258   7.641  0.2586 -0.6912 -0.0200
20388SOL    HW163796   8.421   6.284   7.560 -0.0372  0.3021  0.4414
20388SOL    HW263797   8.421   6.177   7.666  0.3791 -1.0267 -0.8720
20389SOL     OW63798   3.176   8.087   3.271  0.1801  0.0599 -0.4539
20389SOL    HW163799   3.201   8.023   3.204  1.5523 -0.2886  0.3555
20389SOL    HW263800   3.234   8.068   3.344  0.2929  1.9660 -0.0207
20390SOL     OW63801   3.299   0.245   3.847  0.0875  0.3083 -0.0488
20390SOL    HW163802   3.315   0.318   3.907 -0.9043  0.9002 -0.4855
20390SOL    HW263803   3.365   0.255   3.779  0.5818  0.2158  0.4117
20391SOL     OW63804   0.699   6.590   3.804 -0.3191 -0.1028 -0.7533
20391SOL    HW163805   0.729   6.565   3.717 -0.9439  0.5020 -1.1543
20391SOL    HW263806   0.688   6.507   3.851  0.3877 -0.4088 -1.1226
20392SOL     OW63807   2.292   2.184   9.990 -0.3371  0.3629  0.3100
20392SOL    HW163808   2.256   2.263  10.030  2.7814  1.0156  2.1500
20392SOL    HW263809   2.335   2.215   9.910 -2.0579 -0.0962 -0.8337
20393SOL     OW63810   0.942   3.061   3.885 -0.1950  0.0229 -0.1718
20393SOL    HW163811   1.007   3.084   3.818 -0.4273  0.2640 -0.3170
20393SOL    HW263812   0.951   3.129   3.952 -1.0861  0.7177 -0.7423
20394SOL     OW63813   4.641   9.283   4.282 -0.3320 -0.1170 -0.2398
20394SOL    HW163814   4.681   9.196   4.282  0.2269  0.1075 -2.1530
20394SOL    HW263815   4.551   9.268   4.312  0.5125 -0.9166  2.1393
20395SOL     OW63816  10.170   9.555   2.883  0.1434 -0.5662  0.5205
20395SOL    HW163817  10.197   9.511   2.964  0.7685 -0.6542  0.2688
20395SOL    HW263818  10.099   9.614   2.910  0.1197 -0.8426  1.0708
20396SOL     OW63819   0.353   1.558   4.036  0.2628 -1.0976 -0.2620
20396SOL    HW163820   0.263   1.551   4.069  0.1168 -0.3292 -0.4871
20396SOL    HW263821   0.343   1.556   3.941  0.4830 -0.9736 -0.2870
20397SOL     OW63822   0.039   3.020   4.707 -0.1191 -0.2556 -0.9267
20397SOL    HW163823   0.135   3.021   4.704 -0.1022 -1.3869 -1.1562
20397SOL    HW263824   0.014   3.111   4.692  0.9179  0.0411 -0.9335
20398SOL     OW63825   3.225   5.264   7.488  0.3933 -0.6886 -0.2440
20398SOL    HW163826   3.290   5.193   7.486  1.2456  0.0388  0.6672
20398SOL    HW263827   3.230   5.299   7.577 -2.1983 -1.4462  0.2908
20399SOL     OW63828   3.621   0.474   9.705 -0.0335  0.2450  0.5054
20399SOL    HW163829   3.578   0.558   9.693 -0.5722 -0.1208 -0.2050
20399SOL    HW263830   3.559   0.410   9.670  0.8990 -0.3311 -0.1502
20400SOL     OW63831   5.343   1.946   1.510 -0.1793  0.0718 -0.0531
20400SOL    HW163832   5.332   2.039   1.490  1.0133 -0.1830 -2.1488
20400SOL    HW263833   5.421   1.942   1.565 -0.3640  0.3188  0.2316
20401SOL     OW63834  10.194   0.244   2.199 -0.4503  0.0901  0.0194
20401SOL    HW163835  10.207   0.319   2.142  0.5681  0.4095  0.6497
20401SOL    HW263836  10.140   0.277   2.271 -0.1135  0.1933  0.2278
20402SOL     OW63837   1.524   0.752   2.574 -0.0604  0.3813 -0.5139
20402SOL    HW163838   1.593   0.691   2.550  0.3655  0.1068  1.2481
20402SOL    HW263839   1.570   0.833   2.596 -0.3504  0.4056  0.0160
20403SOL     OW63840   7.568   6.864   5.297 -0.0335 -0.4004  0.2794
20403SOL    HW163841   7.635   6.825   5.241  2.9555  0.9141  2.6539
20403SOL    HW263842   7.567   6.957   5.273 -2.1811 -0.6123 -0.7073
20404SOL     OW63843   4.869   5.483   8.016  0.3737 -0.7672  0.1299
20404SOL    HW163844   4.827   5.542   8.079 -1.0876 -0.9970 -0.5847
20404SOL    HW263845   4.901   5.541   7.946  0.0312 -0.7100  0.0197
20405SOL     OW63846   9.145   8.025   8.263  0.2063 -0.2495 -0.5731
20405SOL    HW163847   9.055   8.030   8.230  0.9522  0.4299 -2.7028
20405SOL    HW263848   9.171   8.117   8.275  0.7613 -0.4222 -0.4101
20406SOL     OW63849   3.462   0.984   1.174  0.9888 -0.7522  0.2900
20406SOL    HW163850   3.398   1.050   1.202  0.0746 -1.5095  0.0127
20406SOL    HW263851   3.439   0.906   1.224  1.5078 -1.1242 -0.0439
20407SOL     OW63852   8.205   1.668   4.732 -0.0914 -0.0053 -0.7076
20407SOL    HW163853   8.232   1.749   4.687  1.8401  0.2600  0.8048
20407SOL    HW263854   8.161   1.699   4.811 -1.6712 -0.4860 -1.3468
20408SOL     OW63855   3.649   0.758   6.297  0.0088  0.0298 -0.4792
20408SOL    HW163856   3.668   0.673   6.337 -1.5400  0.4197  1.2543
20408SOL    HW263857   3.680   0.822   6.362 -0.6558  0.7386 -0.8438
20409SOL     OW63858   9.308   4.973   0.604 -0.3112  0.1672 -0.3800
20409SOL    HW163859   9.338   5.037   0.668 -1.7377  0.3444  0.1490
20409SOL    HW263860   9.254   4.912   0.654 -2.1415  0.7760 -1.4990
20410SOL     OW63861   7.310   5.899   6.349 -0.1430 -0.6551  0.4244
20410SOL    HW163862   7.394   5.942   6.367 -1.5529  2.5928 -0.1056
20410SOL    HW263863   7.324   5.852   6.267  0.9844  0.4475 -0.0506
20411SOL     OW63864   5.872   1.547   1.399 -0.3376 -0.4633  0.3139
20411SOL    HW163865   5.942   1.502   1.446 -1.0287 -0.7331  1.1053
20411SOL    HW263866   5.842   1.483   1.334  0.7121 -0.0394 -0.6345
20412SOL     OW63867   0.016   3.010   6.075 -0.2956 -0.3366 -0.6014
20412SOL    HW163868  -0.052   2.944   6.088 -0.3265 -0.2004 -0.0865
20412SOL    HW263869  -0.029   3.082   6.030 -0.9108  0.4714  1.2185
20413SOL     OW63870   9.134   9.877   8.993 -0.8728 -0.1437 -0.5218
20413SOL    HW163871   9.210   9.915   9.037 -0.4335 -0.2728 -1.1659
20413SOL    HW263872   9.069   9.866   9.063 -0.2288 -0.2207  0.0711
20414SOL     OW63873   4.884   7.970   4.362 -0.0312  0.0279  0.4870
20414SOL    HW163874   4.905   7.991   4.454 -1.2836 -0.3450  0.8791
20414SOL    HW263875   4.967   7.981   4.316  0.0587  3.0304  1.1380
20415SOL     OW63876   7.533   8.659   7.351 -0.2439  0.3930  0.8096
20415SOL    HW163877   7.485   8.705   7.281  1.8423 -0.6424 -1.4643
20415SOL    HW263878   7.478   8.583   7.372 -0.4442  0.1486 -0.5035
20416SOL     OW63879   1.216   7.918   1.462  0.0904 -0.7087  0.1906
20416SOL    HW163880   1.132   7.872   1.458 -1.0671  1.3382 -1.2427
20416SOL    HW263881   1.204   7.995   1.406  3.0039 -0.4080 -0.1793
20417SOL     OW63882   0.832   2.665   0.191  0.4718  0.1985 -0.1785
20417SOL    HW163883   0.815   2.666   0.285 -0.4239  0.1280 -0.3248
20417SOL    HW263884   0.769   2.728   0.155  1.0826  0.5244 -0.6876
20418SOL     OW63885   3.804   6.200   9.788 -0.0661 -0.2554 -0.1282
20418SOL    HW163886   3.807   6.145   9.710  0.0452  0.6732 -0.7821
20418SOL    HW263887   3.717   6.183   9.825 -0.7087  0.4250 -1.2827
20419SOL     OW63888   6.283   3.616   9.203  0.4054  0.6763 -0.3978
20419SOL    HW163889   6.216   3.621   9.271  1.1136 -0.2253  0.3973
20419SOL    HW263890   6.339   3.692   9.217 -0.4265  1.4332 -1.0660
20420SOL     OW63891   5.263   4.691   2.803 -0.2041  0.6346  0.0292
20420SOL    HW163892   5.357   4.690   2.782 -0.0918  1.6478  0.4148
20420SOL    HW263893   5.220   4.693   2.718  0.1583  1.1599 -0.1507
20421SOL     OW63894   9.712   2.767   3.802 -0.5793  0.0391 -0.0935
20421SOL    HW163895   9.757   2.768   3.887  1.7876 -0.6757 -1.2512
20421SOL    HW263896   9.639   2.708   3.815  0.4452 -1.0205  1.1429
20422SOL     OW63897   5.640   9.071   8.309 -0.2062 -0.4590  0.2262
20422SOL    HW163898   5.667   9.034   8.393 -0.5704 -1.5314 -0.1005
20422SOL    HW263899   5.633   9.165   8.325 -1.4679 -0.7592  1.7451
20423SOL     OW63900   5.583   3.496   7.696  0.7205  0.3323 -0.0945
20423SOL    HW163901   5.579   3.432   7.625 -0.6829  0.5430 -0.2256
20423SOL    HW263902   5.593   3.580   7.651  3.1381  0.2092  0.0930
20424SOL     OW63903   3.225   7.318   3.218 -0.3539 -0.1534 -0.1140
20424SOL    HW163904   3.285   7.373   3.167 -1.1981  1.6618  0.7403
20424SOL    HW263905   3.268   7.233   3.223  1.6812  0.8092 -0.3401
20425SOL     OW63906   1.470   3.837   9.906  0.4509 -0.3784  0.4498
20425SOL    HW163907   1.493   3.779   9.834  1.3131  0.1802  0.2666
20425SOL    HW263908   1.473   3.925   9.869 -2.1357 -0.2279  0.3780
20426SOL     OW63909   8.406   3.051   4.990 -0.2577 -0.0693  0.5397
20426SOL    HW163910   8.319   3.016   4.971 -0.4071 -0.4410  1.8334
20426SOL    HW263911   8.414   3.127   4.932 -0.7405 -1.0309 -0.8341
20427SOL     OW63912   4.044   7.556   7.351 -0.2373 -0.4671 -0.0617
20427SOL    HW163913   4.102   7.552   7.427 -0.0346 -0.4630 -0.2136
20427SOL    HW263914   3.957   7.536   7.385  0.0221 -1.6016 -0.0229
20428SOL     OW63915   7.852   6.215   3.216 -0.9276  0.0558 -0.1161
20428SOL    HW163916   7.899   6.132   3.223 -1.2291 -0.2817 -1.6085
20428SOL    HW263917   7.762   6.193   3.239 -1.0518 -0.0894 -0.7275
20429SOL     OW63918   3.504   6.284   8.999 -0.2619 -0.8605 -0.1203
20429SOL    HW163919   3.476   6.207   9.048  0.5293 -0.9011  0.2820
20429SOL    HW263920   3.514   6.353   9.065  1.2809 -1.0469 -0.1284
20430SOL     OW63921   6.592   2.183   0.229 -0.0762  0.3141 -0.5801
20430SOL    HW163922   6.539   2.155   0.154  0.4451 -0.0448 -0.8167
20430SOL    HW263923   6.673   2.134   0.221  0.1893  0.6595 -0.0629
20431SOL     OW63924   9.677   3.202   2.409  0.0708 -0.3974  0.5187
20431SOL    HW163925   9.656   3.200   2.502 -2.4110  0.5924  0.0508
20431SOL    HW263926   9.647   3.288   2.380  2.7069  0.1784 -0.8330
20432SOL     OW63927   4.342   8.594   9.899 -0.4280  0.3429 -0.0514
20432SOL    HW163928   4.287   8.601   9.977 -0.6017  1.0400 -0.2283
20432SOL    HW263929   4.286   8.624   9.827 -0.6874 -1.4840 -0.6528
20433SOL     OW63930   7.340   6.787   2.227 -0.2353 -0.3834  0.1235
20433SOL    HW163931   7.323   6.857   2.163  2.3400  1.6058  1.4361
20433SOL    HW263932   7.403   6.729   2.183 -0.4551 -0.4965 -0.0484
20434SOL     OW63933   1.225   3.783   0.514  0.3058 -0.6485 -0.3186
20434SOL    HW163934   1.272   3.853   0.559 -1.0806  0.7647 -0.9769
20434SOL    HW263935   1.294   3.730   0.475  1.4115  0.1026  0.5383
20435SOL     OW63936   1.820   3.047   2.538  0.2947  0.1936 -0.2590
20435SOL    HW163937   1.735   3.008   2.557  0.1505  0.0327 -1.2110
20435SOL    HW263938   1.802   3.118   2.476  0.8110  0.4280 -0.1563
20436SOL     OW63939   7.778   5.695   9.698  0.3207  0.3990 -0.4105
20436SOL    HW163940   7.844   5.628   9.716 -1.2355 -1.2425 -0.5642
20436SOL    HW263941   7.778   5.705   9.603 -1.0748 -1.2044 -0.6320
20437SOL     OW63942   9.669   9.450   3.896  0.1722  0.5517 -0.0466
20437SOL    HW163943   9.610   9.525   3.889 -0.3240  0.5281  2.7147
20437SOL    HW263944   9.611   9.374   3.893  0.3135  0.4255  0.3949
20438SOL     OW63945   4.259   2.058   5.712 -0.0883  0.0580  0.4443
20438SOL    HW163946   4.331   2.022   5.662 -0.9747  0.7864 -1.4315
20438SOL    HW263947   4.235   1.988   5.773  0.6064 -1.0961 -0.5780
20439SOL     OW63948   8.596   5.488   3.040 -0.2591  0.6572  0.5624
20439SOL    HW163949   8.526   5.542   3.005  0.1843 -0.2250 -1.9307
20439SOL    HW263950   8.559   5.400   3.043  0.5784  0.2544 -0.3828
20440SOL     OW63951   2.869   0.349   2.206  0.1211 -0.0415 -0.3106
20440SOL    HW163952   2.789   0.316   2.167 -1.2149  2.7774 -0.1569
20440SOL    HW263953   2.914   0.395   2.135  1.6931 -1.5834 -0.4036
20441SOL     OW63954   0.703   0.181   7.262  0.5724  0.0225 -0.4327
20441SOL    HW163955   0.752   0.186   7.180  0.8973 -0.0553 -0.2470
20441SOL    HW263956   0.708   0.269   7.299  1.1679 -0.1537 -0.0785
20442SOL     OW63957   0.496   5.146   6.411  0.1392  0.0027  0.1796
20442SOL    HW163958   0.428   5.095   6.455 -0.4530  1.3351  0.8597
20442SOL    HW263959   0.493   5.117   6.320 -0.6862 -0.6330  0.4003
20443SOL     OW63960   0.049   6.418   3.683 -0.0313 -0.3436  0.2308
20443SOL    HW163961   0.080   6.435   3.772 -1.1634 -1.5507  0.8756
20443SOL    HW263962   0.017   6.328   3.685  0.9462 -0.7866 -1.7092
20444SOL     OW63963   3.428   7.250  10.149 -0.9323  0.4191  0.0051
20444SOL    HW163964   3.373   7.173  10.137 -1.0257  0.4059  0.5196
20444SOL    HW263965   3.472   7.236  10.233 -0.6574  0.7450 -0.0806
20445SOL     OW63966   6.442   0.789   8.510  0.1718  0.0734 -0.4577
20445SOL    HW163967   6.354   0.825   8.495  0.1635  0.6813  0.8968
20445SOL    HW263968   6.426   0.700   8.540  0.1825 -1.0962 -3.5856
20446SOL     OW63969   1.694   6.683   5.020 -0.5951 -0.0467 -0.3358
20446SOL    HW163970   1.774   6.650   4.980  0.2502 -0.0163  1.2295
20446SOL    HW263971   1.661   6.749   4.959  1.9160  1.7063  0.0453
20447SOL     OW63972   9.623   7.855   9.343 -0.0169  0.0500 -0.3894
20447SOL    HW163973   9.553   7.799   9.312 -0.0573 -1.0458  1.5015
20447SOL    HW263974   9.698   7.834   9.288 -0.9000  0.5981 -1.8506
20448SOL     OW63975   6.593   5.132   6.309 -0.6095  0.4474 -0.7083
20448SOL    HW163976   6.631   5.173   6.387  2.3040  0.0049 -1.7823
20448SOL    HW263977   6.653   5.154   6.238  0.2623 -4.1235 -1.6971
20449SOL     OW63978   8.740   9.935   0.649  0.0049 -0.2655 -0.5639
20449SOL    HW163979   8.694   9.861   0.608 -0.0733 -0.1096 -0.7575
20449SOL    HW263980   8.784   9.979   0.577  0.5458 -0.4687 -0.3705
20450SOL     OW63981   7.414   3.178   1.142 -0.0599 -0.0484  0.0945
20450SOL    HW163982   7.343   3.175   1.206  1.6036 -2.3261  2.0064
20450SOL    HW263983   7.482   3.231   1.183  0.4625 -0.2813 -0.4512
20451SOL     OW63984   9.023   8.228   4.566 -0.2047 -0.4944 -0.4848
20451SOL    HW163985   9.097   8.174   4.594 -2.4545 -2.9391  1.2196
20451SOL    HW263986   9.025   8.223   4.470  0.5765 -2.4046 -0.4163
20452SOL     OW63987   0.696   6.421   3.331  0.5764  0.1390 -0.4200
20452SOL    HW163988   0.696   6.329   3.304  0.2631 -0.2711  0.8982
20452SOL    HW263989   0.605   6.438   3.356  0.2002  1.3919 -2.4564
20453SOL     OW63990   8.825   3.651   3.352 -0.2684 -0.3698 -0.1547
20453SOL    HW163991   8.775   3.698   3.286 -0.1425  0.2702  0.1939
20453SOL    HW263992   8.855   3.572   3.308 -0.4882 -0.1237 -0.7557
20454SOL     OW63993   1.989   7.315   6.038  0.7267 -0.0313  0.0758
20454SOL    HW163994   2.026   7.283   5.956 -2.6013 -1.9143 -0.8882
20454SOL    HW263995   1.973   7.236   6.090  0.4814  0.9130  1.5140
20455SOL     OW63996   3.155   1.557   2.419 -0.5225  0.5308 -0.2685
20455SOL    HW163997   3.234   1.599   2.453 -0.3968  0.1390 -0.0704
20455SOL    HW263998   3.181   1.519   2.335 -0.5659  0.6248 -0.3241
20456SOL     OW63999   0.267   0.690   6.242  0.5576 -0.1592 -0.0160
20456SOL    HW164000   0.361   0.676   6.246  1.0306  2.5986  0.6228
20456SOL    HW264001   0.257   0.785   6.228 -2.1126 -0.6992 -2.8191
20457SOL     OW64002   7.865   0.621   4.130  0.0243  0.5596  0.2331
20457SOL    HW164003   7.943   0.671   4.106  1.0216 -0.4060  1.3553
20457SOL    HW264004   7.798   0.651   4.068  1.9713 -0.5884 -2.6290
20458SOL     OW64005   5.454   9.394   0.637 -0.3306  0.5923  0.3958
20458SOL    HW164006   5.371   9.360   0.604 -0.3932  0.2625  0.8820
20458SOL    HW264007   5.462   9.357   0.725  1.9703 -2.2596 -0.8337
20459SOL     OW64008   3.054   8.520   6.644  0.0264 -0.0162 -0.0543
20459SOL    HW164009   2.981   8.461   6.622  0.1192 -0.0263 -0.3334
20459SOL    HW264010   3.121   8.463   6.679 -0.2041  0.0261  0.4693
20460SOL     OW64011   7.262   0.886   5.459  0.7146 -0.1961 -0.2630
20460SOL    HW164012   7.309   0.959   5.419  0.2364 -0.1644 -0.7816
20460SOL    HW264013   7.309   0.869   5.540  0.8199  0.7096 -0.1179
20461SOL     OW64014   9.107   5.087   8.042 -0.3754  0.7755 -0.2549
20461SOL    HW164015   9.197   5.086   8.009  0.2650  0.3199  1.4238
20461SOL    HW264016   9.053   5.075   7.963  1.0507  0.3527 -1.2090
20462SOL     OW64017   0.261   9.275  10.270  0.0157 -0.0850  0.2597
20462SOL    HW164018   0.280   9.314  10.355 -3.1898 -0.5548  1.3038
20462SOL    HW264019   0.232   9.349  10.216 -0.7128 -0.1910  0.4976
20463SOL     OW64020   1.913   0.125   1.339 -0.0850  0.4352  0.0572
20463SOL    HW164021   1.957   0.191   1.286  0.9561  0.2980  0.7130
20463SOL    HW264022   1.840   0.171   1.380 -0.5335  0.6882 -0.9928
20464SOL     OW64023   9.233   6.433   6.811 -0.1175  0.3545 -0.0505
20464SOL    HW164024   9.151   6.466   6.773 -0.0095  0.2934 -0.3390
20464SOL    HW264025   9.205   6.390   6.892  0.0581  3.8324  2.0656
20465SOL     OW64026   9.234   3.811   7.111  0.2576  0.4148  0.1404
20465SOL    HW164027   9.203   3.878   7.172 -0.0872 -0.1991  0.6507
20465SOL    HW264028   9.294   3.858   7.053  1.2543  0.8575  1.4724
20466SOL     OW64029   1.063   3.353   9.937  0.1784 -0.0317 -0.2634
20466SOL    HW164030   1.087   3.263   9.959 -3.7071 -1.1390  0.1674
20466SOL    HW264031   1.105   3.406  10.004  1.7168 -1.5828  0.0797
20467SOL     OW64032   0.627   3.851   6.404  0.0056 -0.5454  0.2714
20467SOL    HW164033   0.668   3.919   6.351  1.8818 -1.2079  0.7880
20467SOL    HW264034   0.540   3.885   6.423  0.6117  1.3729 -0.1153
20468SOL     OW64035   9.053   1.209   1.697 -0.2162  0.3134 -0.2791
20468SOL    HW164036   9.096   1.245   1.619 -0.1628 -1.1010 -0.9313
20468SOL    HW264037   9.101   1.128   1.715 -1.3249 -0.2551  0.2024
20469SOL     OW64038   2.578   4.456   2.991  0.0192 -0.3805  0.7199
20469SOL    HW164039   2.636   4.525   3.024 -0.5224 -0.1144  1.1402
20469SOL    HW264040   2.573   4.472   2.897  2.4007 -1.7624  0.2783
20470SOL     OW64041  10.322   4.881   5.873  0.1378  0.7767  0.3401
20470SOL    HW164042  10.330   4.859   5.966 -1.1474 -1.2706  0.0365
20470SOL    HW264043  10.228   4.877   5.855  0.1206  3.3884 -0.6095
20471SOL     OW64044   9.092   1.603   3.864  0.6396 -0.3738 -0.3476
20471SOL    HW164045   9.097   1.683   3.916 -1.9459 -0.2448 -0.1665
20471SOL    HW264046   9.116   1.631   3.776  1.3257  0.2202  0.0061
20472SOL     OW64047   1.603   7.130   7.471 -0.0774  0.2618  0.0264
20472SOL    HW164048   1.604   7.079   7.552  0.5417  0.7243  0.3096
20472SOL    HW264049   1.510   7.133   7.446 -0.1590 -0.7285  0.1761
20473SOL     OW64050   7.220   3.875   5.709 -0.7098  0.6059 -0.8258
20473SOL    HW164051   7.174   3.826   5.776 -0.4528  1.2551 -0.1578
20473SOL    HW264052   7.194   3.834   5.627 -1.0568 -0.1778 -0.3353
20474SOL     OW64053   8.228   5.513   9.461 -0.3325  0.4742 -0.1511
20474SOL    HW164054   8.157   5.457   9.491 -0.9606 -0.4860 -3.0772
20474SOL    HW264055   8.186   5.597   9.442 -0.0087  0.9586  1.1651
20475SOL     OW64056   1.602   6.726   0.356 -0.7187 -0.0223 -0.4145
20475SOL    HW164057   1.619   6.820   0.363  0.4967 -0.1525 -1.2801
20475SOL    HW264058   1.538   6.718   0.286 -1.8969  0.2472  0.6135
20476SOL     OW64059   2.756   1.860   0.933  0.5351  0.4548 -0.4389
20476SOL    HW164060   2.677   1.848   0.986  0.5143  1.2307 -0.2758
20476SOL    HW264061   2.728   1.847   0.843 -0.0591  1.9004 -0.4902
20477SOL     OW64062   1.351   0.020   1.718 -0.1759 -0.3988 -0.6707
20477SOL    HW164063   1.307  -0.064   1.704 -1.4655  0.1698 -0.2685
20477SOL    HW264064   1.327   0.072   1.641 -0.5196  0.0406 -0.2711
20478SOL     OW64065   4.460  10.180  10.302  0.2476 -0.2947  0.2500
20478SOL    HW164066   4.439  10.217  10.216 -1.0334 -0.7219  0.3542
20478SOL    HW264067   4.474  10.255  10.358 -1.3290  0.0592  0.2251
20479SOL     OW64068   0.157   2.066   3.531  0.0825  0.0793 -0.1277
20479SOL    HW164069   0.200   2.123   3.466 -2.2088  1.0090 -0.9249
20479SOL    HW264070   0.153   2.119   3.610 -1.4335  0.8338 -0.6727
20480SOL     OW64071   7.831   4.536   1.652 -0.4736 -0.2547 -0.2138
20480SOL    HW164072   7.889   4.462   1.637 -0.5886 -0.2236 -0.8011
20480SOL    HW264073   7.890   4.607   1.680  0.1094  0.4948 -3.0946
20481SOL     OW64074   2.449   9.140   8.297 -0.4969 -0.4268  0.3093
20481SOL    HW164075   2.465   9.120   8.389  0.1161 -0.2499  0.2460
20481SOL    HW264076   2.355   9.127   8.286 -0.4581 -1.1964  0.7747
20482SOL     OW64077   8.612   4.757   4.446  0.0302 -0.3160  0.5050
20482SOL    HW164078   8.589   4.738   4.537  1.1487 -0.1947  0.8336
20482SOL    HW264079   8.694   4.709   4.431  1.9658  2.6248  0.7943
20483SOL     OW64080  10.331   1.961   8.746  0.9205 -0.4716  0.1587
20483SOL    HW164081  10.251   1.924   8.784 -0.0626  1.1022 -0.2586
20483SOL    HW264082  10.358   1.897   8.680  0.1960 -1.2020  0.5600
20484SOL     OW64083   3.612   7.988   9.438 -0.4636 -0.2133 -0.4713
20484SOL    HW164084   3.645   7.899   9.446  0.4111  0.2621  1.8190
20484SOL    HW264085   3.520   7.982   9.466 -0.3903 -0.3901 -0.2671
20485SOL     OW64086   8.063   6.474   1.203 -0.2802 -0.1161 -0.2745
20485SOL    HW164087   8.037   6.383   1.188  0.1542 -1.2394  4.3195
20485SOL    HW264088   8.138   6.487   1.144 -1.2385 -2.1780 -2.0891
20486SOL     OW64089   0.352   6.061   5.309 -0.0409  0.5918  0.3893
20486SOL    HW164090   0.311   6.145   5.328 -1.2880  0.2252 -0.5162
20486SOL    HW264091   0.314   6.000   5.372 -0.4791  0.3580 -0.0977
20487SOL     OW64092   9.092   2.878   3.066 -0.1919  0.1607 -0.0824
20487SOL    HW164093   9.181   2.843   3.058  0.4104  1.2999  1.1027
20487SOL    HW264094   9.085   2.943   2.996 -0.4534 -0.6252 -0.7911
20488SOL     OW64095   1.839   2.319   3.728  0.0426 -1.2218 -0.0451
20488SOL    HW164096   1.788   2.262   3.785 -0.2957 -1.0328 -0.1520
20488SOL    HW264097   1.828   2.406   3.765  1.9244 -1.4227  1.1011
20489SOL     OW64098   6.005   4.825   9.476  0.3159 -0.2537 -0.0971
20489SOL    HW164099   6.062   4.876   9.533  0.4212 -1.4243  0.8787
20489SOL    HW264100   5.923   4.875   9.473 -0.2077 -0.8297  2.2676
20490SOL     OW64101   9.065   2.767   7.200  0.4504  0.0937  0.5127
20490SOL    HW164102   9.027   2.695   7.149 -1.0333  0.8213  0.5339
20490SOL    HW264103   8.994   2.831   7.206  1.8937  1.8082  0.0172
20491SOL     OW64104   8.328   4.034   5.474  0.2606  0.4540 -0.2632
20491SOL    HW164105   8.318   3.988   5.391 -0.1073  0.6037 -0.3051
20491SOL    HW264106   8.420   4.021   5.498  0.5304  0.9267 -1.0031
20492SOL     OW64107   7.954   4.917   1.197 -0.1798 -0.0338 -0.4327
20492SOL    HW164108   8.008   4.918   1.276  0.0992 -0.3643 -0.6131
20492SOL    HW264109   7.989   4.844   1.145  1.3821  1.7418 -2.0606
20493SOL     OW64110   3.944   1.357   3.033  0.6461 -0.0787 -0.2869
20493SOL    HW164111   3.892   1.399   3.101  0.0549 -0.4275 -0.5176
20493SOL    HW264112   3.940   1.264   3.053 -1.5537 -0.4801 -2.1150
20494SOL     OW64113   2.213   2.590   6.850  0.5965 -0.5195  0.2891
20494SOL    HW164114   2.277   2.626   6.788 -0.2306 -0.1280 -0.3489
20494SOL    HW264115   2.230   2.638   6.931 -0.3528  1.2328 -0.4886
20495SOL     OW64116  10.020   5.302   8.114 -0.1154  0.1380 -0.2494
20495SOL    HW164117  10.109   5.311   8.149 -0.1057  1.2404 -0.5027
20495SOL    HW264118  10.029   5.321   8.021 -0.4536 -0.8576 -0.4979
20496SOL     OW64119   0.012   3.124   1.864 -0.2937 -0.5000 -0.0156
20496SOL    HW164120   0.035   3.217   1.864 -3.4498  0.3987 -0.5164
20496SOL    HW264121  -0.080   3.122   1.889 -0.6008 -3.4355 -0.9840
20497SOL     OW64122   3.028   0.404   7.854 -0.0761 -0.1537 -0.3692
20497SOL    HW164123   3.090   0.369   7.789 -1.6836  0.7015 -2.4893
20497SOL    HW264124   2.943   0.368   7.828 -1.0041  1.4460  0.3395
20498SOL     OW64125   1.770   5.440   4.036 -0.0808  0.3788  0.0091
20498SOL    HW164126   1.743   5.379   3.968  1.8125  0.6172 -1.0449
20498SOL    HW264127   1.809   5.385   4.104  3.9902  0.2944 -2.0445
20499SOL     OW64128   5.006   4.521   2.220  0.3795  0.6178  0.9089
20499SOL    HW164129   5.004   4.617   2.220  0.2238  0.6206  0.1766
20499SOL    HW264130   4.927   4.496   2.267  0.8875  0.8450  1.9061
20500SOL     OW64131   1.887   0.757   2.619 -0.0926  0.5776 -0.3963
20500SOL    HW164132   1.849   0.678   2.580  0.0328  0.3969 -0.1597
20500SOL    HW264133   1.978   0.758   2.587  1.1852 -1.5615  2.6641
20501SOL     OW64134   1.890   1.305   5.323  0.2736 -0.1996  0.2327
20501SOL    HW164135   1.840   1.228   5.293  2.2832 -0.4383 -2.8978
20501SOL    HW264136   1.981   1.282   5.306  1.2484  1.5256  2.6787
20502SOL     OW64137   9.058  10.030   3.263  0.0121  0.1391 -0.5546
20502SOL    HW164138   9.050  10.051   3.356 -1.0827 -0.1773 -0.5628
20502SOL    HW264139   9.132  10.083   3.233 -0.1397  0.8781  0.3114
20503SOL     OW64140   2.777   4.370   9.652  0.1960 -0.3766  0.0941
20503SOL    HW164141   2.813   4.331   9.732  1.5900  1.0046  0.1761
20503SOL    HW264142   2.682   4.358   9.660  0.3768 -0.9925  1.5552
20504SOL     OW64143   5.091   8.372   9.972 -0.1501 -0.4710  0.3660
20504SOL    HW164144   5.160   8.342  10.032  0.4156  0.9255  0.4587
20504SOL    HW264145   5.023   8.304   9.977  0.2467 -0.7901  1.9739
20505SOL     OW64146   9.423   8.564   9.169  0.0111 -0.1301  0.3236
20505SOL    HW164147   9.513   8.562   9.135  0.2950 -1.8011  1.0891
20505SOL    HW264148   9.430   8.527   9.257 -1.2881  0.7005  0.8012
20506SOL     OW64149   3.206   1.926   5.467 -0.2528  0.3762 -0.6443
20506SOL    HW164150   3.134   1.918   5.404 -0.0001  1.7340 -1.1223
20506SOL    HW264151   3.284   1.938   5.413  0.4912 -1.7854 -0.1552
20507SOL     OW64152   3.425   0.916   8.093 -0.3867  0.2088 -0.1433
20507SOL    HW164153   3.358   0.889   8.030  2.2900 -1.9416 -2.3557
20507SOL    HW264154   3.444   0.836   8.143  0.8665  0.6158  0.0506
20508SOL     OW64155   1.931   0.940   8.338  0.6069  0.1756  0.1861
20508SOL    HW164156   1.880   0.860   8.355  1.2751  0.0225  1.6054
20508SOL    HW264157   1.886   0.982   8.265 -1.1365 -0.3329  0.9143
20509SOL     OW64158   3.317   3.122   2.340  0.1062  0.3200  0.2318
20509SOL    HW164159   3.332   3.214   2.360 -1.7039  1.0347 -1.3538
20509SOL    HW264160   3.227   3.119   2.306  0.9230 -1.5985 -2.0948
20510SOL     OW64161   7.180   7.643   7.200  0.2358  0.1568  0.2853
20510SOL    HW164162   7.110   7.688   7.248  0.8653 -1.0139  2.4570
20510SOL    HW264163   7.136   7.571   7.156 -0.0482 -0.3076  1.2831
20511SOL     OW64164   0.566   1.758  10.085  0.4572  0.3223 -0.1293
20511SOL    HW164165   0.609   1.775  10.001  1.3913 -0.3595  0.2029
20511SOL    HW264166   0.624   1.798  10.150 -0.1055  0.5741  0.2319
20512SOL     OW64167   1.438   5.157  10.039 -0.1249 -0.2646 -0.1018
20512SOL    HW164168   1.491   5.088  10.080 -0.7238 -2.2370 -2.3750
20512SOL    HW264169   1.485   5.179   9.959 -0.8313  0.7419 -0.2556
20513SOL     OW64170  10.257   1.954   1.522  0.0580  0.5375 -0.0348
20513SOL    HW164171  10.326   2.019   1.529  0.6883  0.0532 -1.3428
20513SOL    HW264172  10.193   1.978   1.589  1.8297  0.5388  1.7319
20514SOL     OW64173   6.457   4.122   7.027  0.3730 -0.3881 -0.5786
20514SOL    HW164174   6.407   4.169   7.094 -1.5927 -1.5600 -1.1425
20514SOL    HW264175   6.408   4.041   7.013  2.0206 -1.2321 -1.7780
20515SOL     OW64176   4.482   4.397   2.162 -0.3011  0.3910 -0.6120
20515SOL    HW164177   4.414   4.440   2.214  1.0823  3.8764 -1.4469
20515SOL    HW264178   4.498   4.456   2.089  3.2472 -0.5227 -0.7361
20516SOL     OW64179   2.199   9.757   7.000 -0.3468 -0.1250 -0.5258
20516SOL    HW164180   2.111   9.737   7.030 -0.3340 -1.1963 -1.1436
20516SOL    HW264181   2.211   9.850   7.019 -2.0986  0.3632 -1.6515
20517SOL     OW64182   0.832   4.162   1.571 -0.0235  0.6664 -0.0052
20517SOL    HW164183   0.770   4.234   1.564  0.2615  1.3234  2.9358
20517SOL    HW264184   0.826   4.134   1.662  1.2010 -1.8517 -0.6106
20518SOL     OW64185   4.875   0.733   1.187 -0.2637 -0.0945  0.0582
20518SOL    HW164186   4.934   0.801   1.218 -0.8553  0.5079 -0.1115
20518SOL    HW264187   4.801   0.781   1.148 -0.2604 -0.8300 -0.8912
20519SOL     OW64188   4.544   5.874   9.850  0.1726 -0.3780  0.6519
20519SOL    HW164189   4.593   5.946   9.891  1.0804  0.0154 -1.0453
20519SOL    HW264190   4.461   5.914   9.822  0.0613 -0.3530  1.0129
20520SOL     OW64191   5.984   6.855   2.063  0.4708  0.1382  0.3613
20520SOL    HW164192   5.952   6.840   1.974 -1.3757  0.8356  0.8708
20520SOL    HW264193   6.078   6.838   2.057  0.5572  0.9713 -1.9315
20521SOL     OW64194   7.781   9.254   4.305  0.0180 -0.3618  0.1837
20521SOL    HW164195   7.730   9.173   4.310  1.1746 -1.1327 -0.0930
20521SOL    HW264196   7.830   9.246   4.224 -0.7082  1.1673 -0.4476
20522SOL     OW64197   7.937   7.954   0.419 -0.0743  0.1060  0.3195
20522SOL    HW164198   7.936   7.955   0.515  1.5062  0.0323  0.3741
20522SOL    HW264199   7.874   8.020   0.393 -0.8189 -0.1475  1.4050
20523SOL     OW64200   3.823   1.183   6.211 -0.2574 -0.1852  0.0152
20523SOL    HW164201   3.843   1.172   6.304  0.3304 -0.2507 -0.1112
20523SOL    HW264202   3.731   1.207   6.208  0.1980  1.8906  0.7572
20524SOL     OW64203   4.224   0.577   9.255 -0.2695  0.3268  0.2488
20524SOL    HW164204   4.225   0.515   9.327 -2.0089  0.4857  0.4702
20524SOL    HW264205   4.206   0.524   9.177 -0.1278  0.3613  0.1921
20525SOL     OW64206   7.083   5.513   2.651  0.0575  0.2640 -0.8873
20525SOL    HW164207   7.087   5.607   2.669  0.4237  0.5253 -2.2430
20525SOL    HW264208   7.134   5.502   2.571 -0.1494 -1.0707 -0.8517
20526SOL     OW64209   8.248   1.382   7.770 -0.0349  0.1877 -0.4247
20526SOL    HW164210   8.153   1.394   7.772 -0.1501 -0.6837  1.6715
20526SOL    HW264211   8.260   1.288   7.774  0.9279  0.3187 -0.0329
20527SOL     OW64212   9.904   5.581   3.722 -0.5626  0.1145 -0.0409
20527SOL    HW164213   9.851   5.510   3.758 -0.0779 -1.6814 -2.5731
20527SOL    HW264214   9.886   5.656   3.779 -1.3667 -1.9018  2.5691
20528SOL     OW64215   6.928   5.697   3.164 -0.0882 -0.0339  0.6953
20528SOL    HW164216   6.982   5.702   3.243 -0.7220 -1.1174  1.2246
20528SOL    HW264217   6.970   5.629   3.111  0.5614  0.9610 -0.1038
20529SOL     OW64218   9.951   7.576   3.849 -0.0285 -0.4974 -0.2617
20529SOL    HW164219   9.981   7.513   3.783  0.7071 -0.4840  0.0561
20529SOL    HW264220   9.927   7.653   3.799  0.4832 -0.5048 -0.5282
20530SOL     OW64221   9.498   5.544   9.067 -0.1732 -0.4895  0.7245
20530SOL    HW164222   9.528   5.548   8.976  1.1515 -1.2536  1.1050
20530SOL    HW264223   9.419   5.598   9.068  0.1693  0.1004 -0.7274
20531SOL     OW64224   8.031   1.496   5.603  0.4509  0.3711  0.7894
20531SOL    HW164225   7.992   1.426   5.551 -1.1764  1.1044  0.9438
20531SOL    HW264226   7.961   1.524   5.661  1.1971  1.8176  1.0378
20532SOL     OW64227   0.072   5.985   0.128 -0.8811  0.1587 -1.0046
20532SOL    HW164228   0.109   5.960   0.043 -1.3515 -0.4653 -1.0357
20532SOL    HW264229   0.023   5.908   0.156 -0.4772  0.2472 -0.0177
20533SOL     OW64230   0.569   9.433   0.053  1.2516  0.1920 -0.1985
20533SOL    HW164231   0.518   9.478  -0.014 -1.0009 -1.2143  0.4708
20533SOL    HW264232   0.538   9.469   0.136  2.6978  0.5989  0.2030
20534SOL     OW64233   2.069   3.783   1.701  0.0728  0.1361  0.3126
20534SOL    HW164234   2.004   3.819   1.641  0.5737 -0.6769 -0.7240
20534SOL    HW264235   2.030   3.795   1.788  0.0528  2.8684  0.0222
20535SOL     OW64236   5.901   3.562   5.839  0.0008 -0.1400  0.1901
20535SOL    HW164237   5.996   3.564   5.851 -0.0002 -0.2107  0.2100
20535SOL    HW264238   5.875   3.475   5.868 -0.2673  0.4078  1.6887
20536SOL     OW64239   7.721   6.590   6.037 -0.1431  0.0302 -0.2737
20536SOL    HW164240   7.635   6.624   6.013 -0.8501 -1.1352  0.4867
20536SOL    HW264241   7.703   6.505   6.078  1.0595  1.1721  2.9515
20537SOL     OW64242   5.122   4.513   0.422 -0.3817 -0.2628 -0.0707
20537SOL    HW164243   5.032   4.495   0.394  0.3247 -1.0373 -2.0621
20537SOL    HW264244   5.114   4.584   0.486 -2.4599 -0.9485  0.5104
20538SOL     OW64245   6.416  10.068   3.679  0.0757 -0.2792 -0.0650
20538SOL    HW164246   6.451  10.156   3.692  0.4092 -0.2714 -1.0072
20538SOL    HW264247   6.391  10.040   3.767 -0.7638  1.0584  0.1579
20539SOL     OW64248   0.702   0.259   6.099 -0.1550  0.2649  0.2138
20539SOL    HW164249   0.611   0.254   6.070 -0.3117  0.2677  0.6948
20539SOL    HW264250   0.747   0.306   6.028  0.1430 -2.5172 -1.5861
20540SOL     OW64251   2.434   1.935   7.162 -0.2716  0.5180 -0.3973
20540SOL    HW164252   2.435   1.977   7.249  3.4408 -4.0125  2.2124
20540SOL    HW264253   2.356   1.880   7.163 -0.4200  0.7280 -0.1076
20541SOL     OW64254   5.029   1.814   9.243 -0.2989 -0.2029  0.7217
20541SOL    HW164255   5.090   1.743   9.264  0.1853 -0.0200 -0.0122
20541SOL    HW264256   5.069   1.859   9.169 -1.7792 -0.6684 -0.4263
20542SOL     OW64257   7.176   8.737   0.928 -0.3756  0.2135 -0.2030
20542SOL    HW164258   7.175   8.658   0.982 -4.0969  0.8906  0.9908
20542SOL    HW264259   7.198   8.706   0.840 -0.3020 -1.9120  0.5117
20543SOL     OW64260   9.887   5.412   4.402  0.4350  0.0511 -0.3504
20543SOL    HW164261   9.916   5.422   4.493  2.0455  0.5523 -0.8926
20543SOL    HW264262   9.823   5.341   4.405  0.3176  0.1830  1.1945
20544SOL     OW64263   5.891   5.887   7.650  0.1515 -0.3066 -0.2538
20544SOL    HW164264   5.865   5.817   7.590 -1.2953 -0.4028  0.4538
20544SOL    HW264265   5.811   5.910   7.697  1.0665  0.3543  1.0422
20545SOL     OW64266   8.712   6.794   0.213  0.3505 -0.3317  0.1369
20545SOL    HW164267   8.718   6.715   0.267  1.3572 -0.2481  0.1644
20545SOL    HW264268   8.792   6.794   0.161  0.8370  1.1591  0.8343
20546SOL     OW64269   5.428   1.484   7.382  0.0614 -0.1464  0.0555
20546SOL    HW164270   5.401   1.530   7.302  1.0149  0.8482  0.2757
20546SOL    HW264271   5.366   1.412   7.391 -1.1843  0.8112 -0.5878
20547SOL     OW64272   8.091   3.747   9.946  0.7805 -0.5622  0.0910
20547SOL    HW164273   8.022   3.684   9.924  1.9318 -1.1695 -2.0673
20547SOL    HW264274   8.046   3.831   9.949 -0.5888 -1.3159  1.9197
20548SOL     OW64275   0.314   9.066   1.459 -0.2467  0.1397 -0.2734
20548SOL    HW164276   0.278   9.039   1.374 -1.5034 -1.4825  0.7141
20548SOL    HW264277   0.394   9.015   1.468 -0.4215 -0.1293 -0.2340
20549SOL     OW64278   8.528   4.392   3.050 -0.5306  0.0466 -0.3918
20549SOL    HW164279   8.496   4.444   2.977  0.1868 -1.0321 -1.5111
20549SOL    HW264280   8.449   4.361   3.094 -0.9870  0.0339 -1.2112
20550SOL     OW64281   6.844   2.148   3.235  0.0431  0.1921  0.4406
20550SOL    HW164282   6.857   2.054   3.245  0.6460  0.4037  1.9553
20550SOL    HW264283   6.750   2.159   3.232 -0.0409 -0.6674 -2.4566
20551SOL     OW64284  10.282   0.631   4.846  0.0605 -0.4135 -0.3200
20551SOL    HW164285  10.271   0.713   4.895  0.5617  0.3234 -1.4190
20551SOL    HW264286  10.286   0.563   4.914 -0.0722  0.4962  0.6198
20552SOL     OW64287   8.060   2.178   3.600  0.2455  0.2857 -0.3080
20552SOL    HW164288   8.031   2.105   3.545  1.7963 -0.6350  0.0455
20552SOL    HW264289   8.122   2.226   3.545 -0.7447  1.3674 -0.5301
20553SOL     OW64290   2.289   2.120   8.882 -0.1369 -0.0874 -0.2180
20553SOL    HW164291   2.373   2.113   8.836  0.5278  0.5262  0.8689
20553SOL    HW264292   2.234   2.172   8.824  0.0096 -1.0242 -1.2272
20554SOL     OW64293   3.083   9.203   3.941 -0.3357 -0.0115  0.4310
20554SOL    HW164294   3.065   9.116   3.905 -1.1479 -0.1158  1.0732
20554SOL    HW264295   3.073   9.262   3.866  2.4055 -0.6378 -0.5744
20555SOL     OW64296   1.783   0.156   2.437  0.4761  0.6819 -0.3943
20555SOL    HW164297   1.787   0.095   2.363  0.0165  0.1412  0.0206
20555SOL    HW264298   1.812   0.105   2.512  0.5033  1.1028 -0.1128
20556SOL     OW64299   2.740   4.486   3.659  0.6950  0.1557 -0.0610
20556SOL    HW164300   2.658   4.494   3.610  0.2648  1.4836  0.8309
20556SOL    HW264301   2.742   4.394   3.687 -0.0284 -0.1123 -0.8481
20557SOL     OW64302   5.932   3.847   3.174  0.0998 -0.2000 -0.3215
20557SOL    HW164303   5.937   3.908   3.248 -0.6690 -0.4760 -0.0319
20557SOL    HW264304   5.858   3.789   3.196  0.9790 -1.4060 -0.4586
20558SOL     OW64305   1.603   4.865   9.774 -0.0158 -1.0689  0.6528
20558SOL    HW164306   1.688   4.907   9.784  1.3170 -2.8851 -1.8837
20558SOL    HW264307   1.615   4.777   9.809 -0.6234 -1.5420 -0.2797
20559SOL     OW64308   6.511  10.223   8.992 -0.5380  0.3155 -0.0957
20559SOL    HW164309   6.565  10.298   9.019 -0.8648  0.5451 -0.0672
20559SOL    HW264310   6.459  10.257   8.920 -2.1332  0.7272  1.1783
20560SOL     OW64311   6.139   0.803   5.348  0.6148 -0.2505  0.0163
20560SOL    HW164312   6.061   0.816   5.401  1.0911  0.3587  0.5883
20560SOL    HW264313   6.164   0.891   5.319  3.2893  0.2009  3.0790
20561SOL     OW64314   6.480   0.526   9.989  0.2552  0.2425 -0.2613
20561SOL    HW164315   6.527   0.592   9.938  0.0611 -0.9730 -2.1044
20561SOL    HW264316   6.390   0.531   9.959  0.5762 -2.1089 -1.9260
20562SOL     OW64317   1.483  10.180  10.211  0.4979  0.5994  0.3076
20562SOL    HW164318   1.569  10.220  10.197  0.9907 -0.3416  0.5627
20562SOL    HW264319   1.501  10.102  10.264 -0.0743 -1.4825 -2.3923
20563SOL     OW64320   0.912   2.792   3.553  0.1228  0.5067 -0.2375
20563SOL    HW164321   0.828   2.826   3.583 -0.8295 -0.8490 -1.2262
20563SOL    HW264322   0.970   2.798   3.629 -0.7445  1.8332  0.3413
20564SOL     OW64323   9.394   9.259   9.349  0.2674  0.2514  0.4404
20564SOL    HW164324   9.464   9.256   9.284  0.9284 -2.7592  1.1223
20564SOL    HW264325   9.341   9.181   9.330 -1.2846  0.9586  1.6520
20565SOL     OW64326   8.757   3.097   0.206 -0.2625 -0.4144  0.0259
20565SOL    HW164327   8.682   3.038   0.209  0.2183 -1.0438 -0.1424
20565SOL    HW264328   8.727   3.170   0.152 -1.6447  0.6444  2.1060
20566SOL     OW64329   0.488   8.705   9.351 -0.2703 -0.4265  0.7507
20566SOL    HW164330   0.568   8.685   9.400 -0.4482 -0.9385  0.8304
20566SOL    HW264331   0.422   8.719   9.419 -0.0854  0.7809  0.7207
20567SOL     OW64332   1.356   5.071   0.246 -0.1638  0.6217 -0.4172
20567SOL    HW164333   1.317   5.158   0.261  2.3838  1.7346  0.2432
20567SOL    HW264334   1.450   5.087   0.244  0.3443 -1.5394 -4.3617
20568SOL     OW64335   1.926   3.345   2.077 -0.4476 -0.2353  0.4633
20568SOL    HW164336   1.973   3.290   2.014 -0.2146 -0.3179  0.7056
20568SOL    HW264337   1.993   3.407   2.109 -0.9025  0.7672 -0.4446
20569SOL     OW64338   9.158   0.272   8.057  0.3749  0.0810 -0.1412
20569SOL    HW164339   9.225   0.334   8.028 -0.4176  0.2333 -1.7742
20569SOL    HW264340   9.102   0.323   8.115  0.3262  0.6113 -0.6447
20570SOL     OW64341   6.881   9.959   6.617  0.0534  0.2174 -0.2589
20570SOL    HW164342   6.825   9.896   6.571 -2.1732  0.5605  1.7899
20570SOL    HW264343   6.877   9.932   6.709  1.2407  1.7702  0.2928
20571SOL     OW64344   4.015   1.167   0.666  0.4918  0.1167  0.3582
20571SOL    HW164345   3.965   1.139   0.742 -0.8585  1.2823 -0.0622
20571SOL    HW264346   3.981   1.114   0.594  1.1468 -0.3643  0.3997
20572SOL     OW64347   2.686   6.747   4.004  0.2997 -0.7174  0.3993
20572SOL    HW164348   2.636   6.778   3.928 -1.8324 -1.2515  1.5063
20572SOL    HW264349   2.729   6.825   4.038 -2.3797  0.5246  1.2354
20573SOL     OW64350   5.142   5.110   5.395  0.1770 -0.0836 -0.0091
20573SOL    HW164351   5.148   5.165   5.317  0.2312  0.1459  0.1581
20573SOL    HW264352   5.231   5.076   5.406  0.2887  0.2874  0.2478
20574SOL     OW64353   5.514   1.578   1.290 -0.3260  0.6582 -0.0912
20574SOL    HW164354   5.588   1.519   1.301  1.4599  2.9043  0.9776
20574SOL    HW264355   5.437   1.524   1.307  1.0642 -1.6468 -0.6506
20575SOL     OW64356   0.893   6.313   2.803  0.3990 -0.3003  0.2890
20575SOL    HW164357   0.852   6.396   2.778  1.0998  0.0403  0.2431
20575SOL    HW264358   0.898   6.263   2.722 -0.8252 -0.7524  0.4764
20576SOL     OW64359   1.525   7.271   5.084  0.1043 -0.5029  0.2536
20576SOL    HW164360   1.433   7.298   5.087 -0.1552 -1.4583  1.4665
20576SOL    HW264361   1.572   7.340   5.131 -0.0389 -0.2472  0.0290
20577SOL     OW64362   7.551   6.573   1.512  0.0383 -0.1559 -0.3989
20577SOL    HW164363   7.532   6.651   1.563  0.7006  0.5367 -1.1778
20577SOL    HW264364   7.487   6.574   1.441  0.0756 -0.2890 -0.4358
20578SOL     OW64365   5.129   3.284   8.285 -0.1770 -0.0378  0.6627
20578SOL    HW164366   5.214   3.299   8.245  0.0283 -1.2012  0.6220
20578SOL    HW264367   5.130   3.337   8.365  0.3093  0.4816  0.3180
20579SOL     OW64368   3.361   8.913   2.043  0.3199  0.0842  0.5119
20579SOL    HW164369   3.369   9.005   2.069 -0.4760 -0.1778  1.7402
20579SOL    HW264370   3.433   8.868   2.088  1.2553  0.2165 -0.7855
20580SOL     OW64371   4.652   9.209   6.416 -0.8598 -0.0247  0.3371
20580SOL    HW164372   4.644   9.118   6.443 -1.3619  0.0156  0.3307
20580SOL    HW264373   4.739   9.235   6.445 -0.4705 -0.6828 -0.1990
20581SOL     OW64374   2.924   2.562   0.291  0.4117  0.0396  0.0100
20581SOL    HW164375   2.894   2.510   0.365 -1.1421  0.7024 -0.1048
20581SOL    HW264376   2.967   2.638   0.330  0.3138 -0.0111  0.2164
20582SOL     OW64377   6.304   3.831   2.776  0.5531 -0.0398 -0.1526
20582SOL    HW164378   6.368   3.902   2.776  1.5149 -0.8797  0.6542
20582SOL    HW264379   6.225   3.871   2.814  0.7767  0.8480 -0.5966
20583SOL     OW64380   5.886   3.827   7.033  0.1610 -0.3055 -0.7064
20583SOL    HW164381   5.823   3.890   6.999 -1.1572 -0.1943  1.7383
20583SOL    HW264382   5.842   3.742   7.026 -0.6868 -0.1468  1.6690
20584SOL     OW64383   5.349   6.619   8.422 -0.5168 -0.1499 -0.2151
20584SOL    HW164384   5.282   6.572   8.472  0.1952 -0.3395  0.5794
20584SOL    HW264385   5.429   6.570   8.437  0.0139  0.6777 -0.3038
20585SOL     OW64386   3.607   9.773   6.250 -0.6118 -0.0857 -0.2583
20585SOL    HW164387   3.644   9.840   6.308 -0.5271 -0.1469 -0.2396
20585SOL    HW264388   3.513   9.790   6.250 -0.7462 -0.7081  0.7067
20586SOL     OW64389   8.226   9.278   6.408 -0.5339 -0.2679 -0.0197
20586SOL    HW164390   8.164   9.233   6.465  0.4188  0.1410  1.3728
20586SOL    HW264391   8.171   9.314   6.338 -1.6173 -1.4735  0.1562
20587SOL     OW64392   4.798   9.169   7.196  0.5111 -0.3699  0.4776
20587SOL    HW164393   4.816   9.092   7.250  0.3807 -0.7748 -0.0480
20587SOL    HW264394   4.728   9.215   7.243 -0.0472 -1.0525  0.3436
20588SOL     OW64395  10.336   7.941  10.121 -0.1113  0.1503 -0.4515
20588SOL    HW164396  10.374   7.971  10.204 -0.2777  0.6926 -0.5714
20588SOL    HW264397  10.412   7.924  10.065 -0.0217  0.6312 -0.4804
20589SOL     OW64398  10.337   6.944   9.005  0.7727 -0.0767  0.9040
20589SOL    HW164399  10.415   6.982   9.043  1.5569 -0.3904 -0.3118
20589SOL    HW264400  10.296   6.896   9.076  1.5796  0.2646  1.6124
20590SOL     OW64401   7.830   9.713   0.832 -0.0400  0.1747 -0.4272
20590SOL    HW164402   7.793   9.679   0.751 -0.4061  0.2588 -0.2980
20590SOL    HW264403   7.807   9.806   0.831 -2.2594 -0.2937  0.9568
20591SOL     OW64404   9.437   6.977  10.062 -0.5436  0.3308 -0.8443
20591SOL    HW164405   9.477   7.059  10.090 -0.8468  0.4484 -0.7458
20591SOL    HW264406   9.385   7.001   9.985  0.6420 -0.0718 -1.8019
20592SOL     OW64407   7.938   4.477   5.094 -0.2674  0.1573 -0.1223
20592SOL    HW164408   7.992   4.550   5.124  0.8406  0.1633 -1.9188
20592SOL    HW264409   7.886   4.452   5.170  0.5686  1.6951  1.0187
20593SOL     OW64410   7.253   8.607   3.865 -0.0670 -0.3284 -0.6041
20593SOL    HW164411   7.347   8.598   3.850  0.1625 -1.6213  1.2480
20593SOL    HW264412   7.237   8.556   3.944 -2.1679  0.7299 -0.2953
20594SOL     OW64413   4.986   4.096   6.393 -0.3792  0.2452 -0.0871
20594SOL    HW164414   5.021   4.163   6.452 -2.0221  0.4293  0.7170
20594SOL    HW264415   4.929   4.042   6.448  1.6785 -2.5323 -0.4403
20595SOL     OW64416   7.491   7.300   4.263  0.1448  0.2646  0.2390
20595SOL    HW164417   7.505   7.351   4.343 -0.9105  0.4320  0.3207
20595SOL    HW264418   7.533   7.215   4.281 -1.3982 -0.2613  1.5784
20596SOL     OW64419   1.347   4.130   3.495 -0.9087 -0.1447 -0.1950
20596SOL    HW164420   1.333   4.202   3.557  0.9629 -0.6902  0.9422
20596SOL    HW264421   1.442   4.118   3.494 -1.1809 -2.7025 -0.2243
20597SOL     OW64422   5.587   7.350   7.986  0.0331  0.0035  0.2629
20597SOL    HW164423   5.542   7.354   8.071 -3.6277 -0.4923 -1.4809
20597SOL    HW264424   5.594   7.257   7.967 -1.1300  0.1407 -0.9045
20598SOL     OW64425   5.742   7.105   9.283  0.0997 -0.3922  0.0842
20598SOL    HW164426   5.776   7.169   9.346  0.1165  1.0156 -1.3008
20598SOL    HW264427   5.802   7.031   9.289  0.1780 -0.2515  1.5974
20599SOL     OW64428   7.671   9.026   9.155 -0.2852  0.5606  0.0495
20599SOL    HW164429   7.649   8.992   9.069 -0.9645 -0.8990  0.7710
20599SOL    HW264430   7.587   9.037   9.199  0.1268 -1.9303  1.6744
20600SOL     OW64431   9.133   6.174   7.552  0.6527 -0.0589 -0.7133
20600SOL    HW164432   9.174   6.189   7.638 -1.7036 -0.2931  0.5206
20600SOL    HW264433   9.090   6.089   7.560  0.1433  0.0553 -2.0281
20601SOL     OW64434   7.647   0.312   3.360 -0.2100  0.4526 -0.0976
20601SOL    HW164435   7.605   0.393   3.330 -1.2163  0.2147  0.5998
20601SOL    HW264436   7.578   0.246   3.353 -1.3269  0.7263  4.5349
20602SOL     OW64437   5.618   8.496   3.195  0.2473 -0.4155 -0.0150
20602SOL    HW164438   5.685   8.507   3.262 -0.0471  1.5505  0.0098
20602SOL    HW264439   5.564   8.424   3.227  0.2258  0.3463  1.7900
20603SOL     OW64440   2.958   5.984   7.606 -0.4314 -0.6247  0.5853
20603SOL    HW164441   2.882   6.017   7.557  0.6986  0.8316 -0.2731
20603SOL    HW264442   2.954   5.889   7.595 -0.3993 -0.4094 -2.1606
20604SOL     OW64443   7.064   9.138   3.280  0.0490  0.4879  0.4601
20604SOL    HW164444   7.081   9.045   3.261 -0.3208  0.3953  0.5868
20604SOL    HW264445   7.115   9.156   3.359  0.5648  0.5395  0.1266
20605SOL     OW64446   0.109   3.530   9.695  0.1828  0.3739  1.0777
20605SOL    HW164447   0.069   3.606   9.652 -1.2084 -0.0283  1.6127
20605SOL    HW264448   0.104   3.460   9.630 -2.5034 -0.4127  1.9932
20606SOL     OW64449   9.696   2.001   7.118  0.1146 -0.1260 -0.5766
20606SOL    HW164450   9.722   2.084   7.157  0.1544 -0.0188 -0.8337
20606SOL    HW264451   9.634   2.024   7.050 -2.2651 -0.4912  1.3167
20607SOL     OW64452   3.082   3.211   4.419 -0.1429  0.2950  0.3000
20607SOL    HW164453   3.032   3.202   4.338 -0.0865  0.8210  0.1978
20607SOL    HW264454   3.064   3.301   4.448 -0.7128 -0.1149  1.2442
20608SOL     OW64455   1.866   1.012   3.511 -0.4884  0.5495 -0.3120
20608SOL    HW164456   1.935   1.075   3.534  0.4611 -0.4840 -0.2177
20608SOL    HW264457   1.792   1.066   3.483  0.5673  1.6819 -1.0013
20609SOL     OW64458   5.568   2.325   8.808 -0.2812 -0.0911 -0.4559
20609SOL    HW164459   5.506   2.391   8.839 -1.4500  0.8829 -4.3504
20609SOL    HW264460   5.515   2.264   8.756  1.5395 -1.1310 -1.1834
20610SOL     OW64461   8.651   2.490   5.145  0.0218 -0.0913  0.2930
20610SOL    HW164462   8.732   2.491   5.196  0.4209  0.7826 -0.3234
20610SOL    HW264463   8.651   2.405   5.101  0.2912 -0.3434  0.7679
20611SOL     OW64464   7.342   8.428   3.504 -0.0314 -0.1524  0.2622
20611SOL    HW164465   7.354   8.339   3.471 -1.2140 -0.0484 -0.5263
20611SOL    HW264466   7.429   8.456   3.530  0.5767 -1.0852 -0.6707
20612SOL     OW64467  10.210   7.609   2.186 -0.6147  0.2334 -0.0666
20612SOL    HW164468  10.162   7.692   2.177  0.3690  1.1570  2.4803
20612SOL    HW264469  10.294   7.626   2.142 -0.5530  0.4594  0.1373
20613SOL     OW64470   6.890   1.793   1.640  0.5484 -0.0900 -0.3346
20613SOL    HW164471   6.883   1.878   1.598 -0.3791 -0.2347 -0.4912
20613SOL    HW264472   6.821   1.793   1.707  0.6616 -0.6392 -0.2142
20614SOL     OW64473  10.322   3.734   7.787 -0.0249  0.2023  0.7044
20614SOL    HW164474  10.317   3.825   7.816 -2.4337  0.1658  0.5953
20614SOL    HW264475  10.299   3.683   7.864 -1.9777 -0.1026 -0.0131
20615SOL     OW64476   1.122   3.735   5.859  0.0306  0.6261  0.2387
20615SOL    HW164477   1.148   3.760   5.770  2.6297  1.0139  1.0227
20615SOL    HW264478   1.151   3.808   5.914 -1.3236  0.2935  1.4666
20616SOL     OW64479   2.445   1.262   7.708  0.0945  0.0089  0.1676
20616SOL    HW164480   2.466   1.204   7.781 -0.9731  0.9993  1.3177
20616SOL    HW264481   2.434   1.204   7.633  2.5323 -0.9219  0.4452
20617SOL     OW64482   5.304   6.481   0.460 -0.6178  0.4915 -0.1131
20617SOL    HW164483   5.234   6.496   0.397  0.3790 -0.4858 -1.5072
20617SOL    HW264484   5.356   6.410   0.422  1.0732  1.1073  0.9353
20618SOL     OW64485   0.364   3.929   9.296 -0.1066  0.5799  0.0669
20618SOL    HW164486   0.383   3.845   9.255  1.1674  0.4186  0.9314
20618SOL    HW264487   0.268   3.931   9.303 -0.1141 -1.3039  1.0575
20619SOL     OW64488   8.125   7.937   4.151 -0.0908  0.3649 -0.2017
20619SOL    HW164489   8.116   7.903   4.240  0.5272  0.9624  0.1026
20619SOL    HW264490   8.120   8.032   4.161 -1.3738  0.4076 -0.9826
20620SOL     OW64491   6.222   4.708   3.681  0.1539  0.4586  0.1201
20620SOL    HW164492   6.233   4.803   3.683  0.3347  0.4305  1.0631
20620SOL    HW264493   6.200   4.684   3.772  2.0133 -0.6030  0.3445
20621SOL     OW64494   8.589   3.723   3.805 -0.1043  1.0461  0.0824
20621SOL    HW164495   8.545   3.681   3.732 -0.7447 -1.3287  1.7122
20621SOL    HW264496   8.529   3.794   3.832 -0.1952  1.4704 -1.1912
20622SOL     OW64497   7.930   3.546   1.600 -0.1151 -0.9480 -0.2519
20622SOL    HW164498   7.843   3.587   1.594  0.5680  0.5493 -0.5779
20622SOL    HW264499   7.967   3.558   1.512 -0.3107 -3.4027 -0.7397
20623SOL     OW64500   3.324   2.144   7.513  0.0090  0.1823 -0.0169
20623SOL    HW164501   3.275   2.216   7.554  0.4226  0.1306  0.5809
20623SOL    HW264502   3.372   2.185   7.442  0.3403  0.5286  0.4002
20624SOL     OW64503   3.093   5.053   6.595  0.2404  0.4747  0.3276
20624SOL    HW164504   3.086   4.971   6.643  0.7329  0.5694  0.5712
20624SOL    HW264505   3.186   5.060   6.572  0.2243  1.0112  0.4007
20625SOL     OW64506   0.075   0.249   1.960  0.2027  0.0147 -0.0317
20625SOL    HW164507   0.002   0.311   1.956 -0.2603 -0.5758 -0.9990
20625SOL    HW264508   0.115   0.265   2.045  1.2043  2.9032 -0.8993
20626SOL     OW64509   0.028   4.115   0.070 -0.4040  0.1136 -0.1655
20626SOL    HW164510   0.015   4.131  -0.023  0.6686 -0.1287 -0.3720
20626SOL    HW264511  -0.011   4.190   0.114 -1.5947 -0.1465 -0.7695
20627SOL     OW64512   3.054   5.975   2.996 -0.2812  0.4873 -0.1499
20627SOL    HW164513   2.959   5.984   2.985 -0.4729  1.0921  1.6458
20627SOL    HW264514   3.066   5.890   3.039  0.1814 -0.4384 -2.0030
20628SOL     OW64515  10.338   7.607   0.414  0.4959  0.3022 -0.0497
20628SOL    HW164516  10.380   7.674   0.360 -2.3521  3.2772  1.1021
20628SOL    HW264517  10.371   7.622   0.502 -1.8346  1.8748  0.6456
20629SOL     OW64518   8.058   3.353   0.154  0.2567 -0.3510  0.0324
20629SOL    HW164519   8.108   3.431   0.130 -0.7526  0.4392  0.3955
20629SOL    HW264520   7.970   3.369   0.119  0.1389 -1.5191 -0.2426
20630SOL     OW64521   3.104   7.205   9.534  0.5261 -0.4358 -0.1683
20630SOL    HW164522   3.159   7.282   9.518  1.2595 -0.3534  2.2881
20630SOL    HW264523   3.017   7.232   9.506  0.9089  1.0445 -0.0378
20631SOL     OW64524   6.933   5.696   8.646  0.4024 -0.7044  0.2793
20631SOL    HW164525   6.882   5.620   8.618 -0.4083  0.3342 -1.1797
20631SOL    HW264526   6.920   5.760   8.577  2.1168  0.3171  0.8541
20632SOL     OW64527   8.541   7.962   0.340 -0.0779 -0.2059 -0.0684
20632SOL    HW164528   8.542   7.993   0.249 -0.6171 -0.2168 -0.0802
20632SOL    HW264529   8.455   7.987   0.373 -0.0899 -0.6897  0.2732
20633SOL     OW64530   8.333   4.879   0.162  0.1035 -0.6901  0.0683
20633SOL    HW164531   8.390   4.944   0.204  0.4726 -1.4161  0.7092
20633SOL    HW264532   8.383   4.851   0.085  0.8713 -1.6823  0.8897
20634SOL     OW64533   7.559   9.764   2.789  0.7240 -0.1949 -0.4844
20634SOL    HW164534   7.468   9.789   2.770  0.9112  1.4934  0.6245
20634SOL    HW264535   7.611   9.833   2.747  1.5058 -1.0489 -0.9426
20635SOL     OW64536   0.127   4.131  10.032 -0.1282  0.0185 -0.0972
20635SOL    HW164537   0.181   4.210  10.027 -0.4226  0.1347 -1.7478
20635SOL    HW264538   0.182   4.068  10.080  1.8795 -0.1502 -2.4152
20636SOL     OW64539   8.312   0.675   2.055  0.1947  0.4240  0.4269
20636SOL    HW164540   8.256   0.640   1.986  1.3407 -1.7151  0.4850
20636SOL    HW264541   8.401   0.662   2.023  0.7381  0.1827  1.9248
20637SOL     OW64542   6.525   4.644   1.374 -0.0893 -0.0933 -0.2139
20637SOL    HW164543   6.585   4.719   1.366 -0.6156  0.3870  0.2957
20637SOL    HW264544   6.536   4.613   1.464 -0.3537 -0.2194 -0.2229
20638SOL     OW64545   0.846   7.448   2.405  0.2722  0.3336  0.6012
20638SOL    HW164546   0.864   7.508   2.333 -0.5904 -0.3536 -0.2106
20638SOL    HW264547   0.839   7.505   2.482  0.5212  1.1533  0.0327
20639SOL     OW64548   4.476   8.551   3.758  0.2764 -0.0964  0.3508
20639SOL    HW164549   4.467   8.642   3.787  0.5651  0.2646 -0.6779
20639SOL    HW264550   4.570   8.539   3.747  0.1694 -0.2349 -0.4183
20640SOL     OW64551   0.101   5.812   5.882  0.2757 -0.4144 -0.0623
20640SOL    HW164552   0.061   5.751   5.944 -0.9834 -0.6116 -1.0153
20640SOL    HW264553   0.100   5.766   5.799  1.5576  0.0074 -0.3371
20641SOL     OW64554   2.019   7.608   0.778 -0.6077 -0.0185  0.2367
20641SOL    HW164555   2.013   7.703   0.790 -1.2109  0.1354 -1.1348
20641SOL    HW264556   1.931   7.576   0.800 -0.8467 -0.0702 -0.7441
20642SOL     OW64557   8.945   0.933   0.532  0.9700 -0.2398 -0.1703
20642SOL    HW164558   9.037   0.909   0.520  1.7063  3.3069 -4.3069
20642SOL    HW264559   8.948   1.015   0.580  0.0236  0.0378 -0.5554
20643SOL     OW64560   1.020   7.635   1.796 -0.0915  0.2474 -1.4862
20643SOL    HW164561   0.958   7.621   1.868 -1.6234  0.7193 -2.6603
20643SOL    HW264562   0.982   7.587   1.723  2.4715 -1.9710 -1.5473
20644SOL     OW64563   0.220   1.303   7.398 -0.9822 -0.0867  0.0125
20644SOL    HW164564   0.205   1.209   7.395  0.4565 -0.3228 -1.5301
20644SOL    HW264565   0.207   1.332   7.307  2.1831  0.5393 -0.3361
20645SOL     OW64566   2.732   5.125   8.675 -0.0622  0.2189 -0.2002
20645SOL    HW164567   2.726   5.030   8.664 -0.8943  0.1205  0.9227
20645SOL    HW264568   2.825   5.143   8.685  0.0881 -0.5010 -0.2556
20646SOL     OW64569  10.112   1.799   4.103 -0.0625  0.4222  0.3353
20646SOL    HW164570  10.200   1.816   4.072  0.1691  0.2485  0.8733
20646SOL    HW264571  10.057   1.800   4.025  0.4718  0.1830 -0.0415
20647SOL     OW64572   8.222   1.540   1.153  0.0687 -0.4786 -1.0060
20647SOL    HW164573   8.269   1.623   1.160 -1.5852  0.4540 -0.4035
20647SOL    HW264574   8.215   1.509   1.243 -1.4619  0.0058 -0.9362
20648SOL     OW64575   6.679   8.027   3.622  0.0536 -0.5003  0.2098
20648SOL    HW164576   6.624   7.948   3.628 -1.6980  0.6318 -0.1727
20648SOL    HW264577   6.719   8.022   3.535 -0.3160 -0.8052  0.0546
20649SOL     OW64578   1.530   8.015   8.526 -0.2976 -0.1541  0.0349
20649SOL    HW164579   1.582   7.979   8.598  0.1651  0.8374  0.2179
20649SOL    HW264580   1.459   8.062   8.569  0.1892  0.7525 -0.1250
20650SOL     OW64581   6.465   4.574   8.941 -0.3020 -0.6862  0.5625
20650SOL    HW164582   6.490   4.482   8.949 -0.1270 -0.5508  1.7698
20650SOL    HW264583   6.416   4.593   9.021 -2.5766 -0.3931 -0.8133
20651SOL     OW64584   2.559   1.134   7.918  0.5729 -0.6315 -0.0501
20651SOL    HW164585   2.571   1.044   7.950  0.5921 -0.4825  0.3792
20651SOL    HW264586   2.610   1.188   7.980  1.5819 -0.4372 -1.0133
20652SOL     OW64587   8.682   8.252  10.076  0.0831  0.2777 -0.0371
20652SOL    HW164588   8.642   8.334  10.104 -0.7777  0.3377 -1.3493
20652SOL    HW264589   8.611   8.203  10.035  0.8540 -0.5931 -0.3698
20653SOL     OW64590   1.595   8.380   1.834 -0.3336 -0.9167  0.8901
20653SOL    HW164591   1.548   8.409   1.912  0.7287  0.1541  1.1577
20653SOL    HW264592   1.686   8.405   1.850 -0.0227 -1.0878 -0.4998
20654SOL     OW64593   6.976   6.275   9.804 -0.4562  0.0041 -0.2353
20654SOL    HW164594   6.982   6.207   9.871 -0.0353  0.2838  0.0079
20654SOL    HW264595   6.953   6.354   9.852  2.7530  0.8882  0.0157
20655SOL     OW64596   4.599   4.800   6.174 -0.3218 -0.1213  0.1207
20655SOL    HW164597   4.566   4.888   6.156 -2.7341 -1.1513 -0.9022
20655SOL    HW264598   4.528   4.756   6.219  0.9904 -1.4780  0.9698
20656SOL     OW64599   4.821   1.225   7.617  0.4284 -0.6728 -0.2218
20656SOL    HW164600   4.871   1.188   7.691  0.1819  0.9857  0.8167
20656SOL    HW264601   4.841   1.318   7.619  0.7193 -0.6453 -2.5365
20657SOL     OW64602   9.825   2.059   5.184 -0.3505 -0.2239 -0.0656
20657SOL    HW164603   9.890   2.016   5.239 -0.8138 -1.2283 -0.2864
20657SOL    HW264604   9.752   2.076   5.243  0.9778  3.2120  0.8464
20658SOL     OW64605   7.804   0.221   3.913 -0.2015  0.0433 -0.7224
20658SOL    HW164606   7.846   0.299   3.878 -0.3930  0.5191  0.0917
20658SOL    HW264607   7.799   0.161   3.838  0.3425  0.6352 -1.2460
20659SOL     OW64608   4.712   7.552   6.309 -0.2592  0.4453  0.4069
20659SOL    HW164609   4.765   7.601   6.371 -1.8766  1.2519  1.1849
20659SOL    HW264610   4.662   7.491   6.363 -0.5788  0.1099 -0.2608
20660SOL     OW64611   4.977   5.355   2.401 -0.2545 -0.3740 -0.5075
20660SOL    HW164612   5.005   5.407   2.476  0.2872 -0.4733 -0.6371
20660SOL    HW264613   5.030   5.387   2.328  0.2949 -1.2994 -0.5264
20661SOL     OW64614   4.052   2.994   1.439 -0.2803  0.1633 -0.4323
20661SOL    HW164615   4.131   2.966   1.484 -1.2349  0.7760  1.7474
20661SOL    HW264616   4.000   2.914   1.428  1.2005 -0.5414 -3.2964
20662SOL     OW64617   5.771   1.958   3.349  0.0127 -0.1986 -0.9673
20662SOL    HW164618   5.758   1.990   3.438 -0.4855 -1.3427 -0.6035
20662SOL    HW264619   5.808   2.032   3.301  3.4700 -0.4764  0.9740
20663SOL     OW64620   8.032   4.348   6.584  0.0448  0.2775  0.1721
20663SOL    HW164621   8.034   4.307   6.497  0.3888  0.2327  0.1990
20663SOL    HW264622   8.006   4.439   6.567 -0.6910  0.0651  0.1065
20664SOL     OW64623   3.572   4.700   1.330  0.6140 -0.4167 -0.3126
20664SOL    HW164624   3.564   4.671   1.421  1.5558 -1.0319 -0.4107
20664SOL    HW264625   3.496   4.757   1.316  0.0904 -0.8583  0.6452
20665SOL     OW64626   5.921   9.399   2.275 -0.5303 -0.0113  0.1339
20665SOL    HW164627   6.011   9.373   2.293 -0.2944  1.3023  0.9655
20665SOL    HW264628   5.868   9.327   2.310  0.1526 -0.2631  0.6672
20666SOL     OW64629   8.928   3.387   0.809 -0.6908 -0.2355  0.1598
20666SOL    HW164630   8.913   3.449   0.737 -2.5667  1.7764  2.1437
20666SOL    HW264631   9.016   3.409   0.841  0.4488 -1.5968 -1.8213
20667SOL     OW64632   4.949   5.205   4.646 -0.1087 -0.3074  0.6692
20667SOL    HW164633   5.043   5.207   4.664 -0.2752  0.8566  1.5074
20667SOL    HW264634   4.909   5.250   4.721 -1.1053  1.7617 -0.9908
20668SOL     OW64635   0.577   8.703   1.847  0.2652 -0.3188 -0.1927
20668SOL    HW164636   0.608   8.697   1.756  0.3412 -0.4458 -0.1583
20668SOL    HW264637   0.643   8.756   1.892  1.2685 -1.8834  0.2505
20669SOL     OW64638   2.065   9.286   6.026  0.6417 -0.1997  0.0674
20669SOL    HW164639   2.037   9.324   6.109 -0.2495  1.0050 -0.7515
20669SOL    HW264640   2.160   9.280   6.033  0.6518  0.6856  0.8492
20670SOL     OW64641   9.769   6.971   0.516  0.7778 -0.3704  0.3033
20670SOL    HW164642   9.759   7.061   0.484 -0.0362 -1.1027 -1.6730
20670SOL    HW264643   9.739   6.974   0.607  0.1210  1.2281  0.0612
20671SOL     OW64644   6.497   8.379   2.180  0.2930 -0.6164  0.2109
20671SOL    HW164645   6.470   8.468   2.159  0.6518 -0.6599 -0.4706
20671SOL    HW264646   6.510   8.337   2.095  1.0091 -1.0446  0.5227
20672SOL     OW64647   8.063   3.942   0.906  0.3440 -0.0682 -0.2523
20672SOL    HW164648   8.070   3.961   1.000 -1.2455 -1.9343  0.3130
20672SOL    HW264649   7.992   3.999   0.875 -0.9310 -1.2956  0.3065
20673SOL     OW64650   8.755   9.331   6.338  0.3457  0.2290 -0.3539
20673SOL    HW164651   8.820   9.371   6.396 -0.0895  0.3496  0.0576
20673SOL    HW264652   8.674   9.332   6.389  0.5830 -2.3623  0.2009
20674SOL     OW64653   7.745   8.722  10.251  0.7327 -0.2066 -0.2440
20674SOL    HW164654   7.778   8.792  10.195  2.3029  0.7194  1.7139
20674SOL    HW264655   7.715   8.767  10.331  1.1988 -1.6804  0.8136
20675SOL     OW64656   1.189   3.445   4.097  0.8458  0.3379  0.2013
20675SOL    HW164657   1.104   3.484   4.117 -0.2141 -1.5447 -0.4271
20675SOL    HW264658   1.236   3.513   4.049 -0.2670  1.4280  0.6191
20676SOL     OW64659   9.704   6.929   6.672 -0.5979 -0.3522  0.1376
20676SOL    HW164660   9.658   6.954   6.591 -2.7538  0.7959  1.6327
20676SOL    HW264661   9.646   6.956   6.742  0.2321 -3.1801  2.0983
20677SOL     OW64662   0.715   0.728   9.051 -0.0776  0.3705 -0.0710
20677SOL    HW164663   0.716   0.764   8.962  0.6104 -0.3585 -0.3703
20677SOL    HW264664   0.719   0.805   9.108  0.2821  0.8156 -0.6875
20678SOL     OW64665   5.952   0.087   6.370 -0.3996 -0.4510  0.2797
20678SOL    HW164666   5.946   0.066   6.277 -2.1393  0.4153  0.1435
20678SOL    HW264667   5.961   0.003   6.413 -0.4068 -0.9304 -0.6231
20679SOL     OW64668   1.665   5.970   9.186 -0.4380  0.1748 -0.2620
20679SOL    HW164669   1.589   5.991   9.239  0.1932 -0.4616  0.9216
20679SOL    HW264670   1.740   5.988   9.243  0.2517 -0.5551 -0.9171
20680SOL     OW64671   3.658   3.561   7.432 -0.0067  0.1046  0.1921
20680SOL    HW164672   3.577   3.547   7.384  0.0570 -0.3100  0.2058
20680SOL    HW264673   3.638   3.538   7.522  0.1284 -0.0117  0.1936
20681SOL     OW64674   7.644   8.027   8.634 -0.3882  0.2026 -0.1610
20681SOL    HW164675   7.623   8.059   8.546 -1.8690 -1.2289 -0.3838
20681SOL    HW264676   7.641   8.105   8.689 -0.2453  1.0002 -1.2483
20682SOL     OW64677   2.521   9.150   1.835  0.2991 -0.0220 -0.4458
20682SOL    HW164678   2.454   9.084   1.850  0.2827  0.6520  3.1570
20682SOL    HW264679   2.604   9.103   1.840  0.2558  0.0356  1.2889
20683SOL     OW64680   3.336   8.059   8.018 -0.2442 -0.0699  0.1481
20683SOL    HW164681   3.397   8.130   7.996 -0.0927 -0.7938 -1.9992
20683SOL    HW264682   3.373   8.020   8.098  0.2081  1.6134  0.8152
20684SOL     OW64683   4.862   6.965   6.517 -0.4766  0.4435  0.3160
20684SOL    HW164684   4.859   6.942   6.610  0.1707  0.4179  0.3407
20684SOL    HW264685   4.950   7.001   6.505 -0.1389 -0.6238 -0.5322
20685SOL     OW64686   7.971   3.866   9.564 -0.1503  0.4362 -0.5634
20685SOL    HW164687   8.000   3.776   9.575  0.8536  0.9577  1.8746
20685SOL    HW264688   7.933   3.889   9.649 -1.6715  1.8865 -1.5794
20686SOL     OW64689   9.968   1.488   5.754  0.3973  0.0400  0.0030
20686SOL    HW164690   9.935   1.547   5.822 -0.3326 -0.2708 -0.0698
20686SOL    HW264691  10.031   1.540   5.705 -0.7870  1.0158 -0.5334
20687SOL     OW64692   2.135   2.658   2.230 -0.0672  0.0696  0.0615
20687SOL    HW164693   2.067   2.725   2.241  0.3487  0.6979 -1.0957
20687SOL    HW264694   2.098   2.597   2.166 -0.6515 -1.1337  1.4671
20688SOL     OW64695   4.538   7.758   7.766  0.2797 -0.7008  0.2881
20688SOL    HW164696   4.519   7.738   7.674 -0.7999  2.6695 -0.3647
20688SOL    HW264697   4.634   7.766   7.769  0.3216 -0.7589 -0.5460
20689SOL     OW64698   1.227   1.409   6.598 -0.0380  0.0645  0.3777
20689SOL    HW164699   1.306   1.461   6.606 -1.1573  1.6792  1.7652
20689SOL    HW264700   1.205   1.385   6.689 -0.7499 -0.9566 -0.0488
20690SOL     OW64701   5.222   6.641  10.158 -0.7284  0.5665 -0.1341
20690SOL    HW164702   5.161   6.569  10.144 -1.6019  0.7378  2.2679
20690SOL    HW264703   5.170   6.708  10.201  0.9185  1.0726  1.1815
20691SOL     OW64704   5.046   5.548   9.549 -0.7000  0.5004 -0.0017
20691SOL    HW164705   5.010   5.583   9.630 -0.1928 -1.6452  1.2066
20691SOL    HW264706   5.138   5.529   9.569  0.0271  1.8217 -1.7329
20692SOL     OW64707   5.825   5.605   8.468  0.4721  0.6303  0.2969
20692SOL    HW164708   5.731   5.587   8.477  0.2689  2.0262  1.4981
20692SOL    HW264709   5.866   5.559   8.541  0.8007 -0.3539 -0.4916
20693SOL     OW64710   3.388   0.523   2.240  0.3813  0.2125  0.0498
20693SOL    HW164711   3.396   0.594   2.303 -0.0192  0.1188  0.2058
20693SOL    HW264712   3.320   0.466   2.275 -0.4688  0.6100 -0.8816
20694SOL     OW64713   5.532   9.580   3.883  0.5333  0.0071 -0.5374
20694SOL    HW164714   5.612   9.536   3.852  0.0684 -0.0449 -1.6956
20694SOL    HW264715   5.467   9.561   3.816 -0.8323 -1.0384  1.0051
20695SOL     OW64716   1.492   5.310   7.689 -0.4540 -0.1123  0.1477
20695SOL    HW164717   1.562   5.355   7.736  0.0804  0.4608 -1.1590
20695SOL    HW264718   1.416   5.368   7.696 -0.5701 -0.3477  0.8674
20696SOL     OW64719   8.999   7.765   8.135 -0.1308  0.3517 -0.4554
20696SOL    HW164720   9.048   7.742   8.214  0.1918 -0.2792 -0.8251
20696SOL    HW264721   8.952   7.845   8.158  0.4077  0.4970  0.1894
20697SOL     OW64722   4.583   4.218   3.185 -0.1060 -1.0317  0.1270
20697SOL    HW164723   4.622   4.196   3.270  1.3975 -0.7165 -0.4480
20697SOL    HW264724   4.613   4.149   3.126 -1.6428 -1.5910 -0.0510
20698SOL     OW64725   6.160   3.397   1.918 -0.2475  0.4583 -0.5448
20698SOL    HW164726   6.234   3.453   1.941  0.7087 -0.4804 -1.2123
20698SOL    HW264727   6.082   3.451   1.933  0.2925  0.4061  3.5557
20699SOL     OW64728   9.323   0.347   5.428  0.2399  0.0337  0.3511
20699SOL    HW164729   9.357   0.260   5.450  1.2696  0.3741  0.1751
20699SOL    HW264730   9.238   0.351   5.471 -0.0006 -1.2117  0.0246
20700SOL     OW64731   6.609   3.279   3.795  0.3142 -0.4407  0.3098
20700SOL    HW164732   6.670   3.226   3.847 -0.7360 -1.1492  0.8772
20700SOL    HW264733   6.600   3.360   3.844  0.0426 -0.7377  0.7630
20701SOL     OW64734  10.035   4.848   2.145  0.3592  0.1092 -0.3253
20701SOL    HW164735  10.068   4.758   2.146  1.5444  0.5191  0.0904
20701SOL    HW264736   9.958   4.845   2.089  0.1068 -1.2516  0.0400
20702SOL     OW64737   5.575   7.365   9.645  0.5825 -0.0538 -0.1701
20702SOL    HW164738   5.517   7.432   9.609  0.4493 -0.1172 -0.0780
20702SOL    HW264739   5.648   7.360   9.585  0.0953 -0.5592 -0.7413
20703SOL     OW64740   4.780   9.788   9.699  0.0631 -0.4693  0.1747
20703SOL    HW164741   4.860   9.840   9.696 -0.0397 -0.3689 -1.4091
20703SOL    HW264742   4.776   9.744   9.614 -1.0663 -1.2370  0.5924
20704SOL     OW64743   6.547   2.398   2.888 -0.8159  0.2908  0.4247
20704SOL    HW164744   6.617   2.418   2.825  1.4539 -0.4031  2.5587
20704SOL    HW264745   6.475   2.365   2.834  0.7446  0.3364 -1.8545
20705SOL     OW64746   2.233   4.569   6.850  0.5435 -0.3987  0.6726
20705SOL    HW164747   2.277   4.579   6.766  2.5861 -0.9273  1.6197
20705SOL    HW264748   2.247   4.652   6.895 -0.4272 -0.1633  0.5482
20706SOL     OW64749   7.361   7.349   8.282 -0.0866  0.3825 -0.2110
20706SOL    HW164750   7.284   7.363   8.338 -0.3342  2.4696 -0.9706
20706SOL    HW264751   7.411   7.281   8.327 -0.7063  1.3347  2.0997
20707SOL     OW64752   4.540   9.549   3.964  0.3098  0.6229  0.5764
20707SOL    HW164753   4.538   9.526   3.871  1.5409 -0.9898  0.9016
20707SOL    HW264754   4.477   9.621   3.972  0.8613  1.4682 -1.6658
20708SOL     OW64755   6.237   6.947   3.005  0.5549 -0.4014 -0.5298
20708SOL    HW164756   6.223   7.039   3.029 -3.5336 -0.9359 -0.1488
20708SOL    HW264757   6.221   6.898   3.086 -2.4239 -1.6101 -1.6934
20709SOL     OW64758   6.158   2.120   0.804  0.5013 -0.0774  0.1373
20709SOL    HW164759   6.070   2.140   0.770  0.4344  1.1862  1.0100
20709SOL    HW264760   6.171   2.028   0.782 -0.1990  0.2360 -1.8477
20710SOL     OW64761   7.226   9.668   5.217 -0.1513  0.4579 -0.9167
20710SOL    HW164762   7.173   9.614   5.277  1.3605  1.5102  1.5200
20710SOL    HW264763   7.189   9.756   5.224  0.7055  0.8079 -0.6791
20711SOL     OW64764   2.356   6.605   6.286 -0.1097  1.2977 -0.3203
20711SOL    HW164765   2.287   6.576   6.227 -0.0499  0.6525 -0.0835
20711SOL    HW264766   2.348   6.547   6.362 -0.4675  2.4033  0.5011
20712SOL     OW64767   8.358   7.702   9.046 -0.6960 -0.2409  0.0209
20712SOL    HW164768   8.263   7.714   9.045 -0.8210 -1.0677 -1.1916
20712SOL    HW264769   8.376   7.657   9.128 -1.3663 -0.1564  0.2202
20713SOL     OW64770   7.259   5.162   8.399 -0.2142  0.2289 -0.5316
20713SOL    HW164771   7.249   5.087   8.339 -1.9367  1.1160 -1.4553
20713SOL    HW264772   7.170   5.196   8.408 -0.3381 -0.7180  3.7908
20714SOL     OW64773   6.676   4.535   9.306  0.1590  0.2802  0.6180
20714SOL    HW164774   6.766   4.527   9.277  0.0997 -0.1275  0.5454
20714SOL    HW264775   6.637   4.450   9.289 -0.1601  0.3604  0.9224
20715SOL     OW64776   8.729   1.447   8.646  0.1780  0.1348  0.0941
20715SOL    HW164777   8.660   1.382   8.631  1.6776 -1.3468 -0.7125
20715SOL    HW264778   8.719   1.509   8.574  0.8234 -1.1278 -1.1243
20716SOL     OW64779   2.819   1.280   4.257  0.0544  0.2370  0.2374
20716SOL    HW164780   2.841   1.372   4.244 -1.1686  0.6984  1.2474
20716SOL    HW264781   2.761   1.259   4.184  0.5127  0.1965 -0.1189
20717SOL     OW64782   5.532   2.019   4.454 -0.3598  0.2520  0.4047
20717SOL    HW164783   5.578   2.098   4.427  0.8833  0.2122  2.2466
20717SOL    HW264784   5.591   1.947   4.431 -0.5058  0.0271  0.7201
20718SOL     OW64785   2.807   1.551   9.150  0.6839 -0.6019 -0.4694
20718SOL    HW164786   2.791   1.644   9.133 -0.5505 -0.8143 -0.5544
20718SOL    HW264787   2.728   1.507   9.120  0.7749 -1.5701  0.6335
20719SOL     OW64788   6.662   0.614   0.372  0.3114 -0.2043 -0.1988
20719SOL    HW164789   6.740   0.652   0.413  0.2124  0.9972 -1.0638
20719SOL    HW264790   6.640   0.539   0.427  1.0419  0.4753  1.0729
20720SOL     OW64791   6.711   8.094   9.440 -0.6481 -0.3691 -0.0401
20720SOL    HW164792   6.772   8.107   9.513  1.1166 -0.2539 -1.4900
20720SOL    HW264793   6.648   8.030   9.474  1.6881 -2.4076  0.7214
20721SOL     OW64794   9.463   5.630   1.218  0.1052 -0.1278 -0.3214
20721SOL    HW164795   9.555   5.637   1.245 -0.1392 -0.3113  0.5810
20721SOL    HW264796   9.413   5.657   1.295 -0.6278 -1.6824 -0.2120
20722SOL     OW64797   0.471   0.356   9.946 -0.0981  0.4358  0.1151
20722SOL    HW164798   0.389   0.399   9.967  0.0053  0.9278 -0.4748
20722SOL    HW264799   0.524   0.366  10.025 -0.9227 -0.6978  0.8443
20723SOL     OW64800  10.282   8.163   6.591 -0.1669  0.0665  0.0334
20723SOL    HW164801  10.310   8.237   6.536 -0.3882 -0.4730 -0.8248
20723SOL    HW264802  10.361   8.137   6.638  0.5169 -0.6401 -1.4324
20724SOL     OW64803   0.374   9.948   1.386  0.0343  0.2135 -0.3930
20724SOL    HW164804   0.314   9.959   1.460  1.0548  0.2600  0.4634
20724SOL    HW264805   0.380  10.035   1.346  0.3430  0.4609  0.1771
20725SOL     OW64806   8.486   4.941   3.305 -0.3419  0.0607  0.2193
20725SOL    HW164807   8.439   5.012   3.260 -1.5740 -0.4922  0.5932
20725SOL    HW264808   8.460   4.862   3.259 -0.4672 -0.3553  0.9908
20726SOL     OW64809   6.633   4.787   9.277  0.4181 -0.4840  0.5254
20726SOL    HW164810   6.551   4.784   9.326 -1.2532  0.2311 -1.9876
20726SOL    HW264811   6.655   4.695   9.261  0.2604 -0.6894  1.4221
20727SOL     OW64812   7.223  10.111   6.834  0.0205  0.2824  0.6462
20727SOL    HW164813   7.283  10.132   6.762 -0.3039 -1.0860 -0.0534
20727SOL    HW264814   7.190  10.024   6.814 -1.3265  0.5241  1.6333
20728SOL     OW64815   7.394   5.646   5.737  0.2211  0.2260 -0.0501
20728SOL    HW164816   7.481   5.622   5.770 -0.1511  0.7065  1.3694
20728SOL    HW264817   7.408   5.725   5.686  1.0046 -1.2117 -2.1917
20729SOL     OW64818   4.943   9.277   7.009  0.0381 -0.3977  0.6516
20729SOL    HW164819   4.915   9.228   7.086 -0.8093  0.2840  0.7947
20729SOL    HW264820   5.009   9.338   7.043 -0.7224  0.2717  0.9512
20730SOL     OW64821   1.802   6.117   7.777 -0.3084  0.1237  0.2188
20730SOL    HW164822   1.855   6.079   7.847 -1.3159  0.2457  1.0782
20730SOL    HW264823   1.825   6.210   7.779 -0.0986  0.0743  0.1670
20731SOL     OW64824   1.954   2.434   4.163  0.6137  0.2054 -0.3259
20731SOL    HW164825   1.912   2.481   4.091  0.4794 -0.1737 -0.4976
20731SOL    HW264826   2.036   2.481   4.178  1.3875 -0.5945 -1.7598
20732SOL     OW64827   2.258   3.538   9.812  0.6061 -0.2738 -0.1441
20732SOL    HW164828   2.187   3.553   9.874  1.7594 -0.7094  1.3130
20732SOL    HW264829   2.213   3.513   9.731 -0.8828 -1.2927  0.9440
20733SOL     OW64830   0.602   1.489   6.092 -0.5185  0.6500  0.0656
20733SOL    HW164831   0.626   1.572   6.132 -0.9763 -0.1881  2.2497
20733SOL    HW264832   0.607   1.426   6.164 -1.8233 -0.9076 -1.1395
20734SOL     OW64833  10.308   5.659   3.899 -0.5565  0.2615 -0.0432
20734SOL    HW164834  10.324   5.732   3.959  0.5413  0.1719 -0.1965
20734SOL    HW264835  10.292   5.584   3.956  1.4971 -0.0479  0.2100
20735SOL     OW64836   2.516   5.284   6.555  0.5259  0.8307  0.1995
20735SOL    HW164837   2.469   5.351   6.504  0.7093  0.6879 -0.1605
20735SOL    HW264838   2.450   5.248   6.614  0.5389  1.6715  0.7428
20736SOL     OW64839   6.154   7.525   1.535 -0.2939  0.3852  0.5427
20736SOL    HW164840   6.074   7.493   1.577  0.3053 -0.6453  0.9394
20736SOL    HW264841   6.162   7.474   1.455 -0.0040  0.4384  0.5341
20737SOL     OW64842   6.400   2.249   2.645  0.6468  0.4728  0.2318
20737SOL    HW164843   6.365   2.175   2.595  0.6504  1.4612 -1.3227
20737SOL    HW264844   6.332   2.269   2.709 -1.2627  1.6859 -2.0467
20738SOL     OW64845   5.021   2.116   8.065 -0.3556 -0.0042 -0.1360
20738SOL    HW164846   5.064   2.099   8.149  1.1207  1.1914 -0.5973
20738SOL    HW264847   5.083   2.085   8.000 -0.8120  0.4801 -0.8106
20739SOL     OW64848   0.003   6.417   6.207 -0.3051 -0.0628  0.4021
20739SOL    HW164849  -0.057   6.483   6.171 -1.1448 -0.5009  0.9528
20739SOL    HW264850   0.088   6.438   6.169 -0.9717  0.0438 -1.0884
20740SOL     OW64851   8.141   6.480   7.581 -0.4232 -0.0213  0.3945
20740SOL    HW164852   8.161   6.404   7.527 -1.7462 -0.0029 -0.1587
20740SOL    HW264853   8.127   6.551   7.519 -0.2158  0.4365  0.8569
20741SOL     OW64854   4.215   9.223   1.432  0.0047  0.2918 -0.4769
20741SOL    HW164855   4.172   9.187   1.510  0.3041 -0.6976 -0.7627
20741SOL    HW264856   4.296   9.172   1.423  0.4246  1.0185 -0.9066
20742SOL     OW64857   7.859   1.149   6.184  0.6250  0.2039  0.2856
20742SOL    HW164858   7.886   1.111   6.268  0.1019  0.9497  0.7945
20742SOL    HW264859   7.889   1.239   6.188  0.7284  0.1983 -0.3968
20743SOL     OW64860   4.420   7.693   5.188 -0.2519 -0.1843  0.0403
20743SOL    HW164861   4.376   7.762   5.237 -2.5739 -0.5503 -1.3854
20743SOL    HW264862   4.352   7.655   5.132  1.6898 -1.4376 -1.6390
20744SOL     OW64863   2.963   5.918   1.118 -0.2826 -0.4363  0.7355
20744SOL    HW164864   2.931   5.833   1.088  1.2995 -0.9926  0.5758
20744SOL    HW264865   3.047   5.900   1.159  0.6940  1.1982 -0.4070
20745SOL     OW64866   4.954   9.209   8.834 -0.4903  0.1434  0.3082
20745SOL    HW164867   4.918   9.162   8.909 -1.7338 -1.8726 -1.4499
20745SOL    HW264868   4.878   9.230   8.780  0.5627 -0.5316 -1.5111
20746SOL     OW64869   7.355   0.078   4.694  0.2780 -0.2352 -0.0836
20746SOL    HW164870   7.386   0.162   4.726 -2.1826  0.5524  0.4824
20746SOL    HW264871   7.264   0.094   4.669 -0.2935 -2.7208  0.0951
20747SOL     OW64872   7.198   6.167   3.659  0.6738 -0.4652 -0.6160
20747SOL    HW164873   7.261   6.172   3.587 -1.6919  1.0423 -2.7941
20747SOL    HW264874   7.231   6.226   3.726  1.3010  0.7721 -1.9661
20748SOL     OW64875   2.894   5.684   2.668  0.0350  0.1951 -0.7107
20748SOL    HW164876   2.876   5.778   2.669 -0.9594  0.0694 -2.8502
20748SOL    HW264877   2.809   5.643   2.656  0.5456 -0.9656 -0.4826
20749SOL     OW64878   7.096   4.900   3.390  0.3301  0.4223 -0.0439
20749SOL    HW164879   7.110   4.964   3.459 -0.5726  0.6384 -0.0467
20749SOL    HW264880   7.110   4.949   3.309  1.9575  0.0331 -0.0391
20750SOL     OW64881   2.879   2.148   1.798  0.2394  0.0700  0.1661
20750SOL    HW164882   2.829   2.123   1.721  0.3210 -1.5353  0.5969
20750SOL    HW264883   2.951   2.085   1.801 -0.3936 -0.6390  2.1575
20751SOL     OW64884   2.481   5.535   6.400  0.0194 -0.2381 -0.5537
20751SOL    HW164885   2.406   5.549   6.342 -0.2667  1.6550  0.1977
20751SOL    HW264886   2.461   5.588   6.478  2.4260  0.8881 -0.6265
20752SOL     OW64887   1.558   1.709   7.422 -0.3364 -0.0265  0.3884
20752SOL    HW164888   1.529   1.679   7.508 -1.7698 -1.4212 -0.5284
20752SOL    HW264889   1.531   1.801   7.419 -2.5405 -0.6092  0.5564
20753SOL     OW64890   5.452   1.763  10.221 -0.1671 -0.2364  0.3595
20753SOL    HW164891   5.493   1.699  10.162 -0.8349 -0.2095 -0.1408
20753SOL    HW264892   5.425   1.834  10.164  1.0565  0.7747  0.9759
20754SOL     OW64893   6.908   2.377   7.383 -0.4165 -0.0396 -0.2654
20754SOL    HW164894   6.829   2.325   7.369  0.7180 -1.8404 -0.3518
20754SOL    HW264895   6.979   2.312   7.389  1.0608  1.4991 -0.1920
20755SOL     OW64896   9.350   5.057   7.046  0.5220 -1.0061  0.1089
20755SOL    HW164897   9.299   5.137   7.031  1.3636 -0.0618  1.9065
20755SOL    HW264898   9.359   5.017   6.960 -0.0817  0.7537 -0.8108
20756SOL     OW64899   3.346   3.547   7.984  0.3047  0.1619 -0.2064
20756SOL    HW164900   3.292   3.495   7.925 -0.7638  1.3707 -0.3443
20756SOL    HW264901   3.283   3.597   8.036  1.2627  0.2604  0.9024
20757SOL     OW64902   9.568   0.476   8.834  0.9052 -0.2308 -0.6750
20757SOL    HW164903   9.643   0.529   8.859  0.6112  0.6356 -1.5658
20757SOL    HW264904   9.578   0.395   8.883  1.2392  0.7273  0.9207
20758SOL     OW64905   6.230   3.995   1.602 -0.1591  0.1337 -0.0022
20758SOL    HW164906   6.175   4.074   1.599  1.4501  1.5014  2.3066
20758SOL    HW264907   6.177   3.931   1.648 -0.3507  1.0300  1.0932
20759SOL     OW64908   8.628   4.270   1.377 -0.3125 -0.6792 -0.1966
20759SOL    HW164909   8.643   4.176   1.383 -0.6430 -0.8602 -1.7965
20759SOL    HW264910   8.705   4.304   1.331 -0.7503 -0.3566 -0.7126
20760SOL     OW64911   5.390   5.678   4.656  0.3036 -0.3975  0.1117
20760SOL    HW164912   5.429   5.677   4.569  1.6977 -0.0975  0.7015
20760SOL    HW264913   5.464   5.693   4.715 -0.7388  0.3768  1.2776
20761SOL     OW64914   0.293   9.972   6.599 -0.7092  0.2396  0.3175
20761SOL    HW164915   0.317  10.057   6.563 -0.4349  0.9514  2.0827
20761SOL    HW264916   0.367   9.947   6.654 -0.4326 -1.5516 -0.7738
20762SOL     OW64917   5.847   2.296   5.648 -0.2315 -0.2225 -0.0340
20762SOL    HW164918   5.924   2.246   5.621 -0.9134 -1.9228  1.0132
20762SOL    HW264919   5.773   2.241   5.621 -1.1753  1.9023 -2.0784
20763SOL     OW64920   7.437   9.907   1.734  0.5551 -0.1022 -0.2736
20763SOL    HW164921   7.526   9.941   1.723  0.5289  0.1691  0.3398
20763SOL    HW264922   7.443   9.816   1.704  1.1789 -0.2622  0.3095
20764SOL     OW64923   9.711   8.864   8.962 -0.3441 -0.4436  0.0716
20764SOL    HW164924   9.743   8.879   9.051 -0.3555 -0.1612  0.0313
20764SOL    HW264925   9.616   8.857   8.972 -0.3843 -0.0074  0.0345
20765SOL     OW64926   4.212   3.360   2.744  0.5840  0.7861  0.6205
20765SOL    HW164927   4.163   3.429   2.700  0.3464 -0.6903 -1.5968
20765SOL    HW264928   4.284   3.405   2.789 -0.7905  2.6311  1.0730
20766SOL     OW64929   9.598   1.226   5.537 -0.0193 -0.4463 -0.5181
20766SOL    HW164930   9.634   1.141   5.563  0.1701 -0.1454  0.2538
20766SOL    HW264931   9.620   1.284   5.611 -1.4242 -0.0795 -0.3680
20767SOL     OW64932   7.437   8.501   8.877  0.1061 -0.3520  0.2789
20767SOL    HW164933   7.356   8.472   8.836  0.0736 -1.3508  1.0067
20767SOL    HW264934   7.414   8.514   8.969  0.4778  0.5983  0.2475
20768SOL     OW64935   7.781   0.617   7.017 -0.3587  0.3479  0.0552
20768SOL    HW164936   7.706   0.574   7.059  0.2205 -0.0421  0.7257
20768SOL    HW264937   7.816   0.551   6.957 -1.1038  0.8590 -0.9548
20769SOL     OW64938   4.213   8.804   6.626  0.2595 -0.5651  0.3990
20769SOL    HW164939   4.121   8.830   6.637  0.1844 -0.0157 -1.2395
20769SOL    HW264940   4.218   8.716   6.663 -0.4771  0.1220  2.2202
20770SOL     OW64941   6.684   2.412   2.001 -0.4867 -0.0764  0.5735
20770SOL    HW164942   6.733   2.491   1.979 -2.0578  0.9872  0.7826
20770SOL    HW264943   6.636   2.390   1.921  2.1105 -2.5865 -0.4992
20771SOL     OW64944   0.499   4.037   2.616  0.3785 -0.1142 -0.2404
20771SOL    HW164945   0.522   4.062   2.705 -1.8692  0.5095  0.2315
20771SOL    HW264946   0.511   3.942   2.614 -2.0300 -0.5417  1.6113
20772SOL     OW64947   6.366   7.815   1.466  0.1486  0.1574  0.2081
20772SOL    HW164948   6.309   7.748   1.430 -0.7845 -0.1776  2.2207
20772SOL    HW264949   6.437   7.823   1.402 -0.9735 -1.0103 -1.2328
20773SOL     OW64950   5.249   1.311   7.431  0.1309  0.7079  0.1747
20773SOL    HW164951   5.176   1.257   7.399  0.0013 -0.1814  1.8487
20773SOL    HW264952   5.250   1.296   7.526  1.5977  1.8315  0.3717
20774SOL     OW64953   9.610   9.654   3.572  0.2997  0.1223 -0.5956
20774SOL    HW164954   9.542   9.718   3.551  0.3536  0.7039  0.8599
20774SOL    HW264955   9.575   9.570   3.542 -0.8727  0.4791 -0.2678
20775SOL     OW64956   4.499   7.004   3.796  0.5459  0.1276  0.0532
20775SOL    HW164957   4.566   7.040   3.739  0.6837  0.8333  0.6358
20775SOL    HW264958   4.448   6.946   3.741  1.5202 -0.2670 -0.4397
20776SOL     OW64959   9.333   5.754   4.333  0.1795  0.3152  0.2523
20776SOL    HW164960   9.346   5.737   4.426  0.1077  1.4302  0.4837
20776SOL    HW264961   9.361   5.845   4.321 -1.0031  0.6039 -0.5488
20777SOL     OW64962   4.389   2.796   2.497  0.3193  0.1272 -0.1912
20777SOL    HW164963   4.404   2.715   2.448 -2.2019 -0.4798 -0.1050
20777SOL    HW264964   4.323   2.843   2.445  0.4810  1.3299  0.6464
20778SOL     OW64965   8.268   5.751   9.036 -0.3597  0.0028  0.9952
20778SOL    HW164966   8.324   5.684   8.995 -0.7403 -0.2127  0.8173
20778SOL    HW264967   8.329   5.812   9.076  0.0903  0.8521 -0.8517
20779SOL     OW64968   6.649   9.943   3.567  0.1319  0.3060 -0.1168
20779SOL    HW164969   6.651  10.037   3.553 -2.0366  0.2460 -1.1384
20779SOL    HW264970   6.568   9.927   3.615  0.9520 -0.9591  0.9122
20780SOL     OW64971   3.612   2.071   6.330 -0.4940  0.4513 -0.2504
20780SOL    HW164972   3.616   2.067   6.235  2.9981  1.9901 -0.3286
20780SOL    HW264973   3.555   2.145   6.350 -1.5816 -0.1362 -1.0712
20781SOL     OW64974   0.816   7.366   7.162  0.4605 -0.0990  0.3038
20781SOL    HW164975   0.761   7.293   7.135  0.1908  0.3525 -0.4046
20781SOL    HW264976   0.836   7.348   7.254  1.0838 -1.4832 -0.0762
20782SOL     OW64977   4.223  10.018   8.342 -0.2386  0.2073  0.0341
20782SOL    HW164978   4.272  10.048   8.419  1.4668 -0.1227 -0.8725
20782SOL    HW264979   4.159   9.956   8.377  0.1888  0.4174  1.2361
20783SOL     OW64980   3.636   0.810   5.583 -0.0707 -0.0993  1.1777
20783SOL    HW164981   3.540   0.806   5.574  0.0327  0.6478 -0.7325
20783SOL    HW264982   3.659   0.899   5.555  1.2811 -0.6343  0.5207
20784SOL     OW64983   0.302   9.446   6.968 -0.4312  0.1576 -0.0645
20784SOL    HW164984   0.209   9.442   6.948 -0.8412  0.3160  1.6661
20784SOL    HW264985   0.310   9.517   7.032  0.6104 -0.9573  1.0983
20785SOL     OW64986   7.443   5.329   4.148 -0.0245  0.2331  0.0565
20785SOL    HW164987   7.500   5.317   4.224  0.2924  0.8812 -0.0713
20785SOL    HW264988   7.501   5.319   4.073 -0.2192  0.1925 -0.0877
20786SOL     OW64989   7.323  10.198   1.618 -0.1963 -0.0727 -0.6758
20786SOL    HW164990   7.356  10.230   1.702  1.8461  0.5387 -1.6516
20786SOL    HW264991   7.329  10.103   1.625 -0.4901 -0.0494  0.0200
20787SOL     OW64992   9.361   1.776   4.499 -0.1870  0.6004  0.0063
20787SOL    HW164993   9.303   1.745   4.569  0.3381 -0.0312  0.1782
20787SOL    HW264994   9.322   1.858   4.470 -0.9589  0.3738  0.3696
20788SOL     OW64995   4.017   4.637   4.594  1.0071  0.1861 -0.0589
20788SOL    HW164996   4.022   4.561   4.536  2.0922 -0.5117  0.9145
20788SOL    HW264997   4.030   4.712   4.536 -1.1973 -0.2270 -1.2301
20789SOL     OW64998   1.154   3.141   4.429  0.1846 -0.1072  0.2450
20789SOL    HW164999   1.068   3.176   4.450 -0.9724 -1.5825 -1.7617
20789SOL    HW265000   1.168   3.072   4.495 -1.3845 -1.6187 -0.9066
20790SOL     OW65001   2.349   0.150  10.169 -0.3363  0.0934  0.0589
20790SOL    HW165002   2.352   0.058  10.143 -0.1832 -0.0930  0.7357
20790SOL    HW265003   2.263   0.180  10.141  0.2603  0.2393 -1.7968
20791SOL     OW65004   7.765   1.593   5.675  0.4719 -0.4704 -0.0328
20791SOL    HW165005   7.712   1.514   5.661  0.7279 -0.5625 -0.4973
20791SOL    HW265006   7.730   1.631   5.756  0.1621 -0.9089  0.0437
20792SOL     OW65007   1.955   2.842   9.589 -0.6059  0.1906 -0.0984
20792SOL    HW165008   1.983   2.778   9.524  1.0945  0.7067  0.0772
20792SOL    HW265009   1.869   2.811   9.618 -0.9554 -0.5816 -1.8588
20793SOL     OW65010   7.825   6.135   9.653  0.6023 -0.2774 -0.2207
20793SOL    HW165011   7.870   6.087   9.584  0.9471  0.5865 -0.6098
20793SOL    HW265012   7.739   6.156   9.615 -0.2627 -2.1134  0.5982
20794SOL     OW65013   1.726   2.182   2.629  0.5870  0.5237 -0.2086
20794SOL    HW165014   1.669   2.107   2.647  1.8252 -0.4507 -0.2413
20794SOL    HW265015   1.722   2.235   2.709  1.2425 -0.6067  0.5921
20795SOL     OW65016   7.203   8.818   3.482 -0.1410  0.2859 -0.8714
20795SOL    HW165017   7.214   8.755   3.411  1.4614  0.9138 -1.2291
20795SOL    HW265018   7.237   8.900   3.447 -0.4088  0.8914  0.2340
20796SOL     OW65019   8.539   1.285   0.889  0.9465 -0.5123 -0.4127
20796SOL    HW165020   8.488   1.205   0.877  0.2288  0.0468 -1.2328
20796SOL    HW265021   8.520   1.313   0.978  0.4014 -0.7124 -0.4610
20797SOL     OW65022   7.328   6.233   0.286 -0.1987 -0.3942  0.2412
20797SOL    HW165023   7.283   6.173   0.345 -0.1126 -0.1192  0.5908
20797SOL    HW265024   7.365   6.177   0.217 -0.1089 -0.7400  0.5719
20798SOL     OW65025   8.954   3.267   2.329  0.0311 -0.5355  0.1537
20798SOL    HW165026   9.042   3.234   2.308 -0.8264 -1.8151 -1.7074
20798SOL    HW265027   8.920   3.205   2.393  0.3101 -0.3088  0.5231
20799SOL     OW65028   8.453   1.282   6.202  0.0673 -0.0534 -0.4369
20799SOL    HW165029   8.409   1.343   6.142 -1.9393  1.6238  2.4846
20799SOL    HW265030   8.411   1.198   6.185  1.6393 -0.4029 -3.3063
20800SOL     OW65031   1.249   1.311   2.201 -0.2562  0.7990 -0.4702
20800SOL    HW165032   1.267   1.245   2.269 -0.5299  0.3757 -0.8065
20800SOL    HW265033   1.271   1.394   2.243 -0.1556  0.5189  0.0473
20801SOL     OW65034   8.444   0.705   0.547 -0.1523  0.3456  0.0311
20801SOL    HW165035   8.515   0.704   0.483 -0.0960 -1.4150  0.0726
20801SOL    HW265036   8.446   0.793   0.584  1.3312  0.6469 -0.7038
20802SOL     OW65037   4.522   3.177   8.906  0.3559 -0.0834 -0.0860
20802SOL    HW165038   4.529   3.242   8.976 -0.7581  2.9333 -2.5068
20802SOL    HW265039   4.453   3.117   8.935 -0.9557  1.8078  0.9011
20803SOL     OW65040   9.504   2.471   5.139  0.5817 -0.0669  0.1089
20803SOL    HW165041   9.518   2.427   5.056  1.1099  1.9288 -0.9115
20803SOL    HW265042   9.570   2.433   5.198  1.8411  0.1964 -1.0812
20804SOL     OW65043   9.112   1.394   2.591  1.0688  0.7309  0.3148
20804SOL    HW165044   9.139   1.475   2.548  1.9051  1.1362  1.5637
20804SOL    HW265045   9.116   1.413   2.684 -1.0870 -0.0127  0.6169
20805SOL     OW65046   1.564   4.430  10.158 -0.2064  0.0244 -0.0288
20805SOL    HW165047   1.526   4.502  10.107 -0.6609  0.2689  0.6315
20805SOL    HW265048   1.521   4.437  10.244 -0.4567 -1.2077 -0.0352
20806SOL     OW65049   5.465   6.370   9.726 -0.1828  0.1036 -0.2957
20806SOL    HW165050   5.438   6.293   9.777  0.1189 -0.1578 -0.5219
20806SOL    HW265051   5.391   6.430   9.732 -0.2831 -0.0595  0.1788
20807SOL     OW65052   2.288   4.163   5.373  0.5277  0.2396 -0.0679
20807SOL    HW165053   2.264   4.143   5.283  0.9499  0.6105 -0.2691
20807SOL    HW265054   2.216   4.128   5.426  0.2387  0.0945 -0.5523
20808SOL     OW65055   5.645   3.358   2.431 -0.2349  0.0499 -0.0734
20808SOL    HW165056   5.556   3.374   2.460 -0.5307  1.6891 -1.7012
20808SOL    HW265057   5.700   3.395   2.500 -0.8022 -0.4610  0.6609
20809SOL     OW65058   2.145   3.683   0.234 -0.3670 -0.1034 -0.0069
20809SOL    HW165059   2.139   3.614   0.300  2.1571 -1.3108 -0.9101
20809SOL    HW265060   2.237   3.708   0.232 -0.7677  1.5132 -1.4930
20810SOL     OW65061   6.735   0.091   0.166  0.1325 -0.2154 -0.0503
20810SOL    HW165062   6.691   0.013   0.132 -0.9640  0.2886  0.1764
20810SOL    HW265063   6.791   0.120   0.094 -1.8014  0.5642 -1.3541
20811SOL     OW65064   8.145   8.387   8.120  0.6559 -0.1882  0.4737
20811SOL    HW165065   8.140   8.298   8.153 -0.0932 -0.2312  0.2691
20811SOL    HW265066   8.075   8.393   8.055  0.4665  0.6477  0.7351
20812SOL     OW65067   0.483   4.507   8.595 -0.3078 -0.2274  0.1306
20812SOL    HW165068   0.570   4.468   8.606 -0.3561 -0.5754 -0.6597
20812SOL    HW265069   0.432   4.439   8.550 -0.9867 -0.0235  0.5842
20813SOL     OW65070   9.018   7.832   8.994 -0.0740  0.4959  0.2213
20813SOL    HW165071   8.939   7.862   9.039  0.7522  0.2971  1.8848
20813SOL    HW265072   9.058   7.911   8.959  0.0240  0.8624  1.1348
20814SOL     OW65073   7.951   0.812  10.131 -0.4188 -0.4723 -0.0961
20814SOL    HW165074   8.036   0.806  10.174  0.0864 -0.0576 -1.0145
20814SOL    HW265075   7.959   0.757  10.053 -1.0321 -0.5294 -0.1256
20815SOL     OW65076   1.364   4.341   8.524 -0.3266 -0.0644  0.0698
20815SOL    HW165077   1.283   4.380   8.558 -1.8070 -3.6365  1.0409
20815SOL    HW265078   1.410   4.309   8.602  0.4110 -0.9175 -0.6971
20816SOL     OW65079   6.026   7.758   8.128 -0.1496 -0.0401  0.1242
20816SOL    HW165080   6.091   7.693   8.104 -0.5014 -0.6177  0.7257
20816SOL    HW265081   5.984   7.723   8.206 -0.8607  0.5479  0.0182
20817SOL     OW65082   0.869   3.506   1.331  0.3193  0.6896  0.1733
20817SOL    HW165083   0.945   3.464   1.372 -0.3465  0.0687  0.8155
20817SOL    HW265084   0.795   3.452   1.359 -0.1792  0.2661 -1.8160
20818SOL     OW65085   8.202   8.274  10.199 -0.1662 -0.3526 -0.1721
20818SOL    HW165086   8.247   8.223  10.267  0.9792  0.6205 -0.1768
20818SOL    HW265087   8.195   8.215  10.125 -0.4711 -1.0866  0.4327
20819SOL     OW65088   2.414   9.525   6.159 -0.0589 -0.3794  0.0466
20819SOL    HW165089   2.425   9.437   6.123  2.1998  0.1647 -0.8175
20819SOL    HW265090   2.353   9.568   6.099 -1.4709 -1.4495  0.6918
20820SOL     OW65091   2.033   3.242   2.878  0.1459  0.3734 -0.6231
20820SOL    HW165092   2.024   3.212   2.968  2.3210 -2.0778 -1.1076
20820SOL    HW265093   1.947   3.226   2.839 -0.1852 -0.6295  0.4622
20821SOL     OW65094   9.922   8.226   9.833 -0.2784 -0.5241 -0.5357
20821SOL    HW165095  10.005   8.235   9.786 -0.8082 -3.1641 -2.1889
20821SOL    HW265096   9.856   8.222   9.764 -1.9246  2.0259  0.7686
20822SOL     OW65097   6.671   7.318  10.161  0.4765  0.1347 -0.7615
20822SOL    HW165098   6.668   7.253  10.231 -1.6084  2.0704  1.0419
20822SOL    HW265099   6.645   7.269  10.082 -1.7601 -1.1104  0.6609
20823SOL     OW65100   1.338   2.556   3.646 -0.4320  0.1310 -0.4129
20823SOL    HW165101   1.259   2.520   3.687 -0.8441  0.0048 -1.3001
20823SOL    HW265102   1.314   2.568   3.554  1.1648 -1.6964 -1.1361
20824SOL     OW65103   6.127   4.226   2.933 -0.4757 -0.4299  0.1370
20824SOL    HW165104   6.173   4.294   2.982  0.9270 -1.9389  1.0484
20824SOL    HW265105   6.182   4.212   2.855 -1.5769  0.4951 -0.8494
20825SOL     OW65106   7.201   9.910   6.456 -0.1538 -0.2821  0.1879
20825SOL    HW165107   7.278   9.963   6.476 -0.7400  0.7121 -0.1437
20825SOL    HW265108   7.132   9.944   6.513 -0.4736 -0.8742  0.1739
20826SOL     OW65109   9.367   6.515   2.702 -0.3265 -0.3533 -0.0973
20826SOL    HW165110   9.456   6.547   2.687 -0.1761 -1.3674 -1.5503
20826SOL    HW265111   9.336   6.489   2.615 -1.7228 -0.8353  0.5195
20827SOL     OW65112   2.961   2.137   2.834 -0.3987 -0.4205  0.3012
20827SOL    HW165113   3.001   2.140   2.921 -1.2658 -0.8748  0.7199
20827SOL    HW265114   3.008   2.067   2.789 -0.6364 -0.8812  0.7582
20828SOL     OW65115   3.382   8.604   8.584 -0.4958  0.1350 -0.5313
20828SOL    HW165116   3.471   8.619   8.553  1.3186 -0.8355  3.5271
20828SOL    HW265117   3.357   8.687   8.626 -0.5590 -0.2773  0.2699
20829SOL     OW65118   2.887   3.679   7.898  0.1955  0.0538 -0.7213
20829SOL    HW165119   2.897   3.731   7.819 -0.5924 -0.6219 -1.2793
20829SOL    HW265120   2.823   3.727   7.951  2.6577  1.9438  0.7838
20830SOL     OW65121   4.906   0.830   9.063  0.0069 -0.0196 -0.4728
20830SOL    HW165122   4.903   0.783   8.979  0.9532 -0.4936 -0.2547
20830SOL    HW265123   4.826   0.803   9.109  0.6303 -1.6006 -0.2688
20831SOL     OW65124   3.487   7.005   1.387 -0.1796  0.0372 -0.0836
20831SOL    HW165125   3.483   7.087   1.436 -1.5065  0.1794 -0.3915
20831SOL    HW265126   3.540   7.025   1.310  1.2324  0.0318  0.8608
20832SOL     OW65127   8.213   9.514   2.485 -0.5251  0.2864 -0.1298
20832SOL    HW165128   8.248   9.494   2.399 -1.5020 -3.4488  0.1493
20832SOL    HW265129   8.118   9.509   2.474 -0.6713 -1.9648  1.3559
20833SOL     OW65130   4.434   6.983   4.589 -0.3256  0.2386  0.2288
20833SOL    HW165131   4.498   7.036   4.541  1.1682 -0.9589  0.7947
20833SOL    HW265132   4.470   6.894   4.585 -1.3876 -0.2720  1.5283
20834SOL     OW65133   5.920   1.546   9.590 -0.2357  1.0140 -0.2509
20834SOL    HW165134   5.850   1.480   9.593  1.0242 -0.4146 -0.6991
20834SOL    HW265135   5.894   1.612   9.654 -1.0023 -0.4907  1.0519
20835SOL     OW65136   1.892   2.537   8.059  0.3190 -0.3618 -0.0805
20835SOL    HW165137   1.922   2.448   8.041 -0.1357 -0.4742 -0.2847
20835SOL    HW265138   1.807   2.526   8.101  0.0316 -0.0119 -0.5621
20836SOL     OW65139   0.114   2.408   3.052 -0.1589  0.2877  0.0978
20836SOL    HW165140   0.122   2.367   2.965 -1.4640 -0.3785  0.2740
20836SOL    HW265141   0.021   2.403   3.072  0.2460 -0.4634  1.9572
20837SOL     OW65142   1.737   6.934   2.075  0.3652 -0.2367 -0.7649
20837SOL    HW165143   1.646   6.920   2.102  0.7261 -1.8302 -0.2648
20837SOL    HW265144   1.731   6.961   1.984 -0.5587 -2.0489 -1.2903
20838SOL     OW65145   1.771   8.904   6.744  0.3005 -0.4944 -0.4414
20838SOL    HW165146   1.838   8.840   6.768 -0.4058 -0.7370  1.0558
20838SOL    HW265147   1.701   8.852   6.705  0.9886 -0.2288 -2.1069
20839SOL     OW65148   7.648   2.123   2.907  0.0319 -0.3729  0.1476
20839SOL    HW165149   7.702   2.062   2.958  0.4729 -0.3201 -0.2541
20839SOL    HW265150   7.637   2.198   2.965 -0.9375 -1.0279  0.8444
20840SOL     OW65151   3.146   0.422   9.241  0.2636 -0.0144 -0.2326
20840SOL    HW165152   3.145   0.489   9.172 -2.1444  0.9278  0.6016
20840SOL    HW265153   3.107   0.464   9.317 -0.5398 -2.0963  0.6043
20841SOL     OW65154   3.143   5.849   6.840  0.3558 -0.6950 -0.0851
20841SOL    HW165155   3.202   5.842   6.765  0.6093  0.5464 -0.0127
20841SOL    HW265156   3.055   5.848   6.802  0.4920  0.9012 -0.5152
20842SOL     OW65157   6.066   6.454   5.006 -0.5781 -0.4698 -0.1305
20842SOL    HW165158   5.975   6.476   4.983 -0.5498 -0.5399 -0.3121
20842SOL    HW265159   6.071   6.469   5.100 -1.2571 -2.1164  0.2048
20843SOL     OW65160   0.570   3.550   9.324 -0.1252  0.3832  0.1445
20843SOL    HW165161   0.512   3.568   9.398 -0.4679 -0.1526  0.0082
20843SOL    HW265162   0.533   3.473   9.282  0.4003  0.3372 -0.2461
20844SOL     OW65163   6.976   4.975   9.815 -0.4221  0.7283  0.4033
20844SOL    HW165164   6.964   4.961   9.721  0.9925  0.0740  0.3012
20844SOL    HW265165   7.039   4.908   9.841 -0.0535  1.5294  1.6288
20845SOL     OW65166   4.813   5.067   7.398 -0.0753  0.2071  0.3699
20845SOL    HW165167   4.797   5.014   7.477 -0.9926 -0.5252 -0.2820
20845SOL    HW265168   4.896   5.111   7.416 -1.5188  2.1970  2.8957
20846SOL     OW65169   4.963   9.191   1.479  0.1520  0.2725 -0.0999
20846SOL    HW165170   4.960   9.135   1.556  1.5463  0.2289 -0.0516
20846SOL    HW265171   4.984   9.132   1.407 -0.7312  0.3804 -0.4656
20847SOL     OW65172   3.984   6.360   6.231 -0.2869 -0.3974  0.5038
20847SOL    HW165173   3.977   6.301   6.156 -1.0827  0.3784 -0.0453
20847SOL    HW265174   3.898   6.401   6.239  0.5933  1.7381 -0.0305
20848SOL     OW65175   6.517   9.650   3.351  0.1613  0.1715  0.1947
20848SOL    HW165176   6.478   9.727   3.308  2.0607  0.5504 -0.9551
20848SOL    HW265177   6.527   9.586   3.280  1.2261 -0.0566  0.5365
20849SOL     OW65178   2.505   7.859   2.303  0.7797  0.2189 -0.5498
20849SOL    HW165179   2.494   7.765   2.290 -1.1326  0.4905 -1.1619
20849SOL    HW265180   2.569   7.885   2.237 -0.2643 -0.3371 -1.8414
20850SOL     OW65181   2.738   6.930   3.067 -1.0085  0.0682 -0.3222
20850SOL    HW165182   2.645   6.948   3.059 -0.9268 -0.2121 -2.5524
20850SOL    HW265183   2.781   6.999   3.015  0.2058  1.3470  2.2083
20851SOL     OW65184   2.084   3.347   4.177  0.1258 -0.3377 -0.0378
20851SOL    HW165185   2.138   3.412   4.131 -0.9234  0.0717 -0.7179
20851SOL    HW265186   2.024   3.400   4.230 -0.6076 -0.7468 -0.4462
20852SOL     OW65187   8.472   2.088   2.306 -0.3241 -0.1723 -0.5677
20852SOL    HW165188   8.402   2.025   2.326  0.9338 -1.1151  1.1386
20852SOL    HW265189   8.518   2.049   2.231  0.4622 -1.3571  0.4936
20853SOL     OW65190   9.128   1.357   0.489 -0.1202  0.1820 -0.1145
20853SOL    HW165191   9.044   1.324   0.456 -0.5668  0.4383  0.7351
20853SOL    HW265192   9.150   1.431   0.432 -0.1495 -0.2696 -0.7280
20854SOL     OW65193   1.396   9.447   8.111  0.0692  0.3957 -0.0735
20854SOL    HW165194   1.483   9.486   8.122 -0.5106  2.0046 -0.8808
20854SOL    HW265195   1.335   9.518   8.129 -1.1244 -0.8579  1.0366
20855SOL     OW65196   2.679   1.167   0.366  0.3737 -0.0363  0.0615
20855SOL    HW165197   2.645   1.094   0.313 -0.0474 -0.0965  0.4074
20855SOL    HW265198   2.701   1.234   0.302 -3.0829  1.1397 -0.0826
20856SOL     OW65199   3.129   7.788   6.868 -0.1934  0.6248 -0.2494
20856SOL    HW165200   3.124   7.880   6.843 -2.1870  0.7386  0.4072
20856SOL    HW265201   3.208   7.781   6.921  0.8730  1.5824 -1.6356
20857SOL     OW65202   1.164   0.175   4.967  0.5783  0.2058 -0.7523
20857SOL    HW165203   1.216   0.180   5.047 -2.8631  1.1634  1.6570
20857SOL    HW265204   1.140   0.266   4.948 -1.9495 -0.2923 -0.3697
20858SOL     OW65205   7.531   9.310   1.116  0.1992  0.3268 -0.4798
20858SOL    HW165206   7.472   9.296   1.042  1.6667 -0.6832 -1.5372
20858SOL    HW265207   7.598   9.369   1.082  0.8005 -0.0104  0.0916
20859SOL     OW65208   6.149   7.716   1.962  0.1193 -0.3173 -0.3923
20859SOL    HW165209   6.067   7.686   2.001 -0.6500  0.2225 -1.5519
20859SOL    HW265210   6.212   7.715   2.035 -0.5266 -2.1322  0.2027
20860SOL     OW65211   1.239   2.646   5.385  0.4256 -0.2569  0.2093
20860SOL    HW165212   1.145   2.630   5.371  0.4598 -0.1901 -0.1062
20860SOL    HW265213   1.261   2.713   5.321  0.4707  0.4530  0.9550
20861SOL     OW65214   2.732   5.510   2.502  0.1035  0.4505 -0.5276
20861SOL    HW165215   2.813   5.459   2.506  0.0349  0.4103  1.2115
20861SOL    HW265216   2.669   5.460   2.553  0.0289  2.1981  1.2135
20862SOL     OW65217   2.361   0.201   8.926 -0.1878 -0.3410  0.0459
20862SOL    HW165218   2.380   0.284   8.971 -0.6260  0.2380 -0.7977
20862SOL    HW265219   2.319   0.228   8.844 -1.5512 -1.4402  0.3441
20863SOL     OW65220   3.079   2.472   6.395  0.1806  0.1065 -0.4919
20863SOL    HW165221   3.109   2.463   6.486  1.3414  1.4504 -0.7039
20863SOL    HW265222   3.066   2.566   6.384 -2.2537 -0.2329 -1.0442
20864SOL     OW65223   4.937   1.195   0.399  0.3064 -0.1497  0.4880
20864SOL    HW165224   4.965   1.249   0.326  0.5533 -1.0104 -0.0633
20864SOL    HW265225   5.002   1.125   0.404 -0.5300 -0.9487  0.5663
20865SOL     OW65226   6.774   9.313   3.193  0.2528 -0.0216  0.0222
20865SOL    HW165227   6.838   9.376   3.227  0.8451 -0.8452  0.4647
20865SOL    HW265228   6.691   9.361   3.192  0.7361  0.8299  0.1488
20866SOL     OW65229   9.459   2.549   1.922  0.4587  0.1294 -0.4570
20866SOL    HW165230   9.499   2.590   1.845 -0.1491  1.8659  0.1146
20866SOL    HW265231   9.366   2.572   1.916  0.4796  0.6611  1.0019
20867SOL     OW65232   3.277   2.804   3.693 -0.0316 -0.6024  0.2425
20867SOL    HW165233   3.271   2.825   3.599  0.4204 -1.2258  0.0673
20867SOL    HW265234   3.244   2.883   3.737 -2.3564 -1.1080 -0.4622
20868SOL     OW65235   6.741   2.176   2.871  0.2880 -0.7079 -0.3251
20868SOL    HW165236   6.703   2.100   2.914  1.5301 -2.3520 -1.9463
20868SOL    HW265237   6.687   2.250   2.899 -2.4788 -2.5148 -0.5389
20869SOL     OW65238   0.827   4.164   2.733  0.3759 -0.0650  0.1813
20869SOL    HW165239   0.739   4.149   2.767 -0.0737  0.3205 -0.7770
20869SOL    HW265240   0.813   4.211   2.651  1.3506 -1.9945 -1.1640
20870SOL     OW65241   7.602   2.353   1.573  0.5489 -0.1708 -0.0137
20870SOL    HW165242   7.515   2.384   1.597  0.9909  0.9842  0.1704
20870SOL    HW265243   7.589   2.307   1.490 -0.3320 -0.5589  0.3313
20871SOL     OW65244   3.216   5.513   3.659 -0.1866  0.0516  0.1160
20871SOL    HW165245   3.253   5.596   3.631 -1.0662 -0.6280 -3.7010
20871SOL    HW265246   3.140   5.537   3.713  1.9082  1.5062  2.6214
20872SOL     OW65247   0.652   1.652   7.607  0.2950 -0.1714 -0.6541
20872SOL    HW165248   0.648   1.565   7.647  2.3918  0.3573  0.8683
20872SOL    HW265249   0.725   1.695   7.651 -1.0481  2.5923 -0.9491
20873SOL     OW65250   0.627   6.519   4.669 -0.1057  0.1371  0.5664
20873SOL    HW165251   0.639   6.446   4.608 -0.8224  0.0389  0.5339
20873SOL    HW265252   0.548   6.496   4.718  1.1356 -0.3954  2.4204
20874SOL     OW65253   9.490   3.030   3.940  1.1165 -0.2765  0.7165
20874SOL    HW165254   9.441   2.970   3.997 -1.2182  1.2153  0.4587
20874SOL    HW265255   9.458   3.011   3.852 -0.1837  1.6431  0.6915
20875SOL     OW65256   1.515   2.204   7.080 -0.2306 -0.6930  0.5482
20875SOL    HW165257   1.574   2.239   7.013 -1.1818 -0.3141 -0.1093
20875SOL    HW265258   1.570   2.198   7.158  0.8276 -0.8715 -0.1778
20876SOL     OW65259   1.325   2.400   7.497  0.2230  0.3330 -0.3327
20876SOL    HW165260   1.317   2.424   7.405  0.1333 -2.9789 -1.3258
20876SOL    HW265261   1.406   2.441   7.526  1.1915  0.0128 -2.4365
20877SOL     OW65262   3.589   8.843   9.886 -0.1700  0.2582  0.4033
20877SOL    HW165263   3.581   8.753   9.918  1.0654 -0.6395 -1.5980
20877SOL    HW265264   3.678   8.869   9.909 -0.0209  0.4001 -0.3019
20878SOL     OW65265   5.058   2.433   2.653  0.1761  0.6287  0.2916
20878SOL    HW165266   5.134   2.489   2.670  0.6108  0.3046 -0.4986
20878SOL    HW265267   5.052   2.377   2.730  2.1025 -0.8194 -0.5217
20879SOL     OW65268   3.046   4.804   3.481 -0.1500  0.5244 -0.5400
20879SOL    HW165269   2.953   4.791   3.460  0.1361  1.2545 -2.3827
20879SOL    HW265270   3.067   4.732   3.540 -2.0531  0.7418  0.4799
20880SOL     OW65271   7.573   5.679   4.596 -0.1056 -0.4284  0.1695
20880SOL    HW165272   7.593   5.588   4.577 -0.1865 -0.1421 -1.3600
20880SOL    HW265273   7.496   5.675   4.654 -0.4374 -1.3056 -0.3170
20881SOL     OW65274   3.100   9.817   6.695 -0.0191 -0.0855 -0.3533
20881SOL    HW165275   3.157   9.741   6.684  1.3703  0.7996  0.4484
20881SOL    HW265276   3.045   9.796   6.771  1.8763  0.5459  1.2761
20882SOL     OW65277   2.317   8.251   7.713 -0.4965  0.0510  0.3273
20882SOL    HW165278   2.406   8.257   7.678 -0.8201  1.2291 -0.3132
20882SOL    HW265279   2.315   8.166   7.758  1.8947  1.2007  2.9536
20883SOL     OW65280   5.692   3.846   3.530  0.1093  0.4881  0.2462
20883SOL    HW165281   5.765   3.843   3.592  2.2447 -0.5160 -2.1620
20883SOL    HW265282   5.670   3.754   3.514 -0.9433  0.7542  0.0743
20884SOL     OW65283   3.615   7.999   1.131 -0.0570 -0.3935 -0.6619
20884SOL    HW165284   3.525   8.001   1.163  0.0849  1.0146 -0.2802
20884SOL    HW265285   3.644   7.909   1.149 -0.4515 -0.0952  1.9272
20885SOL     OW65286   9.180   1.308  10.220  0.5928 -0.8282 -0.2513
20885SOL    HW165287   9.097   1.311  10.173  0.2033 -0.0751  0.4456
20885SOL    HW265288   9.178   1.225  10.268 -0.3984 -0.2063  0.8504
20886SOL     OW65289   5.857   9.069   6.320  0.2966  0.0767  0.2641
20886SOL    HW165290   5.776   9.120   6.329  0.9978  1.0155  1.7128
20886SOL    HW265291   5.919   9.128   6.277  0.5370 -0.2561  0.1487
20887SOL     OW65292   3.098   4.264   4.447 -0.3018 -0.0796 -0.5135
20887SOL    HW165293   3.078   4.342   4.396 -0.5401 -0.1822 -0.5752
20887SOL    HW265294   3.131   4.201   4.383 -0.1349 -0.0384 -0.4676
20888SOL     OW65295   7.331   0.376  10.237  0.4175 -0.2607 -0.2149
20888SOL    HW165296   7.379   0.409  10.313 -0.8067  0.0514  0.4534
20888SOL    HW265297   7.311   0.454  10.186 -1.1374 -0.0940  0.5774
20889SOL     OW65298   7.633   6.939   7.140  0.0131 -0.2359 -0.8467
20889SOL    HW165299   7.559   6.880   7.125  0.2963 -0.8423  0.0287
20889SOL    HW265300   7.699   6.884   7.182  0.8458  0.3717 -1.3281
20890SOL     OW65301   7.810   9.426   3.112 -0.2215  0.8267  0.9251
20890SOL    HW165302   7.799   9.405   3.019  1.1287  0.2983  0.8642
20890SOL    HW265303   7.725   9.461   3.139 -0.3882  1.7651 -0.7097
20891SOL     OW65304   3.040   1.914   5.241 -0.4163 -0.2385 -0.4718
20891SOL    HW165305   2.976   1.983   5.222  0.2744  0.4264 -0.3936
20891SOL    HW265306   3.047   1.866   5.159 -2.5014 -1.5906  0.0446
20892SOL     OW65307   1.787   3.658   7.401  0.1743 -0.5515 -0.3741
20892SOL    HW165308   1.828   3.582   7.358 -1.5733 -1.4546 -0.5168
20892SOL    HW265309   1.803   3.730   7.340  1.2333 -0.9401 -0.5922
20893SOL     OW65310   8.009   3.606   1.932  0.5336 -0.1545  0.1379
20893SOL    HW165311   8.094   3.624   1.892  0.3195  0.7123  0.0646
20893SOL    HW265312   7.982   3.523   1.893  1.9590 -1.1604  1.1668
20894SOL     OW65313   8.276   5.386  10.103 -0.1314  0.0759  0.2120
20894SOL    HW165314   8.367   5.386  10.073 -0.3978  0.6310 -0.6371
20894SOL    HW265315   8.264   5.299  10.141  0.2093 -0.7073 -1.3974
20895SOL     OW65316   6.984   0.800   1.848 -0.0394  0.2183  0.1905
20895SOL    HW165317   7.018   0.860   1.914 -0.8425  1.0410 -0.1198
20895SOL    HW265318   6.952   0.857   1.778  0.6443 -0.6226 -0.8534
20896SOL     OW65319   6.320   9.672   6.324  0.1177  0.1184 -0.3067
20896SOL    HW165320   6.253   9.604   6.320  1.6875 -1.6849  1.6826
20896SOL    HW265321   6.387   9.644   6.262  0.3310  0.3434 -0.1807
20897SOL     OW65322   7.914   9.496   2.467  0.0553  0.3696 -0.7526
20897SOL    HW165323   7.843   9.533   2.519  0.8224 -0.5491  1.0312
20897SOL    HW265324   7.912   9.402   2.485  2.0676  0.3848 -0.1450
20898SOL     OW65325   2.660   2.138   5.922  0.2154  0.0001 -0.1864
20898SOL    HW165326   2.704   2.104   5.844 -1.2167 -0.4801 -0.8222
20898SOL    HW265327   2.726   2.192   5.965  0.9690  0.5217 -1.8906
20899SOL     OW65328   7.520   8.835   3.260  0.1356 -0.1878 -0.5039
20899SOL    HW165329   7.592   8.895   3.242  0.0851 -0.1288 -0.5106
20899SOL    HW265330   7.487   8.862   3.346 -1.5888  1.5296 -1.6289
20900SOL     OW65331   4.279  10.065   9.125 -0.0854 -0.4200 -0.2192
20900SOL    HW165332   4.374  10.057   9.132  0.0115  0.9876  0.4960
20900SOL    HW265333   4.251  10.090   9.213 -0.6616  2.6880 -1.1477
20901SOL     OW65334   3.047   5.331   8.174  0.4533  0.0673  0.2951
20901SOL    HW165335   3.098   5.294   8.246 -0.7934  1.3838  1.9223
20901SOL    HW265336   2.970   5.274   8.167  0.2392  0.3317  0.4755
20902SOL     OW65337   1.004   8.817   8.969  0.6642  0.0082 -0.0661
20902SOL    HW165338   1.048   8.756   9.030 -0.2814 -1.2184 -0.5621
20902SOL    HW265339   0.978   8.890   9.024  1.4697 -0.2099  0.6371
20903SOL     OW65340   5.094   4.174   9.908  0.0429  0.4767  0.2979
20903SOL    HW165341   5.067   4.264   9.925  0.1282  0.1402  2.4288
20903SOL    HW265342   5.129   4.176   9.819  1.7635  2.9797  0.9311
20904SOL     OW65343   5.141   7.164   1.441 -0.0786  0.0391 -0.3617
20904SOL    HW165344   5.083   7.112   1.385  0.7137 -1.0008 -0.2583
20904SOL    HW265345   5.202   7.205   1.379  1.9805 -2.5823 -0.2659
20905SOL     OW65346   8.937   8.675   2.031  0.0010 -0.1137  0.1550
20905SOL    HW165347   8.956   8.661   1.938 -1.1152  1.0136 -0.2675
20905SOL    HW265348   9.017   8.647   2.076 -0.2545 -2.8854 -0.9225
20906SOL     OW65349   3.407   3.778   9.262 -0.0249  0.0387  0.0266
20906SOL    HW165350   3.429   3.799   9.353 -1.1843 -1.9452  0.8421
20906SOL    HW265351   3.463   3.704   9.240  0.2111  0.4730 -0.8659
20907SOL     OW65352   8.716   1.200   9.589  0.3191  0.2261  0.3059
20907SOL    HW165353   8.717   1.295   9.591  2.3728  0.2909 -0.9221
20907SOL    HW265354   8.749   1.177   9.502  1.3124 -1.5740  1.1005
20908SOL     OW65355   9.805   1.610   1.578 -0.0070 -0.6741 -0.0945
20908SOL    HW165356   9.781   1.545   1.645  1.8245 -2.2511 -0.8662
20908SOL    HW265357   9.881   1.572   1.534  1.2163  2.0568 -0.5707
20909SOL     OW65358   6.789   6.639   7.543 -0.5317 -0.0775 -0.4267
20909SOL    HW165359   6.700   6.667   7.523 -0.9515  0.3676  1.8152
20909SOL    HW265360   6.783   6.544   7.554 -1.0691  0.1196  1.1678
20910SOL     OW65361   2.558   4.850   8.428 -0.1837 -0.1289  0.0721
20910SOL    HW165362   2.595   4.839   8.341 -0.4788 -0.3099 -0.0310
20910SOL    HW265363   2.485   4.789   8.431 -1.1999  1.0427 -0.1388
20911SOL     OW65364   8.864   1.759   6.686  0.1640 -0.6310  0.1233
20911SOL    HW165365   8.942   1.748   6.632  0.9732  0.3835  1.0451
20911SOL    HW265366   8.894   1.810   6.761 -1.3840 -0.2599  0.5174
20912SOL     OW65367   2.992   6.104   0.914 -0.1796 -0.1413  0.3520
20912SOL    HW165368   3.072   6.069   0.875 -0.3532  0.0657 -0.2018
20912SOL    HW265369   2.955   6.031   0.963  0.0929 -0.3783  0.2053
20913SOL     OW65370   7.399   5.976   0.203 -0.0972 -0.0261 -0.1114
20913SOL    HW165371   7.477   5.948   0.251  0.8853  0.7343 -1.2111
20913SOL    HW265372   7.361   5.895   0.168  1.0695 -0.2667 -0.8484
20914SOL     OW65373   3.360   4.043   1.922 -0.1196  0.0652  0.6236
20914SOL    HW165374   3.426   4.108   1.946 -0.4916 -0.4394  3.3030
20914SOL    HW265375   3.394   3.961   1.957 -2.2405 -0.1483  2.4046
20915SOL     OW65376   4.931   2.819   8.939 -0.6208 -0.0917  0.1262
20915SOL    HW165377   4.992   2.892   8.946 -0.5012 -0.0679 -0.9567
20915SOL    HW265378   4.861   2.852   8.882 -0.9625 -0.5595  0.2694
20916SOL     OW65379   9.845   0.323   6.096  0.1339  0.3119  0.6805
20916SOL    HW165380   9.751   0.307   6.102  0.0101 -0.4225 -1.9516
20916SOL    HW265381   9.870   0.351   6.184 -2.1380 -1.4946  2.0218
20917SOL     OW65382   9.118   8.983   6.745  0.1485  0.0858  0.1236
20917SOL    HW165383   9.045   8.956   6.800  0.6804 -1.8430 -0.0585
20917SOL    HW265384   9.077   9.030   6.672 -0.7698  0.3592  0.7964
20918SOL     OW65385   2.859  10.298   3.239 -0.2112  0.3172  0.0745
20918SOL    HW165386   2.765  10.282   3.237  0.2050 -2.6692 -1.6839
20918SOL    HW265387   2.876  10.330   3.328 -2.5371 -1.7936  1.4079
20919SOL     OW65388   1.212   3.926  10.123 -0.2382 -0.0383 -0.0545
20919SOL    HW165389   1.272   3.879  10.181 -0.0401  0.1880 -0.0733
20919SOL    HW265390   1.255   4.010  10.107  0.5212 -0.7235 -1.8879
20920SOL     OW65391   4.346   1.566   5.535 -0.4756  0.0869 -0.1825
20920SOL    HW165392   4.277   1.541   5.597  0.4046 -0.6373  0.5219
20920SOL    HW265393   4.298   1.604   5.461 -1.7046 -1.2929 -0.1536
20921SOL     OW65394   7.634   1.315   1.635  0.8169 -0.1471 -0.0437
20921SOL    HW165395   7.677   1.371   1.570  1.2506  0.1526  0.4929
20921SOL    HW265396   7.612   1.375   1.707 -0.1756 -0.3626 -0.1543
20922SOL     OW65397   1.262   0.875   8.410 -0.1927  0.3676 -0.1191
20922SOL    HW165398   1.188   0.924   8.446 -1.1695 -0.5460 -0.8011
20922SOL    HW265399   1.246   0.873   8.316  0.9199  0.4847 -0.3245
20923SOL     OW65400   4.358   2.298  10.171 -0.0941  0.4214 -0.2874
20923SOL    HW165401   4.357   2.263  10.260  1.0493 -1.2227 -0.8841
20923SOL    HW265402   4.386   2.389  10.181  0.5691  0.0973  0.9798
20924SOL     OW65403   5.998   3.993   7.648  0.0021 -0.0938 -0.0403
20924SOL    HW165404   6.055   4.038   7.586  1.2671  1.7669  2.2991
20924SOL    HW265405   6.055   3.930   7.693  0.0195  0.9592  1.5124
20925SOL     OW65406   2.832   4.159   8.335 -0.1091  0.4832  0.2204
20925SOL    HW165407   2.767   4.089   8.328 -0.0714  0.2631  1.8348
20925SOL    HW265408   2.908   4.126   8.287 -0.6185  0.0753 -0.3244
20926SOL     OW65409  10.021   8.887   2.816  0.0607 -0.0187 -0.5052
20926SOL    HW165410  10.057   8.925   2.737 -2.4292  0.2970 -1.5869
20926SOL    HW265411  10.097   8.871   2.872  1.7935  0.6838 -2.5233
20927SOL     OW65412   0.677   5.355   0.301  0.1072  0.0802  0.2054
20927SOL    HW165413   0.722   5.336   0.383 -1.5318  0.5168  1.2372
20927SOL    HW265414   0.666   5.450   0.300  0.4972  0.1340 -0.7511
20928SOL     OW65415   5.547   4.771   1.394 -0.1501  0.1721 -0.1069
20928SOL    HW165416   5.568   4.687   1.353 -2.6492 -0.3462 -0.5327
20928SOL    HW265417   5.459   4.758   1.430 -0.7355  2.6905 -0.4288
20929SOL     OW65418   5.735   6.940   2.173 -0.1207 -0.2551 -0.3739
20929SOL    HW165419   5.793   6.875   2.214  0.0222  0.6280  0.8796
20929SOL    HW265420   5.794   7.012   2.151 -0.5451  0.1401 -0.2118
20930SOL     OW65421   4.400   4.587   8.204 -0.2818 -0.3996 -0.2668
20930SOL    HW165422   4.441   4.666   8.171 -1.2742  0.6872  1.0183
20930SOL    HW265423   4.306   4.600   8.190 -0.6400 -0.4101  1.7755
20931SOL     OW65424   6.078   7.356   9.493  0.5227  0.2406  0.3441
20931SOL    HW165425   6.125   7.439   9.503  0.9403  0.1157 -0.4743
20931SOL    HW265426   6.139   7.300   9.445  1.1042 -1.2725  2.6734
20932SOL     OW65427  10.356   3.571   1.479  0.1958  0.2952 -0.7835
20932SOL    HW165428  10.346   3.480   1.509 -0.5811  0.8080  0.5693
20932SOL    HW265429  10.268   3.598   1.453  0.6736  0.2040 -2.6558
20933SOL     OW65430  10.165   9.145   7.246 -0.8590  0.0233  0.0866
20933SOL    HW165431  10.208   9.152   7.161 -0.4264 -0.1115  0.2912
20933SOL    HW265432  10.092   9.207   7.241 -1.4228 -0.6825 -0.7300
20934SOL     OW65433   5.617   5.756   1.993  0.2233  0.0595  0.0445
20934SOL    HW165434   5.615   5.785   1.902 -0.9295 -0.8196 -0.2406
20934SOL    HW265435   5.541   5.798   2.032  0.7276  0.4499  0.6144
20935SOL     OW65436   5.724   2.563   9.179  0.6906 -0.0048  0.4850
20935SOL    HW165437   5.755   2.482   9.138 -1.2506 -0.2064 -0.7234
20935SOL    HW265438   5.745   2.553   9.272  0.6270 -1.8447  0.3334
20936SOL     OW65439   0.862   7.560   2.646 -0.4061 -0.5375 -0.7320
20936SOL    HW165440   0.839   7.540   2.736 -1.3936 -0.9852 -1.0710
20936SOL    HW265441   0.953   7.589   2.650 -0.9180  0.9791  0.6075
20937SOL     OW65442   8.538   4.193   4.989  0.2626 -0.6279  0.1853
20937SOL    HW165443   8.621   4.150   5.009  0.2090 -1.0118 -0.3828
20937SOL    HW265444   8.475   4.121   4.978 -0.0807 -0.3547  0.3333
20938SOL     OW65445   6.804   2.614   9.330 -0.3927  0.1523 -0.2819
20938SOL    HW165446   6.744   2.613   9.405  1.4513  1.3580  1.2798
20938SOL    HW265447   6.843   2.527   9.329 -0.5367  0.0827  0.0445
20939SOL     OW65448   9.382   9.973   7.392 -0.4030  0.3086  0.1931
20939SOL    HW165449   9.427   9.908   7.446 -1.4408  0.6334  1.4782
20939SOL    HW265450   9.423  10.056   7.416  0.6551  0.2343 -1.1707
20940SOL     OW65451  10.006   6.116   6.224  0.4110 -0.1092  0.4865
20940SOL    HW165452   9.940   6.082   6.163  0.9711  1.0729 -0.8420
20940SOL    HW265453  10.070   6.044   6.231  1.1890  0.2871 -1.6812
20941SOL     OW65454   9.722   6.376   0.873 -0.1855 -0.1950 -0.2498
20941SOL    HW165455   9.668   6.337   0.804 -0.7817  1.3785 -0.7194
20941SOL    HW265456   9.685   6.341   0.954  0.1631 -1.6296 -0.6816
20942SOL     OW65457   4.791   1.192   1.126  0.1651 -0.5043 -0.0409
20942SOL    HW165458   4.783   1.215   1.033 -1.7102  0.3928  0.2911
20942SOL    HW265459   4.882   1.166   1.137  0.3470 -0.9265 -2.1964
20943SOL     OW65460   2.526   8.542   1.251 -0.8404 -0.2326  0.1380
20943SOL    HW165461   2.500   8.526   1.161  0.3292 -0.7084 -0.1240
20943SOL    HW265462   2.552   8.456   1.285 -0.7141  0.0349  0.7403
20944SOL     OW65463   8.572   9.083   3.681  0.1860 -0.6808  0.1666
20944SOL    HW165464   8.543   9.107   3.593 -0.2015 -0.0265  0.4609
20944SOL    HW265465   8.642   9.019   3.667  0.3669 -0.3203 -0.6233
20945SOL     OW65466   4.070   4.788   4.382 -0.2383 -0.3110  0.6392
20945SOL    HW165467   4.165   4.796   4.381 -0.1387 -1.4410 -0.3820
20945SOL    HW265468   4.045   4.789   4.290 -1.2975  0.6652  0.9125
20946SOL     OW65469   7.676   6.675   4.579 -0.1435 -0.2565 -0.0161
20946SOL    HW165470   7.613   6.742   4.555 -0.0920  0.9427  2.8204
20946SOL    HW265471   7.761   6.719   4.576 -0.0054 -0.4420  0.9741
20947SOL     OW65472   5.640   6.372   3.472 -0.6355  0.6143  0.3824
20947SOL    HW165473   5.663   6.317   3.397  0.3773  1.6380 -0.0840
20947SOL    HW265474   5.607   6.310   3.538 -0.1250 -0.4742 -0.3538
20948SOL     OW65475   5.963   0.438   5.489  0.1214  0.0899  0.1773
20948SOL    HW165476   6.051   0.477   5.491 -0.1217  0.6440 -0.0049
20948SOL    HW265477   5.903   0.512   5.496 -0.3347 -0.3882  1.7513
20949SOL     OW65478   0.108  10.043   0.780  0.5629  0.1385 -0.0052
20949SOL    HW165479   0.036  10.076   0.727  0.2350  0.2332  0.4918
20949SOL    HW265480   0.066   9.985   0.844  1.1042 -1.0254 -0.6970
20950SOL     OW65481   9.038   7.892   0.405 -0.3945  0.4495 -0.4142
20950SOL    HW165482   9.124   7.852   0.417  0.0124  0.9295 -1.6585
20950SOL    HW265483   8.978   7.817   0.400 -0.3138  0.1330  1.9804
20951SOL     OW65484   5.800   2.448   6.638 -0.0887 -0.3411  0.3708
20951SOL    HW165485   5.842   2.391   6.574  2.3188 -0.5074  1.9480
20951SOL    HW265486   5.775   2.526   6.588 -1.1105 -1.6572 -1.3029
20952SOL     OW65487   6.596   6.249   6.703 -0.9759 -0.3195 -0.3507
20952SOL    HW165488   6.546   6.294   6.635  1.6672 -1.3447 -3.2271
20952SOL    HW265489   6.583   6.156   6.685 -0.6373 -0.6152  0.8824
20953SOL     OW65490   4.128   2.276   1.388  0.2607 -0.0479 -0.0201
20953SOL    HW165491   4.036   2.301   1.390  0.7351  1.9540 -0.4550
20953SOL    HW265492   4.170   2.335   1.450  1.3634 -0.3630 -0.4335
20954SOL     OW65493   7.066   3.571   7.957 -0.5298  0.1711 -0.0007
20954SOL    HW165494   7.039   3.649   8.005 -1.8558 -0.4028  0.2341
20954SOL    HW265495   7.052   3.499   8.019  2.5548 -0.1379  0.5324
20955SOL     OW65496   7.958   5.000   0.420 -0.4154 -0.5209  0.2774
20955SOL    HW165497   7.982   5.067   0.483  0.8339 -0.4425 -0.2458
20955SOL    HW265498   7.895   4.945   0.466 -1.3738  0.9222  0.7504
20956SOL     OW65499   2.153   4.043   7.152 -0.1207 -0.1496 -0.5159
20956SOL    HW165500   2.127   4.134   7.136  1.4780  0.2249 -1.1492
20956SOL    HW265501   2.187   4.043   7.241  1.0621  0.1869 -0.9448
20957SOL     OW65502   8.427   0.181   6.391 -0.0637 -0.6616  0.3181
20957SOL    HW165503   8.332   0.180   6.404 -0.4142 -0.9332 -1.8602
20957SOL    HW265504   8.441   0.255   6.331  1.1363 -0.4881  0.8017
20958SOL     OW65505   6.138   5.090   5.427 -0.1482  0.2249  0.3638
20958SOL    HW165506   6.096   5.165   5.383  0.5535 -0.0063 -0.7250
20958SOL    HW265507   6.155   5.121   5.516 -1.0019  0.9301  0.2918
20959SOL     OW65508   4.016   4.180   5.522 -0.2540  0.5241 -0.3746
20959SOL    HW165509   4.043   4.260   5.567  1.9148 -0.8151  0.9432
20959SOL    HW265510   3.965   4.132   5.587  1.1256 -0.4883  0.0375
20960SOL     OW65511   6.678   3.813  10.343 -0.2477 -0.5298  0.3301
20960SOL    HW165512   6.742   3.794  10.275 -1.4395 -0.6130 -0.8242
20960SOL    HW265513   6.728   3.815  10.425  1.5441  1.3278 -0.7351
20961SOL     OW65514   2.361   5.936   7.764  0.0043 -0.2775  0.3261
20961SOL    HW165515   2.358   5.932   7.859 -1.8748 -0.3191  0.3149
20961SOL    HW265516   2.283   5.986   7.740  1.3158  1.1571 -1.1409
20962SOL     OW65517   1.918   0.848   1.650  0.0385  0.4770 -0.2245
20962SOL    HW165518   2.004   0.826   1.685  0.2152 -2.2306 -2.1054
20962SOL    HW265519   1.936   0.899   1.571 -0.1005  0.3550 -0.3360
20963SOL     OW65520   7.949   0.938   1.550  0.2415 -0.0298  0.1207
20963SOL    HW165521   7.875   0.891   1.589 -0.7976  1.5337  0.1425
20963SOL    HW265522   7.974   0.884   1.474 -0.9276 -0.5940  0.1125
20964SOL     OW65523   3.814   5.656   7.815  0.3480 -0.5601  0.2228
20964SOL    HW165524   3.763   5.677   7.736 -0.9541 -1.5989  0.7402
20964SOL    HW265525   3.893   5.613   7.781 -0.2336 -1.0732 -0.5326
20965SOL     OW65526   3.574   9.106   6.486  0.0753 -0.6699  0.2147
20965SOL    HW165527   3.575   9.202   6.495 -2.3334 -0.7719  2.7268
20965SOL    HW265528   3.622   9.075   6.562  2.6001 -1.5579 -1.6101
20966SOL     OW65529   4.416   0.872   4.574 -0.0148 -0.5516 -0.3029
20966SOL    HW165530   4.490   0.843   4.521  0.4762 -0.0251  0.0887
20966SOL    HW265531   4.455   0.907   4.654 -0.6315  0.3994 -0.4012
20967SOL     OW65532   7.248   3.784   9.506 -0.5344  0.3742  0.7933
20967SOL    HW165533   7.232   3.698   9.544  0.6156  0.3618  1.2665
20967SOL    HW265534   7.339   3.781   9.475 -0.8488  1.0158 -0.2797
20968SOL     OW65535   5.234   7.901   3.930  0.5448 -1.2712  0.6392
20968SOL    HW165536   5.202   7.845   3.859 -0.5453 -0.7074  0.6718
20968SOL    HW265537   5.155   7.934   3.972  1.1724 -1.3278  1.9153
20969SOL     OW65538   9.064   5.260   9.223 -0.1387 -0.6203  0.0413
20969SOL    HW165539   8.975   5.255   9.256  0.1064  0.4909  0.9450
20969SOL    HW265540   9.096   5.169   9.224 -0.9638 -0.9117  0.5207
20970SOL     OW65541   8.749   3.706   4.923 -0.0807 -0.7493  0.1030
20970SOL    HW165542   8.658   3.702   4.954 -0.4449 -1.4925 -1.0303
20970SOL    HW265543   8.760   3.797   4.895 -0.0257 -0.2950  1.4984
20971SOL     OW65544   2.487   4.436   8.991  0.1576  0.4310 -0.0212
20971SOL    HW165545   2.402   4.477   9.004 -0.1193 -0.2790  0.4711
20971SOL    HW265546   2.529   4.440   9.077  1.1194  1.8248 -0.5129
20972SOL     OW65547   4.233  10.116   8.097  0.3972  0.1750  0.2113
20972SOL    HW165548   4.227  10.212   8.094  2.8568  0.3473 -0.7865
20972SOL    HW265549   4.227  10.095   8.190 -0.5972  1.2421  0.4110
20973SOL     OW65550   4.915   3.088   8.088  0.4293 -0.0187  0.0162
20973SOL    HW165551   4.958   3.006   8.112 -1.0012 -0.6486  0.5395
20973SOL    HW265552   4.952   3.110   8.002  1.2570 -0.9002  0.1288
20974SOL     OW65553   2.807   4.564   1.671  0.6528  0.5783 -0.0009
20974SOL    HW165554   2.897   4.593   1.684  0.0818  3.0518 -0.9474
20974SOL    HW265555   2.796   4.561   1.576 -0.0606 -0.4105  0.1006
20975SOL     OW65556   9.054   0.474   9.463 -0.2764 -0.3502  0.0623
20975SOL    HW165557   8.981   0.515   9.416  0.5433  0.3973 -0.6088
20975SOL    HW265558   9.040   0.498   9.554 -0.8751 -0.2308 -0.0536
20976SOL     OW65559   0.294   5.231   6.918 -0.4663 -0.1178 -0.4296
20976SOL    HW165560   0.245   5.149   6.921  1.0508 -1.0598 -0.4956
20976SOL    HW265561   0.289   5.259   6.827 -0.3279 -0.5416 -0.5659
20977SOL     OW65562   0.361  10.166   2.857  0.0704  0.7665  0.0016
20977SOL    HW165563   0.407  10.189   2.777 -0.3152  0.7928 -0.2139
20977SOL    HW265564   0.425  10.179   2.927  0.6265  0.0862 -0.3645
20978SOL     OW65565   0.704   0.452   7.313 -0.0422 -0.0774 -0.1754
20978SOL    HW165566   0.624   0.501   7.293 -0.0233  0.2261  0.4599
20978SOL    HW265567   0.775   0.510   7.286  0.0300  1.0612  2.1979
20979SOL     OW65568   4.343  10.236   1.860 -0.0694 -0.1513 -0.3728
20979SOL    HW165569   4.340  10.220   1.766 -0.6607 -0.3075 -0.3343
20979SOL    HW265570   4.391  10.161   1.895  1.6458  0.7371 -0.7046
20980SOL     OW65571   9.197  10.183   9.667 -0.0609  0.5702 -0.6310
20980SOL    HW165572   9.214  10.143   9.583  0.6198 -1.8789  0.5915
20980SOL    HW265573   9.284  10.209   9.700 -0.0817 -0.2610  0.1190
20981SOL     OW65574   0.866   6.801   8.500  0.4052  0.2973 -0.1845
20981SOL    HW165575   0.870   6.740   8.574  3.0329  2.2187  1.4213
20981SOL    HW265576   0.885   6.746   8.423  0.1810 -1.3149  0.8625
20982SOL     OW65577   9.776   0.208   0.424 -0.5324 -0.3218 -0.3869
20982SOL    HW165578   9.700   0.160   0.458 -0.2576 -1.0181 -0.7390
20982SOL    HW265579   9.823   0.237   0.502 -1.1844  0.1739 -0.1621
20983SOL     OW65580   9.593   7.522   4.710 -0.0585 -0.0933 -0.5405
20983SOL    HW165581   9.500   7.538   4.725 -0.1101 -1.0694  0.2705
20983SOL    HW265582   9.603   7.528   4.615 -1.2350 -1.3711 -0.7744
20984SOL     OW65583   3.318   2.545   4.434  0.5477 -0.1466 -0.0358
20984SOL    HW165584   3.225   2.561   4.415 -0.1511 -2.4063  1.1033
20984SOL    HW265585   3.357   2.526   4.349 -0.4506 -0.9544 -0.3353
20985SOL     OW65586   7.495   7.668   5.178  0.1031  0.1572  0.4131
20985SOL    HW165587   7.557   7.738   5.197  0.3362  0.0214  0.1641
20985SOL    HW265588   7.512   7.645   5.086  0.4504 -0.6424  0.6658
20986SOL     OW65589   6.184   9.099   7.255 -0.2157  0.1639  0.8199
20986SOL    HW165590   6.233   9.101   7.338  0.4914 -1.3059  0.4841
20986SOL    HW265591   6.152   9.009   7.249  1.3389 -0.3305 -1.3680
20987SOL     OW65592   7.712   1.500   8.750  0.5739 -0.6934  0.2983
20987SOL    HW165593   7.739   1.430   8.690  0.4388 -0.4279 -0.0825
20987SOL    HW265594   7.785   1.561   8.749  0.2057 -0.2517 -0.2951
20988SOL     OW65595   0.840   5.856  10.339 -0.0701 -0.0374  0.0023
20988SOL    HW165596   0.913   5.900  10.296  0.8741 -0.3953  1.1704
20988SOL    HW265597   0.846   5.765  10.311 -0.8403  0.1601 -0.8680
20989SOL     OW65598   6.157   6.161   8.387 -0.1178 -0.1932 -0.1002
20989SOL    HW165599   6.144   6.075   8.348  0.1927 -1.1754  1.8540
20989SOL    HW265600   6.251   6.166   8.405 -0.3263 -0.0588  1.0770
20990SOL     OW65601   8.853   7.480   9.139 -0.4595  0.2222  0.3312
20990SOL    HW165602   8.855   7.563   9.187  0.0091  0.3023  0.1741
20990SOL    HW265603   8.763   7.474   9.107  0.0631  1.7807 -1.5802
20991SOL     OW65604   9.196   7.068   2.320 -0.1134 -0.7087  0.0950
20991SOL    HW165605   9.107   7.083   2.289 -0.3272 -1.8884  0.0939
20991SOL    HW265606   9.250   7.128   2.269 -0.7726 -0.8143 -0.7432
20992SOL     OW65607   4.253   3.701   1.194  0.4874  0.4140  0.0763
20992SOL    HW165608   4.165   3.734   1.175  0.0994 -0.2064  0.7464
20992SOL    HW265609   4.299   3.776   1.231  0.7744  1.2019 -1.7750
20993SOL     OW65610   5.381   6.793   2.901 -0.4080  0.0993  1.1509
20993SOL    HW165611   5.335   6.827   2.978 -0.3187  2.6003  0.1843
20993SOL    HW265612   5.437   6.865   2.872 -0.0343 -0.9540 -0.9529
20994SOL     OW65613   6.962   5.134   9.388  0.2478  0.3212  0.1169
20994SOL    HW165614   7.043   5.109   9.344  0.2366 -1.3057  0.9194
20994SOL    HW265615   6.913   5.183   9.323  1.2141 -0.0078 -0.8897
20995SOL     OW65616   7.131   6.764   7.866  0.5197  0.2823 -0.6569
20995SOL    HW165617   7.043   6.788   7.895  0.6609  1.3587 -1.0455
20995SOL    HW265618   7.117   6.713   7.786  0.2355  0.0167 -0.4392
20996SOL     OW65619   3.604   6.354   1.073 -0.4864  0.4146  0.5454
20996SOL    HW165620   3.592   6.377   0.980  1.2799 -1.3656 -0.1973
20996SOL    HW265621   3.540   6.408   1.119 -1.3150  1.4822 -1.6876
20997SOL     OW65622   1.167   4.010   7.230  0.1618 -0.1072  0.5935
20997SOL    HW165623   1.073   4.022   7.239 -0.1231 -1.2201 -0.5880
20997SOL    HW265624   1.188   3.936   7.287  0.3294  0.1331  0.8489
20998SOL     OW65625   6.356   2.424  10.010 -0.0112  0.1742 -0.0004
20998SOL    HW165626   6.321   2.467  10.088  0.4367 -0.4854  0.5738
20998SOL    HW265627   6.387   2.496   9.955  1.8321  0.5781  1.4682
20999SOL     OW65628   5.788   5.495   0.841  0.3407 -0.2515 -0.3302
20999SOL    HW165629   5.790   5.572   0.898  0.8850  0.4843 -1.3101
20999SOL    HW265630   5.707   5.505   0.790 -0.6790 -1.4287  0.9535
21000SOL     OW65631   6.792   6.017   5.814 -0.0306 -0.5151 -0.0557
21000SOL    HW165632   6.740   5.975   5.882  0.0201 -0.7658 -0.1693
21000SOL    HW265633   6.755   6.104   5.805 -0.9999 -0.9796 -0.7455
21001SOL     OW65634   5.548   6.614   7.655  0.3246 -0.0851 -0.1147
21001SOL    HW165635   5.618   6.593   7.716  2.3151  1.6064 -1.6862
21001SOL    HW265636   5.561   6.554   7.582  1.8283  1.9079 -1.5683
21002SOL     OW65637   8.079   8.038   1.236 -0.7596  0.4299  0.2970
21002SOL    HW165638   8.058   8.001   1.322  0.4534  0.9002  0.8236
21002SOL    HW265639   8.027   8.119   1.232 -1.9161 -0.3078 -0.0343
21003SOL     OW65640   4.511   4.878   1.182  0.0653  0.2059 -0.0743
21003SOL    HW165641   4.516   4.964   1.223 -0.0073 -0.2587  0.9509
21003SOL    HW265642   4.430   4.879   1.132 -0.0992  0.6218  0.1986
21004SOL     OW65643   8.520   9.491   4.383 -0.4926  0.2146 -0.2304
21004SOL    HW165644   8.530   9.526   4.295 -0.7892 -0.7639 -0.6713
21004SOL    HW265645   8.507   9.397   4.370 -0.2531  0.0143  0.8744
21005SOL     OW65646   9.144   5.789   1.002 -0.5028 -0.6870  0.6474
21005SOL    HW165647   9.150   5.695   0.988 -0.7214 -0.5678 -0.2671
21005SOL    HW265648   9.229   5.823   0.976 -0.5743 -0.5792  0.5529
21006SOL     OW65649   6.590   1.680   4.856  0.5318 -0.1126 -0.0030
21006SOL    HW165650   6.520   1.642   4.909  1.2221  1.0385  1.8114
21006SOL    HW265651   6.629   1.605   4.811 -0.0803 -1.1381  1.1274
21007SOL     OW65652   1.106   5.579   7.716  0.7493  0.0359  0.1022
21007SOL    HW165653   1.174   5.646   7.716  0.3746  0.4177  0.4429
21007SOL    HW265654   1.033   5.620   7.670  0.4348 -0.0518  0.5232
21008SOL     OW65655   2.902   6.545   9.939  0.1248  0.3001 -0.0837
21008SOL    HW165656   2.820   6.590   9.960 -1.0727 -2.1566  0.8047
21008SOL    HW265657   2.921   6.490  10.015  3.0863  1.3615  0.0827
21009SOL     OW65658   9.165   8.896   9.967 -0.1189 -0.4620 -0.0233
21009SOL    HW165659   9.195   8.952  10.039  0.4579  0.0856 -0.6755
21009SOL    HW265660   9.136   8.815  10.010 -0.6630  0.2039  0.9043
21010SOL     OW65661   3.810   7.411   7.426  0.0196 -0.1162 -0.4982
21010SOL    HW165662   3.730   7.419   7.478 -0.3308  0.0736 -1.0636
21010SOL    HW265663   3.787   7.448   7.341  0.0654 -1.9438 -1.3503
21011SOL     OW65664   1.763   6.255  10.323  0.4885  0.1496  0.6272
21011SOL    HW165665   1.723   6.202  10.392  0.9607 -0.0710  0.7367
21011SOL    HW265666   1.779   6.340  10.364 -1.5957  0.8803  0.0389
21012SOL     OW65667   6.825   6.590   4.621  0.1850  0.2495  0.3825
21012SOL    HW165668   6.749   6.538   4.644  0.4299 -0.0864  0.4301
21012SOL    HW265669   6.897   6.552   4.670  1.0535 -1.5079 -2.0653
21013SOL     OW65670   2.861   9.624   9.224  0.0013  0.4332  0.2115
21013SOL    HW165671   2.767   9.611   9.233 -0.0876  1.9774  2.3613
21013SOL    HW265672   2.870   9.712   9.189  0.6137  1.1369  2.0396
21014SOL     OW65673   0.778   4.909   7.617  0.0373 -0.1216 -0.8443
21014SOL    HW165674   0.789   4.982   7.556 -1.2572  0.1073 -0.8120
21014SOL    HW265675   0.817   4.940   7.699 -0.4983  0.5421 -0.8303
21015SOL     OW65676   0.297   4.000   6.085  0.0145  0.1315 -0.0574
21015SOL    HW165677   0.334   4.035   6.004 -0.1607 -0.3393 -0.3521
21015SOL    HW265678   0.295   4.074   6.145  2.3088 -0.0226  0.2964
21016SOL     OW65679   5.280   9.005   0.883 -0.6304 -0.4102 -0.6918
21016SOL    HW165680   5.373   9.021   0.897 -1.0082  1.1426  0.2999
21016SOL    HW265681   5.271   8.996   0.788  0.4552  0.0203 -0.8522
21017SOL     OW65682   5.378   1.751   2.711  0.5233  0.2033 -0.1276
21017SOL    HW165683   5.404   1.794   2.793  2.5051 -0.2054 -0.4790
21017SOL    HW265684   5.403   1.659   2.723  0.9989  0.1662 -1.2211
21018SOL     OW65685   8.099   3.314   5.021 -0.0705  0.1038  0.0965
21018SOL    HW165686   8.108   3.247   5.088 -0.6359 -0.4400 -0.3653
21018SOL    HW265687   8.006   3.338   5.022 -0.1407 -0.0869 -0.6470
21019SOL     OW65688   2.616   9.733   0.595  0.2467  0.2665 -0.0002
21019SOL    HW165689   2.695   9.783   0.616  0.9656 -0.8952  0.1095
21019SOL    HW265690   2.561   9.796   0.547  1.3002  1.0445 -0.2305
21020SOL     OW65691   6.157   6.463   4.115 -0.0393 -0.2178 -0.5520
21020SOL    HW165692   6.081   6.407   4.097 -1.5285  0.6887  2.3095
21020SOL    HW265693   6.226   6.427   4.060 -1.7025 -3.0209 -1.0283
21021SOL     OW65694   7.248   9.359   9.360 -0.1370 -1.0488 -0.2672
21021SOL    HW165695   7.271   9.343   9.451 -1.0003  1.3884  0.4587
21021SOL    HW265696   7.225   9.273   9.326  1.0391 -2.1472  1.5504
21022SOL     OW65697   7.889   1.437   8.524  0.4856  0.2506  0.3353
21022SOL    HW165698   7.828   1.500   8.485  0.4377 -0.1119 -0.1914
21022SOL    HW265699   7.975   1.480   8.519  0.3129  0.6592  0.8507
21023SOL     OW65700   6.775   4.292   5.812 -0.4737  0.0515  0.1577
21023SOL    HW165701   6.692   4.250   5.789 -0.6351  0.9996 -1.1027
21023SOL    HW265702   6.835   4.219   5.829 -1.0086 -0.6778 -0.9733
21024SOL     OW65703   1.810   4.179   0.603 -0.1502 -0.1694 -0.0521
21024SOL    HW165704   1.719   4.157   0.581 -0.6516 -0.5746  2.1181
21024SOL    HW265705   1.842   4.102   0.649  0.6417  0.6630  0.8524
21025SOL     OW65706   4.698   2.655   5.001  0.0294 -0.1439  0.0262
21025SOL    HW165707   4.674   2.571   4.961  0.4809  0.5261 -1.7502
21025SOL    HW265708   4.629   2.672   5.065 -1.3837 -0.7295 -1.2864
21026SOL     OW65709   7.671   3.397   8.787 -0.0518  0.3201 -0.0316
21026SOL    HW165710   7.738   3.410   8.719  0.2747  1.8296  0.5340
21026SOL    HW265711   7.681   3.473   8.844 -2.7642  1.0307 -0.3646
21027SOL     OW65712   4.590   3.568   2.186 -0.0755 -0.4251  0.2070
21027SOL    HW165713   4.668   3.586   2.133  0.9256 -0.0587  1.7187
21027SOL    HW265714   4.534   3.645   2.175  0.3502 -0.1353  0.0603
21028SOL     OW65715   6.544   3.097   6.235 -0.1238 -0.5852 -0.3487
21028SOL    HW165716   6.595   3.156   6.291  0.7653 -1.5048 -0.1668
21028SOL    HW265717   6.584   3.106   6.148 -0.0773 -0.8232 -0.3508
21029SOL     OW65718   9.730   6.472   6.398  0.4492  0.0765 -0.6486
21029SOL    HW165719   9.793   6.402   6.416 -0.0738 -0.3978 -0.6669
21029SOL    HW265720   9.733   6.483   6.303 -1.4965 -1.8518 -0.9916
21030SOL     OW65721   0.356   3.843   2.369  0.0664 -0.2922  0.5138
21030SOL    HW165722   0.292   3.914   2.368  0.3801 -0.0168 -0.4614
21030SOL    HW265723   0.328   3.788   2.443 -1.3751 -0.2625  0.0281
21031SOL     OW65724   2.931   0.216   0.219 -0.2866  0.1952  0.1018
21031SOL    HW165725   2.999   0.179   0.275 -0.8132  1.4320  1.6253
21031SOL    HW265726   2.853   0.222   0.275 -0.9135  1.2223 -0.8286
21032SOL     OW65727   2.937   1.090   6.305 -0.5856 -0.3200 -0.2548
21032SOL    HW165728   2.955   1.184   6.300 -1.0310 -0.2884 -1.9048
21032SOL    HW265729   2.864   1.077   6.245 -0.3123 -1.7839 -0.2911
21033SOL     OW65730   1.833   8.873   0.776 -0.5771 -0.4414  0.9307
21033SOL    HW165731   1.813   8.783   0.749 -1.8320 -0.2200  1.0915
21033SOL    HW265732   1.752   8.921   0.761 -0.5822  0.2117  2.8770
21034SOL     OW65733   8.129   6.247   1.732 -0.1301 -0.1653  0.0631
21034SOL    HW165734   8.108   6.229   1.824 -0.7501  1.9456  0.4051
21034SOL    HW265735   8.044   6.259   1.690  0.1847  1.1459 -0.2443
21035SOL     OW65736   3.433  10.060   7.998  0.3342  0.4624  0.0964
21035SOL    HW165737   3.345  10.057   7.960 -0.3429 -0.5225  1.6482
21035SOL    HW265738   3.418  10.078   8.091  1.5987 -1.8203  0.8154
21036SOL     OW65739   3.779   8.064   5.037 -0.4864  0.0749 -0.1177
21036SOL    HW165740   3.837   8.083   5.111 -0.2843  0.9075 -0.4790
21036SOL    HW265741   3.786   7.969   5.025 -0.6104 -0.0920  1.0030
21037SOL     OW65742   5.110   7.609  10.316 -0.1560  0.0031 -0.4423
21037SOL    HW165743   5.053   7.676  10.351  1.0675 -0.3456  2.4472
21037SOL    HW265744   5.120   7.632  10.223 -1.9067  2.1976 -0.1606
21038SOL     OW65745   3.309   5.856   8.863 -0.7294  0.5141  0.1045
21038SOL    HW165746   3.343   5.848   8.952  0.0924  1.7739 -0.0774
21038SOL    HW265747   3.384   5.885   8.811 -1.0533 -0.7550 -1.1265
21039SOL     OW65748   9.578   4.231   3.773  0.7534 -0.3076  0.5971
21039SOL    HW165749   9.626   4.223   3.690  0.5612 -0.6473  0.5167
21039SOL    HW265750   9.607   4.156   3.825 -1.0802 -1.6269 -0.1730
21040SOL     OW65751   3.905   5.476   3.678  0.3843 -0.7110  0.1896
21040SOL    HW165752   3.876   5.520   3.598  0.0188 -2.4576 -0.6646
21040SOL    HW265753   3.940   5.547   3.732 -0.8396  0.7442 -0.8347
21041SOL     OW65754   2.754  10.171   0.050  0.0666 -0.7328 -0.0379
21041SOL    HW165755   2.808  10.230   0.103  1.3030 -1.4000 -0.5146
21041SOL    HW265756   2.744  10.092   0.104 -0.3127 -0.6636 -0.0072
21042SOL     OW65757   5.861   4.233   7.907  0.2336 -0.6226 -0.6303
21042SOL    HW165758   5.851   4.299   7.839 -0.0500 -1.1120 -1.0671
21042SOL    HW265759   5.929   4.174   7.874  0.9338 -0.2049  0.0376
21043SOL     OW65760   8.207   5.294   5.235 -0.3132  0.0309 -0.3490
21043SOL    HW165761   8.249   5.295   5.149 -1.1244 -0.0956 -0.7500
21043SOL    HW265762   8.169   5.206   5.242 -2.7196  0.9358 -1.0857
21044SOL     OW65763   1.515   5.780   3.352  0.0696  0.0052 -0.0813
21044SOL    HW165764   1.548   5.693   3.373  1.4123  0.2629 -0.9742
21044SOL    HW265765   1.481   5.814   3.435 -1.6408 -1.8161  0.0426
21045SOL     OW65766   3.090   0.016   7.771 -0.3221  0.5146 -0.1025
21045SOL    HW165767   3.164   0.002   7.712 -0.4301  2.3624 -0.7399
21045SOL    HW265768   3.020  -0.036   7.734  0.0208  0.5446 -0.8062
21046SOL     OW65769   2.445   5.366   1.161  0.6667 -0.4657  0.0350
21046SOL    HW165770   2.390   5.349   1.084 -0.0018 -0.0625  0.4115
21046SOL    HW265771   2.534   5.346   1.132  1.0123  3.1406 -2.0781
21047SOL     OW65772   9.406   2.698   5.222  0.1670 -0.3202 -0.2943
21047SOL    HW165773   9.450   2.619   5.190  0.6129 -1.4773  2.8503
21047SOL    HW265774   9.478   2.760   5.238  0.2338 -0.6233  0.6546
21048SOL     OW65775   5.016   7.140   6.112  0.5564  0.4124 -0.1376
21048SOL    HW165776   5.094   7.085   6.122  1.0976  1.1011 -0.4975
21048SOL    HW265777   5.020   7.201   6.186 -1.1287 -1.2869  1.4501
21049SOL     OW65778   0.889   5.236   9.120  0.0021  0.2553 -0.3489
21049SOL    HW165779   0.965   5.294   9.116  1.9723 -2.0426  1.1797
21049SOL    HW265780   0.841   5.265   9.198  0.4223  0.4331 -0.1571
21050SOL     OW65781  10.291   2.978  10.052  0.5808  0.2485  0.0394
21050SOL    HW165782  10.303   2.964   9.959  1.2917  1.3420 -0.0569
21050SOL    HW265783  10.235   3.056  10.058 -0.8665 -0.7881  0.5359
21051SOL     OW65784   1.729   0.960   3.129  0.0988 -0.0352 -0.2116
21051SOL    HW165785   1.696   0.870   3.130  1.9807 -0.7561  0.1780
21051SOL    HW265786   1.808   0.958   3.183  0.0161  1.9392  0.0803
21052SOL     OW65787   2.260   2.421   5.435  0.4276 -0.4155 -0.4489
21052SOL    HW165788   2.224   2.389   5.518  0.6970 -0.6567 -0.4246
21052SOL    HW265789   2.200   2.490   5.408 -0.9620 -1.8639 -1.2139
21053SOL     OW65790   2.743   5.206   9.166 -0.5516  0.6495  0.1252
21053SOL    HW165791   2.651   5.181   9.162 -0.3028 -0.4610  0.9530
21053SOL    HW265792   2.790   5.125   9.184  0.6633  1.0968 -0.8509
21054SOL     OW65793   0.957   3.776   7.431  0.1861  0.1755 -0.2616
21054SOL    HW165794   1.029   3.813   7.482 -0.0957  0.3890 -0.0183
21054SOL    HW265795   1.001   3.731   7.358  0.8272 -3.0986  1.9524
21055SOL     OW65796   0.772   3.149   8.491 -0.6594  0.1253 -0.0706
21055SOL    HW165797   0.808   3.123   8.405 -0.7824 -0.4529  0.0475
21055SOL    HW265798   0.702   3.086   8.507 -0.7191  0.3128  0.3990
21056SOL     OW65799   4.355   9.671   6.896  0.1750  0.2082  0.1403
21056SOL    HW165800   4.395   9.757   6.910  0.5851 -0.1913  1.6832
21056SOL    HW265801   4.264   9.682   6.922  0.6039 -0.1778  1.9773
21057SOL     OW65802   6.862   2.295   0.467  0.2906  0.4201  0.2319
21057SOL    HW165803   6.947   2.331   0.442  0.0140  0.4185 -0.7731
21057SOL    HW265804   6.866   2.204   0.438 -0.2409  0.5606 -0.2850
21058SOL     OW65805   1.547   9.083   8.081 -0.4278  0.0131 -0.0874
21058SOL    HW165806   1.523   9.143   8.010  0.0518  1.0354  0.5855
21058SOL    HW265807   1.464   9.041   8.105 -0.4097 -1.2397 -2.0047
21059SOL     OW65808   2.272   8.316   1.342 -0.1162 -0.6137 -0.7550
21059SOL    HW165809   2.227   8.293   1.261  0.0601  0.4958 -1.1838
21059SOL    HW265810   2.292   8.409   1.333  1.5609 -0.8933 -0.2227
21060SOL     OW65811   0.402   6.507   3.308 -0.2293 -0.4220  0.4762
21060SOL    HW165812   0.452   6.576   3.264  0.4621 -0.2244  1.5465
21060SOL    HW265813   0.340   6.555   3.364 -2.5042 -0.6201 -1.6513
21061SOL     OW65814   5.463   1.947   7.372  0.0017  0.5679  0.5986
21061SOL    HW165815   5.524   2.019   7.356  0.8419 -0.5533 -1.7688
21061SOL    HW265816   5.420   1.933   7.287 -0.1236 -1.6967  0.9721
21062SOL     OW65817   1.178   8.677   2.293 -0.1077  0.2703 -0.0778
21062SOL    HW165818   1.151   8.766   2.270 -0.2776  0.0485 -0.7569
21062SOL    HW265819   1.096   8.627   2.296  0.1014 -0.1513 -1.0090
21063SOL     OW65820   9.606   6.053   1.251 -0.3226 -0.7119 -0.0944
21063SOL    HW165821   9.641   6.142   1.256  0.4025 -1.0569  2.3364
21063SOL    HW265822   9.533   6.059   1.190  0.4938  1.2567 -0.9658
21064SOL     OW65823   8.203   0.889   0.913  0.3215 -0.3290  0.3319
21064SOL    HW165824   8.262   0.934   0.853  0.0773  0.6901  0.8204
21064SOL    HW265825   8.135   0.954   0.933 -0.1146 -0.9636  0.9700
21065SOL     OW65826   4.236   0.891   9.661 -0.6049  0.2966 -0.4700
21065SOL    HW165827   4.146   0.909   9.632 -0.2175  1.4525 -1.0137
21065SOL    HW265828   4.240   0.796   9.668 -2.1030  0.2593  0.3138
21066SOL     OW65829   9.538   1.161   8.570  0.2442 -0.3491 -0.3429
21066SOL    HW165830   9.470   1.099   8.542 -0.7861 -1.6499  4.2292
21066SOL    HW265831   9.610   1.106   8.601 -0.1556  0.6377  2.6095
21067SOL     OW65832   6.127   6.637   0.790  0.0190 -0.3474 -0.2545
21067SOL    HW165833   6.215   6.648   0.754 -0.3666  1.3670 -0.7569
21067SOL    HW265834   6.128   6.687   0.871 -0.5343 -0.2127 -0.3266
21068SOL     OW65835   3.571   6.195   8.361 -0.2228 -0.1749  0.2021
21068SOL    HW165836   3.517   6.267   8.392  1.0972  1.0982 -0.3176
21068SOL    HW265837   3.541   6.179   8.271 -1.5848 -1.3898  0.8381
21069SOL     OW65838   4.691   2.141   7.360 -0.0605 -0.3225  0.0252
21069SOL    HW165839   4.607   2.098   7.344  0.0688 -0.1888 -1.1047
21069SOL    HW265840   4.677   2.194   7.438 -1.2878  0.3934 -0.6543
21070SOL     OW65841   7.841   5.063   9.195 -0.0208 -0.0337 -0.1225
21070SOL    HW165842   7.936   5.054   9.192  0.1394  0.1675  2.3548
21070SOL    HW265843   7.820   5.062   9.289 -2.8988 -4.6641 -0.5198
21071SOL     OW65844   7.579   4.193   2.057  0.5106 -0.3854 -0.1801
21071SOL    HW165845   7.579   4.286   2.037  0.4101 -0.6244 -1.3431
21071SOL    HW265846   7.486   4.170   2.067  0.5200 -0.4131 -0.1508
21072SOL     OW65847   7.155   5.221   0.205 -0.6135  0.4598 -0.0043
21072SOL    HW165848   7.187   5.145   0.253 -0.2954  0.7488  0.2478
21072SOL    HW265849   7.102   5.185   0.134  0.9310 -0.0564 -0.9301
21073SOL     OW65850   4.266   2.629   8.998 -0.1977  0.2451 -0.2243
21073SOL    HW165851   4.188   2.680   8.975 -0.9631 -0.2400  1.2364
21073SOL    HW265852   4.337   2.693   8.996 -0.9594  1.1448  0.4471
21074SOL     OW65853   2.292   3.599   9.110  0.2577 -0.1668 -0.1992
21074SOL    HW165854   2.313   3.691   9.096  2.0642 -0.8027 -2.2948
21074SOL    HW265855   2.198   3.593   9.090  0.0105  1.2723  0.4128
21075SOL     OW65856   0.063   2.293  10.065 -0.3295  0.2297 -0.2141
21075SOL    HW165857   0.121   2.359  10.027 -0.3015 -0.6728 -1.8371
21075SOL    HW265858  -0.007   2.282  10.001 -1.1397 -0.2372  0.7308
21076SOL     OW65859   7.552   3.453   2.891 -0.1797  0.3030  0.2447
21076SOL    HW165860   7.633   3.427   2.935  0.9942 -0.6754 -2.3190
21076SOL    HW265861   7.482   3.420   2.948  1.2038  0.5000  2.1383
21077SOL     OW65862   9.321   8.264   1.063  0.0422  0.3369  0.2402
21077SOL    HW165863   9.395   8.212   1.031  1.1059  1.7102  0.3968
21077SOL    HW265864   9.273   8.287   0.983 -0.4032 -0.7848  0.1603
21078SOL     OW65865   0.125   4.293   1.499 -0.3385  0.0852 -0.6754
21078SOL    HW165866   0.072   4.313   1.422 -0.2483 -0.4697 -0.8862
21078SOL    HW265867   0.061   4.287   1.570 -0.2596  2.3459 -0.3266
21079SOL     OW65868   8.881   3.557   0.615 -0.7310  0.6735  0.1263
21079SOL    HW165869   8.812   3.571   0.550  1.4261 -0.1857 -2.5662
21079SOL    HW265870   8.922   3.642   0.626  0.0935  0.4860 -1.2139
21080SOL     OW65871   9.566   7.665   2.002  0.1211 -0.3975  0.6883
21080SOL    HW165872   9.597   7.750   1.970 -2.1490  0.1029 -0.3708
21080SOL    HW265873   9.624   7.601   1.961  0.7436  0.5497  0.0490
21081SOL     OW65874   2.017   9.833   0.174  0.1970 -0.0564 -0.4574
21081SOL    HW165875   2.050   9.889   0.245  0.6413 -0.7755 -0.0771
21081SOL    HW265876   1.985   9.755   0.219  0.6061 -0.5781 -1.0597
21082SOL     OW65877   8.973   6.027   8.546  0.7402  0.0430 -0.5056
21082SOL    HW165878   8.974   5.964   8.618 -0.5171  1.3142  0.7014
21082SOL    HW265879   8.903   5.996   8.488  0.7829 -0.1954 -0.4294
21083SOL     OW65880   0.996   1.905   8.985  0.4493 -0.1474  0.0423
21083SOL    HW165881   0.997   1.992   8.945  1.2201 -0.3488 -0.4097
21083SOL    HW265882   0.929   1.910   9.053 -0.2065  0.5022 -0.6338
21084SOL     OW65883   9.055   3.205   4.675 -0.1123 -0.1467 -0.2699
21084SOL    HW165884   9.124   3.166   4.621 -0.4589 -1.2160  0.0334
21084SOL    HW265885   9.023   3.133   4.728  0.3141  0.9114  1.4887
21085SOL     OW65886   3.419   3.724   8.596  0.0062 -0.0056  0.4691
21085SOL    HW165887   3.366   3.766   8.528  0.4312  0.1026  0.1992
21085SOL    HW265888   3.405   3.630   8.583 -0.9794  0.0421  1.0992
21086SOL     OW65889   5.163   4.681   1.207  0.6586  0.6187 -0.0564
21086SOL    HW165890   5.218   4.655   1.281 -0.0291  1.5044  0.8043
21086SOL    HW265891   5.163   4.606   1.148  1.5723  0.0566  0.6446
21087SOL     OW65892   2.214   2.628   0.328 -0.1746 -0.1440 -0.2259
21087SOL    HW165893   2.125   2.595   0.313 -0.0557 -1.7932  2.1599
21087SOL    HW265894   2.206   2.723   0.321 -1.8097 -0.3218 -1.3666
21088SOL     OW65895   1.263   0.887   7.142 -0.6944 -0.0865  0.2595
21088SOL    HW165896   1.186   0.852   7.186 -0.6458  0.0376  0.4484
21088SOL    HW265897   1.336   0.835   7.176 -0.5382  0.6009  1.0312
21089SOL     OW65898   4.688  10.000  10.328 -0.2804  0.1802  0.2312
21089SOL    HW165899   4.625  10.069  10.348 -0.7662 -0.5777  1.4205
21089SOL    HW265900   4.772  10.033  10.361 -0.4952  0.2526  0.7115
21090SOL     OW65901   4.619   6.685   0.967 -0.0782 -0.2168 -0.1368
21090SOL    HW165902   4.638   6.753   0.902  0.6522 -1.0941 -0.8708
21090SOL    HW265903   4.639   6.727   1.051 -1.5314  1.1047 -0.4055
21091SOL     OW65904   3.057   9.883  10.037 -0.1773 -0.1407  0.5070
21091SOL    HW165905   3.069   9.974  10.065  1.3543 -0.2631  0.3211
21091SOL    HW265906   3.027   9.890   9.946 -0.7339  0.1768  0.7082
21092SOL     OW65907   7.319  10.318   3.181  0.1704 -0.2171 -0.2113
21092SOL    HW165908   7.226  10.293   3.182 -0.3105  1.3348 -1.4603
21092SOL    HW265909   7.364  10.243   3.143 -0.2655 -1.7382  2.0702
21093SOL     OW65910   2.908   3.206   6.499  0.2325  0.0991 -0.3785
21093SOL    HW165911   2.912   3.253   6.416 -0.4001  2.1196  0.6635
21093SOL    HW265912   2.861   3.265   6.558 -0.6759 -1.9146  1.0225
21094SOL     OW65913   0.247   4.226   7.063  0.2358  0.0789  0.5007
21094SOL    HW165914   0.200   4.144   7.051 -2.4272  1.4055  1.0422
21094SOL    HW265915   0.321   4.204   7.119  0.7212 -2.2417 -0.9273
21095SOL     OW65916   4.427  10.053   0.509 -0.0701  0.6156 -0.4593
21095SOL    HW165917   4.482  10.000   0.451  1.7171 -0.3137  1.8892
21095SOL    HW265918   4.452  10.144   0.489  1.3877  0.2648 -0.3956
21096SOL     OW65919   0.495   9.504   1.429  0.1700  0.5374  0.9211
21096SOL    HW165920   0.417   9.532   1.381  0.8127  3.1118  1.2341
21096SOL    HW265921   0.568   9.522   1.369  0.8102  1.9973  2.0569
21097SOL     OW65922   1.223   7.758   2.985  0.1271  0.1395  0.3392
21097SOL    HW165923   1.285   7.748   2.913  1.8830 -0.4226  1.8607
21097SOL    HW265924   1.277   7.780   3.061 -1.6104  0.2662  1.5985
21098SOL     OW65925   3.941   2.086   3.250 -0.0714  0.9366  0.0696
21098SOL    HW165926   3.868   2.024   3.242 -0.1671  0.9741  0.6107
21098SOL    HW265927   3.902   2.171   3.230 -0.3503  1.0535  1.0169
21099SOL     OW65928   7.481  10.187   2.943  0.1251  0.4282  0.0482
21099SOL    HW165929   7.557  10.133   2.966  0.7475  0.9735 -0.6773
21099SOL    HW265930   7.518  10.260   2.892 -0.5765  2.0115  1.6898
21100SOL     OW65931   7.829   4.863   9.559 -0.1225  0.1499  0.4021
21100SOL    HW165932   7.849   4.867   9.653 -1.8462 -0.3420  0.8193
21100SOL    HW265933   7.747   4.813   9.554 -0.0016  0.0787 -1.3804
21101SOL     OW65934   1.851   6.780   6.564  0.5367  0.8401  0.1926
21101SOL    HW165935   1.781   6.795   6.500  0.8726 -0.6481 -0.5776
21101SOL    HW265936   1.882   6.691   6.545  0.4795  0.2529  2.6255
21102SOL     OW65937   0.870   1.486   2.181 -0.3505  0.1909 -0.2129
21102SOL    HW165938   0.963   1.504   2.189 -0.3839  0.4653 -0.4135
21102SOL    HW265939   0.841   1.542   2.109 -0.8072  0.6314  0.3018
21103SOL     OW65940   6.352   7.079   0.773 -0.2304 -0.0066 -0.5874
21103SOL    HW165941   6.275   7.027   0.751 -0.7971  1.1020 -1.3069
21103SOL    HW265942   6.349   7.154   0.714  0.7288  0.6979  0.2107
21104SOL     OW65943   2.024   7.325   7.132 -0.5345 -0.1284 -0.2339
21104SOL    HW165944   2.059   7.388   7.069 -0.3045 -1.8093 -1.8683
21104SOL    HW265945   2.102   7.286   7.173 -0.5719 -0.9497 -0.9050
21105SOL     OW65946   2.378   9.704   2.022  0.3801 -0.3557  0.0964
21105SOL    HW165947   2.318   9.702   1.947 -3.6140  0.8158  2.9209
21105SOL    HW265948   2.429   9.624   2.014 -2.1246 -1.8964 -2.2349
21106SOL     OW65949   2.897   3.062   8.067 -0.3195 -0.2237 -0.2105
21106SOL    HW165950   2.973   3.041   8.012 -0.9255  1.5244 -1.8305
21106SOL    HW265951   2.902   3.001   8.140  3.4588  0.7659  0.5429
21107SOL     OW65952   2.684   4.454   8.639  0.1528  0.3870  0.0591
21107SOL    HW165953   2.757   4.392   8.636 -0.8930 -0.9305 -3.1774
21107SOL    HW265954   2.613   4.406   8.681 -0.1045  0.0005 -0.7856
21108SOL     OW65955   4.493   0.537   6.326 -0.0509 -0.1170 -0.2859
21108SOL    HW165956   4.436   0.517   6.252  0.1204  0.2361 -0.5183
21108SOL    HW265957   4.482   0.464   6.386 -0.5448 -0.1805 -0.4528
21109SOL     OW65958  10.042   8.886   2.494 -0.3779  0.2005 -0.1789
21109SOL    HW165959  10.064   8.978   2.502  0.5711  0.0134 -0.5114
21109SOL    HW265960   9.964   8.884   2.439  0.5404  0.7180 -1.5295
21110SOL     OW65961   0.654   7.803   0.236 -0.0884 -0.0260  0.0934
21110SOL    HW165962   0.670   7.897   0.247  1.1598 -0.4728  3.5925
21110SOL    HW265963   0.741   7.765   0.223 -0.1092 -0.9326  2.1637
21111SOL     OW65964   8.623   0.106   5.935  0.6226  0.2426 -0.2600
21111SOL    HW165965   8.711   0.138   5.957  0.7086  0.2662 -0.6390
21111SOL    HW265966   8.564   0.162   5.987  0.8847 -0.8451  1.2861
21112SOL     OW65967   8.436   3.041   6.417 -0.3531 -0.3016  0.2540
21112SOL    HW165968   8.484   2.958   6.420 -2.5536 -1.7181 -0.9097
21112SOL    HW265969   8.359   3.025   6.472 -0.8950  0.9271 -0.1238
21113SOL     OW65970   8.076   8.507   9.675 -0.0251  0.7490  0.8347
21113SOL    HW165971   8.083   8.464   9.760 -0.6448  1.2669  1.1633
21113SOL    HW265972   8.021   8.449   9.623 -1.4391  1.4269  1.4989
21114SOL     OW65973   2.045  10.355   7.342 -0.4534  0.1288  0.6758
21114SOL    HW165974   2.048  10.440   7.298 -1.6661  0.5574  1.3648
21114SOL    HW265975   2.015  10.376   7.431  0.5916 -0.8708  1.2831
21115SOL     OW65976   3.366   8.951   1.475 -0.1599  0.0559  0.1405
21115SOL    HW165977   3.417   8.870   1.475  0.8520  0.6654 -0.1559
21115SOL    HW265978   3.420   9.013   1.426 -1.0521  0.8269  0.1014
21116SOL     OW65979   2.348   5.313   2.105 -0.6590  0.0925 -0.0418
21116SOL    HW165980   2.420   5.333   2.046 -0.3678 -1.8685 -0.4332
21116SOL    HW265981   2.387   5.317   2.193 -0.4766  0.6104 -0.1473
21117SOL     OW65982   5.648   7.552   3.211 -0.2634  0.1767  0.0244
21117SOL    HW165983   5.733   7.524   3.178 -0.2682 -0.4737  0.5474
21117SOL    HW265984   5.585   7.519   3.146 -0.4220 -2.5535  1.4281
21118SOL     OW65985   4.298   8.689   9.375  0.7457  0.5978 -0.2146
21118SOL    HW165986   4.306   8.759   9.440 -0.2065  0.8852 -0.3803
21118SOL    HW265987   4.319   8.732   9.292  0.9729  0.4799 -0.2185
21119SOL     OW65988  10.341   9.630   6.652  0.1761  0.2019  0.2041
21119SOL    HW165989  10.344   9.583   6.569  0.6854  1.4865 -0.5300
21119SOL    HW265990  10.311   9.718   6.629  0.2244  0.5555  1.4027
21120SOL     OW65991   7.719   3.238   4.119 -0.4600  0.1860 -0.1370
21120SOL    HW165992   7.634   3.213   4.082 -1.3047  0.3948  1.6006
21120SOL    HW265993   7.698   3.294   4.194  1.2238  0.4019  0.2185
21121SOL     OW65994   0.405   5.872   8.696  0.0908  0.1042  0.1229
21121SOL    HW165995   0.476   5.934   8.681  0.8185 -0.4710  1.0216
21121SOL    HW265996   0.347   5.915   8.758 -0.5202  0.6879 -0.8260
21122SOL     OW65997   6.679   9.464   5.383  0.1428  0.5427  0.1133
21122SOL    HW165998   6.644   9.413   5.311  0.6742  0.6918 -0.2598
21122SOL    HW265999   6.630   9.435   5.460  0.4723 -0.5805 -0.0792
21123SOL     OW66000   3.801   4.122   7.580  0.6587  0.1884  0.1482
21123SOL    HW166001   3.861   4.052   7.556 -0.1298 -0.1275 -1.0102
21123SOL    HW266002   3.714   4.087   7.559  0.2322  1.4019 -0.1983
21124SOL     OW66003   6.335  10.031   1.664  0.7048 -0.6557 -0.4217
21124SOL    HW166004   6.290  10.025   1.748 -0.5754  0.0934 -1.0343
21124SOL    HW266005   6.280  10.089   1.610  1.7162 -0.7680 -1.6332
21125SOL     OW66006   9.618   5.865   5.583 -0.6240 -0.2812  0.3873
21125SOL    HW166007   9.643   5.938   5.526 -0.9257 -0.8853 -0.5354
21125SOL    HW266008   9.699   5.841   5.628 -0.0960 -0.5785 -0.6895
21126SOL     OW66009   4.530   1.156   5.731  0.5656 -0.0888  0.0645
21126SOL    HW166010   4.468   1.083   5.724  0.7202 -0.5835  2.5895
21126SOL    HW266011   4.528   1.198   5.645 -1.8803 -1.1805 -0.5179
21127SOL     OW66012   3.554   1.643   1.548  0.3905 -0.2455 -0.2067
21127SOL    HW166013   3.558   1.553   1.516  0.2175  0.7418 -3.3011
21127SOL    HW266014   3.630   1.651   1.606 -0.1420 -2.5791  0.9696
21128SOL     OW66015   9.716   0.657   1.827 -0.4451  0.5018 -0.3477
21128SOL    HW166016   9.805   0.634   1.800  0.1555  0.3531  1.6396
21128SOL    HW266017   9.723   0.745   1.862 -1.2529  0.7957 -0.8929
21129SOL     OW66018  10.018   7.322   5.739  0.4682 -0.2150  0.5466
21129SOL    HW166019   9.926   7.297   5.731  0.6063 -0.6967  0.3924
21129SOL    HW266020  10.045   7.343   5.650  0.5937 -0.3971  0.5414
21130SOL     OW66021   2.474   3.939   5.776 -0.2703 -0.4648 -0.2846
21130SOL    HW166022   2.569   3.940   5.777 -0.1711 -2.6239 -1.7819
21130SOL    HW266023   2.449   3.964   5.865  1.5927  1.8668 -0.3054
21131SOL     OW66024   7.572   7.867   6.123  0.0661  0.0132  0.1760
21131SOL    HW166025   7.601   7.792   6.174 -0.1657 -0.8990 -1.0034
21131SOL    HW266026   7.562   7.937   6.187  0.9140 -0.7733  1.1982
21132SOL     OW66027   8.076   0.870   0.456 -0.3209 -0.4307  0.4247
21132SOL    HW166028   8.050   0.785   0.420  2.3517 -1.0646 -0.2063
21132SOL    HW266029   8.061   0.932   0.384 -0.7750 -0.6308  0.3416
21133SOL     OW66030   6.270   0.941   4.547  0.2421  0.2178 -0.3239
21133SOL    HW166031   6.306   0.862   4.507  0.0395  0.7422 -1.5988
21133SOL    HW266032   6.332   1.010   4.524 -0.6885  0.8188 -1.1080
21134SOL     OW66033   4.323   9.333   3.423 -0.3007 -0.0512  0.0383
21134SOL    HW166034   4.351   9.306   3.335  0.2881 -2.1904  0.8079
21134SOL    HW266035   4.274   9.258   3.456 -1.3573  1.1023  1.1995
21135SOL     OW66036   4.274   7.831   4.802  0.1810 -0.1597  0.3770
21135SOL    HW166037   4.354   7.806   4.754  0.6507 -0.1549  1.1477
21135SOL    HW266038   4.218   7.753   4.796  0.1270 -0.0761 -0.3828
21136SOL     OW66039   0.959   9.732   2.798 -0.2189 -0.1106  0.1393
21136SOL    HW166040   0.904   9.659   2.827 -0.2009 -0.9421 -1.7611
21136SOL    HW266041   1.047   9.710   2.828 -0.5706  0.2766  1.5279
21137SOL     OW66042   4.453   4.923   2.225 -0.0664 -0.5095 -0.8568
21137SOL    HW166043   4.358   4.931   2.219  0.0087  0.2912 -0.9994
21137SOL    HW266044   4.469   4.829   2.211 -0.7102 -0.4249 -2.4242
21138SOL     OW66045   7.320   7.830   4.597 -0.0073  0.4462  0.0272
21138SOL    HW166046   7.285   7.761   4.654 -0.5228  0.8152  0.1573
21138SOL    HW266047   7.302   7.911   4.645 -1.8287  0.9050 -1.3420
21139SOL     OW66048   3.573   1.177   4.996 -0.1088 -0.3378  0.1778
21139SOL    HW166049   3.659   1.195   4.957  0.6220 -3.0078  0.3856
21139SOL    HW266050   3.591   1.159   5.088 -1.4864  3.0356  1.2680
21140SOL     OW66051   1.147   6.041   0.395  0.4777 -0.2013  0.1429
21140SOL    HW166052   1.130   6.004   0.309 -0.7557 -0.8055  0.6227
21140SOL    HW266053   1.073   6.100   0.411  0.0242 -1.0446  1.2910
21141SOL     OW66054   9.569   7.611   2.956 -0.3745  0.0071  0.2631
21141SOL    HW166055   9.574   7.651   3.043 -0.2839  0.1996  0.1686
21141SOL    HW266056   9.625   7.534   2.961 -0.7900 -0.2824  0.5390
21142SOL     OW66057   1.858   3.861   9.888  0.3038  0.3307 -0.1144
21142SOL    HW166058   1.791   3.804   9.926  1.8389 -0.5239  1.4635
21142SOL    HW266059   1.887   3.813   9.810  1.4215 -1.0442  1.0737
21143SOL     OW66060   2.946   8.449   7.554 -0.0215  0.0814 -0.1864
21143SOL    HW166061   2.890   8.458   7.630  1.5022  0.0177  0.9854
21143SOL    HW266062   2.954   8.355   7.540  1.9211 -0.0433  1.3484
21144SOL     OW66063  10.349   6.264   6.448 -0.4477 -0.0432 -0.4713
21144SOL    HW166064  10.345   6.309   6.363 -1.7730  0.1074 -0.3463
21144SOL    HW266065  10.324   6.331   6.512 -1.6357 -0.7241 -0.1998
21145SOL     OW66066   8.399   1.739   2.149  0.1296  0.0151 -0.0558
21145SOL    HW166067   8.425   1.671   2.211  1.3763 -0.2642 -0.8590
21145SOL    HW266068   8.305   1.725   2.136 -0.0685 -0.1646  1.4471
21146SOL     OW66069   5.655   9.536   0.249 -0.3162  0.1098  0.3273
21146SOL    HW166070   5.584   9.512   0.191  0.2998 -2.5877  0.5496
21146SOL    HW266071   5.730   9.484   0.219  0.8680  0.9471  1.6449
21147SOL     OW66072   0.704   2.217   4.844 -0.0516  0.5177 -0.2476
21147SOL    HW166073   0.694   2.281   4.915  3.3744 -0.9197  1.7984
21147SOL    HW266074   0.777   2.250   4.791  2.8540 -2.0935  1.7370
21148SOL     OW66075   9.338   4.441   4.699  0.1075  0.1450 -0.3690
21148SOL    HW166076   9.325   4.456   4.605 -0.5598 -0.2228 -0.3441
21148SOL    HW266077   9.414   4.493   4.721  0.9692 -0.6415 -1.3614
21149SOL     OW66078   9.181   3.133   2.641  0.2359  0.1001 -0.0163
21149SOL    HW166079   9.131   3.061   2.601  0.6712 -0.3045  0.1562
21149SOL    HW266080   9.130   3.211   2.620 -0.1950 -0.2441 -0.2954
21150SOL     OW66081   5.117   3.658   9.335 -0.2596 -1.1805  0.6664
21150SOL    HW166082   5.196   3.629   9.380 -0.0149 -1.0562  0.3141
21150SOL    HW266083   5.082   3.579   9.294  0.5036 -0.9597 -0.4419
21151SOL     OW66084   5.507   6.082   1.728 -0.5564  0.1584 -0.2197
21151SOL    HW166085   5.458   6.111   1.804  1.4665 -2.9300  2.5432
21151SOL    HW266086   5.577   6.146   1.718  0.1772 -0.2762  1.7103
21152SOL     OW66087   9.167   8.994   0.143  0.6035 -0.0848  0.4105
21152SOL    HW166088   9.087   8.942   0.157 -0.1262  0.6591 -0.8232
21152SOL    HW266089   9.184   9.034   0.228  0.1682 -0.9373  0.9189
21153SOL     OW66090   2.748   2.391   0.906 -0.0159 -0.0770 -0.4551
21153SOL    HW166091   2.694   2.469   0.921 -0.7494 -0.0435 -2.8592
21153SOL    HW266092   2.688   2.327   0.867  0.7919 -1.5361  0.6216
21154SOL     OW66093   9.164   0.928   3.350  0.5675 -0.2723  0.2389
21154SOL    HW166094   9.149   0.967   3.436 -1.0184 -0.7998  0.2310
21154SOL    HW266095   9.142   0.997   3.288  2.9155  0.5417  0.1856
21155SOL     OW66096   9.848   0.178   2.956 -0.7478 -0.3169  0.2017
21155SOL    HW166097   9.819   0.269   2.957  0.9966  0.2987 -0.3796
21155SOL    HW266098   9.769   0.127   2.975 -1.2098  1.4078  3.5711
21156SOL     OW66099   0.466   5.071   1.551 -0.2110 -0.1823  0.9529
21156SOL    HW166100   0.377   5.051   1.521 -0.2839  0.3366  0.8186
21156SOL    HW266101   0.501   4.986   1.581 -0.5353 -0.5009  0.4433
21157SOL     OW66102   5.465   8.594   4.976  0.3249  0.4590 -0.6441
21157SOL    HW166103   5.506   8.530   4.917  0.0394  0.7944 -1.2190
21157SOL    HW266104   5.378   8.559   4.993  0.7996 -0.2043  0.4991
21158SOL     OW66105   9.236   4.435   9.333 -0.0681  0.1504  0.1176
21158SOL    HW166106   9.189   4.362   9.292 -1.4228  1.8442 -1.5742
21158SOL    HW266107   9.185   4.455   9.411  0.9846 -1.3982  1.2503
21159SOL     OW66108   8.483   8.726   8.199 -1.0806 -0.0219 -0.1768
21159SOL    HW166109   8.428   8.668   8.147 -0.5917 -0.3005 -0.3878
21159SOL    HW266110   8.453   8.713   8.289 -1.6893  0.1992 -0.3441
21160SOL     OW66111   8.960   7.369   5.818  0.0141 -0.6912 -0.2780
21160SOL    HW166112   9.038   7.398   5.772 -0.5996  0.6855 -0.4875
21160SOL    HW266113   8.952   7.429   5.893 -0.5988 -1.0884 -0.0125
21161SOL     OW66114  10.207   4.923   9.478  0.3579  0.0480  0.2260
21161SOL    HW166115  10.207   4.879   9.563 -0.7513 -2.4219 -0.9463
21161SOL    HW266116  10.297   4.914   9.447  0.4046 -0.4292  0.4886
21162SOL     OW66117   8.931   3.865   9.272 -0.1493 -0.1976 -0.3571
21162SOL    HW166118   8.950   3.841   9.362  2.3583 -0.5055 -0.9216
21162SOL    HW266119   8.849   3.820   9.252 -1.1357  0.4279  1.9396
21163SOL     OW66120   9.213   1.256   6.866 -0.2298  0.4441  0.2026
21163SOL    HW166121   9.157   1.293   6.798 -0.7263 -0.4426  0.1134
21163SOL    HW266122   9.280   1.323   6.880 -0.5400  0.9557 -0.6321
21164SOL     OW66123   2.604   6.800   4.470  0.2517 -0.2630  0.0073
21164SOL    HW166124   2.634   6.740   4.538 -0.3605  0.9231  1.3755
21164SOL    HW266125   2.634   6.760   4.388  1.2568 -1.5858  0.9717
21165SOL     OW66126   5.021   8.710   2.077  0.4415 -0.2983  0.3049
21165SOL    HW166127   5.010   8.627   2.123 -0.3489 -0.0342  0.6265
21165SOL    HW266128   4.960   8.770   2.122 -0.5336 -0.0947 -1.2223
21166SOL     OW66129   1.716  10.006   7.543 -0.1767  0.7868 -0.2305
21166SOL    HW166130   1.707   9.944   7.614  0.2891  0.9763  0.0026
21166SOL    HW266131   1.645  10.069   7.555  0.0670  0.9775  0.2365
21167SOL     OW66132   2.528   9.345   1.645 -0.0524  0.2013 -0.1193
21167SOL    HW166133   2.504   9.294   1.723  1.1367  0.4196  0.4126
21167SOL    HW266134   2.599   9.294   1.605  0.5226  0.9728 -0.0919
21168SOL     OW66135   7.067  10.285   1.264 -0.6690  0.3455  0.9157
21168SOL    HW166136   7.095  10.368   1.224  0.0402  0.2777  1.2550
21168SOL    HW266137   7.078  10.300   1.358 -0.5654 -0.1253  0.9771
21169SOL     OW66138   9.738   7.583   5.896 -0.5001  0.1581  0.1743
21169SOL    HW166139   9.717   7.544   5.812  1.9221 -1.8399  0.3772
21169SOL    HW266140   9.663   7.638   5.917 -2.1284 -0.9995 -2.2403
21170SOL     OW66141   7.663   6.607   2.581 -0.1013  0.3833  0.1989
21170SOL    HW166142   7.593   6.672   2.581  0.4729  1.0281 -0.7121
21170SOL    HW266143   7.733   6.648   2.631  0.3786  0.6129 -0.6400
21171SOL     OW66144   0.463   7.870   9.831  0.2275  0.3293  0.0762
21171SOL    HW166145   0.500   7.844   9.747  0.1113  1.2372 -0.2623
21171SOL    HW266146   0.527   7.931   9.867 -0.0617  0.4819  0.3330
21172SOL     OW66147   7.221   2.746   3.119 -0.4017 -0.0663 -0.3390
21172SOL    HW166148   7.207   2.676   3.056 -1.9799 -2.3064  2.2665
21172SOL    HW266149   7.146   2.804   3.109 -1.6472 -1.4474  0.6528
21173SOL     OW66150   7.723   6.345   1.073  0.0008  0.0300 -0.5060
21173SOL    HW166151   7.810   6.305   1.072 -0.4638 -1.0810 -2.6070
21173SOL    HW266152   7.670   6.289   1.016 -1.8010  1.3330 -0.2127
21174SOL     OW66153   8.986   0.676   5.530  0.6917 -0.4263 -0.6304
21174SOL    HW166154   8.916   0.611   5.520  0.8945 -0.6073 -0.8843
21174SOL    HW266155   9.058   0.642   5.477 -0.0027  1.1999 -2.7255
21175SOL     OW66156   2.316   4.736   9.648  0.9416  0.4796  0.0204
21175SOL    HW166157   2.249   4.805   9.654 -0.2086 -0.3945 -1.8525
21175SOL    HW266158   2.294   4.676   9.719 -0.1462  0.3332 -0.4116
21176SOL     OW66159   6.862   2.418   5.871 -0.2929 -0.0016 -0.0128
21176SOL    HW166160   6.927   2.356   5.904 -0.6527 -0.5828 -0.3682
21176SOL    HW266161   6.794   2.420   5.938  1.2387  2.6098  1.6691
21177SOL     OW66162   2.554   5.426   7.893 -0.1955  0.6729  0.3594
21177SOL    HW166163   2.588   5.515   7.883 -0.1256  0.5957 -0.1570
21177SOL    HW266164   2.631   5.370   7.887 -0.3180  0.5410 -0.0105
21178SOL     OW66165   5.127   7.014   0.959  0.2807  0.2568  0.0725
21178SOL    HW166166   5.207   7.060   0.984  0.7766 -0.3947 -0.2739
21178SOL    HW266167   5.150   6.921   0.964 -0.3243  0.0695 -0.4649
21179SOL     OW66168   4.858   1.150   5.112 -0.6151 -0.3622  0.1965
21179SOL    HW166169   4.890   1.069   5.153 -0.1518 -1.1543 -1.6437
21179SOL    HW266170   4.917   1.218   5.145  1.0013 -1.2945 -0.6522
21180SOL     OW66171   1.758   7.218   3.525  0.2681  0.0933 -0.4135
21180SOL    HW166172   1.841   7.220   3.574  0.2225  1.1978 -0.3695
21180SOL    HW266173   1.749   7.127   3.498 -0.4790 -0.9906  3.0010
21181SOL     OW66174  10.174   6.215   9.456  0.0560 -0.2060 -0.3586
21181SOL    HW166175  10.181   6.304   9.493 -0.3130  1.0636 -3.0894
21181SOL    HW266176  10.232   6.217   9.380 -1.7343 -1.5231 -1.8440
21182SOL     OW66177   7.385   7.513   1.430 -0.2734  0.3221 -0.0185
21182SOL    HW166178   7.474   7.529   1.460 -0.4147  0.0536  0.5580
21182SOL    HW266179   7.330   7.558   1.494 -0.5340  1.5291 -1.0373
21183SOL     OW66180  10.053   5.425   2.127  0.0504  0.3090  0.2235
21183SOL    HW166181   9.990   5.438   2.198  1.0920 -0.8350  1.4055
21183SOL    HW266182  10.088   5.512   2.109  0.8324  0.4208  2.1393
21184SOL     OW66183   6.514   9.826   0.545  0.1327 -0.4407 -0.1271
21184SOL    HW166184   6.456   9.854   0.616  1.1525 -0.5829  0.7892
21184SOL    HW266185   6.454   9.798   0.475 -0.9085  1.4624 -0.0617
21185SOL     OW66186   8.097   3.929   1.656  0.0658  0.0734  0.3817
21185SOL    HW166187   8.013   3.945   1.699  0.3954  0.9073  0.7450
21185SOL    HW266188   8.155   3.902   1.727  0.2708  0.1526  0.2455
21186SOL     OW66189   7.071   5.616   2.190 -0.2449  0.1981  0.1755
21186SOL    HW166190   7.058   5.602   2.096  0.1251  1.6719 -0.1247
21186SOL    HW266191   6.983   5.629   2.224 -0.2585  2.0060 -0.4183
21187SOL     OW66192   5.164   8.999   2.643  0.0531 -0.2740 -0.5673
21187SOL    HW166193   5.129   9.057   2.711  0.4133 -0.2890 -0.3650
21187SOL    HW266194   5.218   9.057   2.589  1.1975 -0.5902  0.1996
21188SOL     OW66195   6.876   9.355   9.248  0.3997  0.3619 -0.0507
21188SOL    HW166196   6.795   9.318   9.213 -0.9747  0.9016  2.3235
21188SOL    HW266197   6.943   9.332   9.183 -0.9972 -3.0440 -0.5038
21189SOL     OW66198   5.608   3.412   9.503 -0.2075 -0.3910 -0.4264
21189SOL    HW166199   5.642   3.433   9.591  2.4962  0.5727 -1.5941
21189SOL    HW266200   5.580   3.321   9.510  1.4589 -0.8670  1.0659
21190SOL     OW66201   3.035   1.540   5.922  0.0345  0.1279  0.1881
21190SOL    HW166202   2.998   1.559   6.008  1.2382 -0.0546  0.7647
21190SOL    HW266203   3.124   1.576   5.925  0.6603 -1.2815 -0.3978
21191SOL     OW66204   0.420   3.506   0.882  0.2030  0.5431  0.0729
21191SOL    HW166205   0.428   3.560   0.960 -1.2424  1.3220 -0.2685
21191SOL    HW266206   0.442   3.565   0.810  0.0612  0.2663 -0.1985
21192SOL     OW66207   7.852   6.669   2.367 -0.4527  0.2392 -0.1216
21192SOL    HW166208   7.808   6.621   2.437  0.4562 -0.4562 -0.0009
21192SOL    HW266209   7.812   6.637   2.286 -0.7638  0.2489  0.0291
21193SOL     OW66210   1.835   7.254   7.498 -0.1673  0.4719 -0.1765
21193SOL    HW166211   1.749   7.217   7.481 -0.7566  0.5258  2.2922
21193SOL    HW266212   1.829   7.290   7.586  2.3210  0.6692 -0.0074
21194SOL     OW66213   1.666   4.193   6.592 -0.0591  0.2398 -0.0209
21194SOL    HW166214   1.652   4.277   6.635 -1.8467 -0.0608  0.0712
21194SOL    HW266215   1.584   4.146   6.604  0.9259 -1.5712 -0.0055
21195SOL     OW66216   6.997   5.189   8.454  0.1653  0.0815  0.2023
21195SOL    HW166217   7.012   5.095   8.468  0.2475  0.0464 -0.0943
21195SOL    HW266218   6.912   5.193   8.409  0.1140  0.1564  0.3064
21196SOL     OW66219   7.365   2.397   5.048 -0.4107  0.3552 -0.7433
21196SOL    HW166220   7.390   2.367   5.135  1.2350 -0.3939 -1.4297
21196SOL    HW266221   7.311   2.326   5.013  0.6025 -0.2750 -1.0656
21197SOL     OW66222   7.083   4.484  10.092 -0.8328  0.6065  0.3051
21197SOL    HW166223   7.134   4.458  10.015 -2.1020  0.5858 -0.5623
21197SOL    HW266224   7.062   4.577  10.076  0.9606  1.3369  1.8330
21198SOL     OW66225   9.080  10.001   8.216  0.0250  0.0090 -0.3897
21198SOL    HW166226   9.050  10.042   8.135 -0.0246  0.3755 -0.1888
21198SOL    HW266227   9.162  10.046   8.237 -0.7124  0.9768  0.5610
21199SOL     OW66228   7.244   4.670   0.099 -0.9055 -0.0718  0.2504
21199SOL    HW166229   7.196   4.588   0.092 -1.1584  0.0387  0.6634
21199SOL    HW266230   7.292   4.677   0.017 -1.7969 -0.0592 -0.2818
21200SOL     OW66231   4.678   6.678   3.669 -0.3063 -0.2763 -0.2210
21200SOL    HW166232   4.665   6.650   3.760 -0.4891 -0.5353 -0.3264
21200SOL    HW266233   4.591   6.676   3.631  0.0113 -2.2565 -0.9959
21201SOL     OW66234   0.400   2.883   8.513 -0.1369 -0.0843  0.3082
21201SOL    HW166235   0.485   2.850   8.543 -0.6495 -0.4487  1.3971
21201SOL    HW266236   0.423   2.950   8.448  0.9831 -0.1618  0.5940
21202SOL     OW66237   9.100   2.124   2.424  0.6656  0.1627 -0.2454
21202SOL    HW166238   9.118   2.054   2.360 -1.4686 -0.1271 -0.6012
21202SOL    HW266239   9.044   2.082   2.490  1.1618  0.9958  0.7267
21203SOL     OW66240   3.643   4.497   1.173 -0.8531 -0.2736 -0.1192
21203SOL    HW166241   3.596   4.569   1.215 -2.1413 -0.5906 -0.9721
21203SOL    HW266242   3.658   4.434   1.244 -1.5053 -0.0609  0.2166
21204SOL     OW66243   4.054   3.959   7.190  0.0155 -0.0941  0.0327
21204SOL    HW166244   4.123   4.025   7.188 -0.9641  1.0403  1.6863
21204SOL    HW266245   4.041   3.941   7.283 -1.3679 -0.8858 -0.2965
21205SOL     OW66246   5.474   8.353   8.727  0.2724  0.6000 -0.5564
21205SOL    HW166247   5.463   8.285   8.793 -0.6677  1.0545 -0.2295
21205SOL    HW266248   5.551   8.326   8.677  2.0505  1.0728  1.7515
21206SOL     OW66249   7.408  10.147   2.111 -0.2366 -0.3782 -0.0923
21206SOL    HW166250   7.393  10.053   2.103  0.2808 -0.3744 -1.2017
21206SOL    HW266251   7.481  10.165   2.053  1.2232  0.3455  1.8577
21207SOL     OW66252  10.341   0.637   0.098 -0.1531 -0.1181 -0.7054
21207SOL    HW166253  10.283   0.622   0.023 -1.9017  2.3941  0.0322
21207SOL    HW266254  10.297   0.703   0.151  2.7918  0.9746  0.6334
21208SOL     OW66255   9.320   1.328   5.575 -0.4240 -0.1740  0.2117
21208SOL    HW166256   9.412   1.307   5.556  0.1194  0.6616  1.7011
21208SOL    HW266257   9.310   1.419   5.549 -0.9552 -0.3765 -0.3103
21209SOL     OW66258   6.467   4.364   0.825  0.1443  0.3079 -0.0374
21209SOL    HW166259   6.517   4.443   0.850  1.6756 -0.4140 -0.6789
21209SOL    HW266260   6.528   4.314   0.771 -0.8565 -1.2542  0.2285
21210SOL     OW66261   9.275   7.979   9.223 -0.1874  0.3811  0.1800
21210SOL    HW166262   9.318   8.062   9.243 -2.4720  1.8007 -0.3589
21210SOL    HW266263   9.320   7.946   9.145  0.4420  1.3848  0.1036
21211SOL     OW66264   5.037   8.770   3.687  0.4135  0.1064 -0.3315
21211SOL    HW166265   5.036   8.845   3.747  1.4470  1.4247 -1.8636
21211SOL    HW266266   5.083   8.802   3.610  0.6975 -2.0788 -1.1368
21212SOL     OW66267   3.177   3.992   1.747  1.0619 -0.0580  0.6861
21212SOL    HW166268   3.092   4.001   1.791  1.1683 -0.6864  1.0181
21212SOL    HW266269   3.240   4.032   1.807  0.8514  1.6112 -0.1300
21213SOL     OW66270   6.990   7.160   3.631 -0.4059 -0.4189  0.0244
21213SOL    HW166271   7.083   7.146   3.618 -0.2469  0.8024 -0.2669
21213SOL    HW266272   6.985   7.227   3.699 -1.1099 -1.6328  1.2001
21214SOL     OW66273   1.797   0.697   8.506  0.1999  0.6852 -0.6427
21214SOL    HW166274   1.708   0.726   8.485  0.1556  0.2118 -1.1413
21214SOL    HW266275   1.786   0.632   8.575  0.1885  0.8419 -0.4943
21215SOL     OW66276   1.544   9.970   2.033 -0.0565  0.2742  0.4270
21215SOL    HW166277   1.572  10.044   2.086  1.5438 -1.3234  1.9247
21215SOL    HW266278   1.619   9.949   1.978 -0.1469 -0.7960  0.6872
21216SOL     OW66279   5.197   7.072   7.479 -0.1936  0.1672  0.0837
21216SOL    HW166280   5.160   7.076   7.567  0.2439 -0.7619  0.3283
21216SOL    HW266281   5.228   7.161   7.461  0.2954  0.2171  1.1309
21217SOL     OW66282   7.082   6.519   4.726 -0.2372  0.4639 -0.0863
21217SOL    HW166283   7.097   6.432   4.763 -0.6731  1.0599  1.5492
21217SOL    HW266284   7.166   6.563   4.733 -0.4724  0.7850  0.7931
21218SOL     OW66285   8.172   2.572   3.818  0.2210  0.0306  0.2099
21218SOL    HW166286   8.239   2.625   3.776 -0.2209  0.3171 -0.1486
21218SOL    HW266287   8.141   2.513   3.748 -0.9055  0.8859 -0.0321
21219SOL     OW66288   0.415   5.167   4.822  0.0703  0.2685 -0.4912
21219SOL    HW166289   0.449   5.179   4.733 -1.9075  1.6491 -1.1486
21219SOL    HW266290   0.418   5.073   4.837  1.0879  0.0740 -1.7481
21220SOL     OW66291   3.923   3.230   0.919 -0.3731  0.1830  0.6271
21220SOL    HW166292   3.849   3.212   0.977 -1.1911 -2.0522 -0.9748
21220SOL    HW266293   3.889   3.292   0.855 -0.6951 -0.4013  0.2284
21221SOL     OW66294   7.601   6.255   5.994  0.2677  0.3562 -0.2430
21221SOL    HW166295   7.674   6.213   6.039 -0.3400 -1.9505 -1.2522
21221SOL    HW266296   7.534   6.265   6.061 -0.6853 -3.1575 -0.4767
21222SOL     OW66297   1.044   3.705   0.680  0.3474 -0.2684 -0.3590
21222SOL    HW166298   1.115   3.731   0.622  0.8041 -1.7199 -0.5040
21222SOL    HW266299   1.048   3.609   0.680 -0.0507 -0.3165  1.5728
21223SOL     OW66300   2.084   2.163   7.181 -0.3060  0.0857  0.2579
21223SOL    HW166301   2.047   2.228   7.122  0.4308 -0.4064 -0.7779
21223SOL    HW266302   2.136   2.213   7.243 -0.9001  0.5902  0.3577
21224SOL     OW66303   5.634   8.508   0.914 -0.1960 -0.0150 -0.4824
21224SOL    HW166304   5.718   8.468   0.892 -1.4384 -2.3313 -1.3949
21224SOL    HW266305   5.634   8.514   1.009  0.3771 -1.5418 -0.3618
21225SOL     OW66306   4.538   1.577   2.025 -0.5676 -0.0063  0.5014
21225SOL    HW166307   4.611   1.522   1.999  0.2078  0.8453  0.8211
21225SOL    HW266308   4.537   1.573   2.121  1.1776  2.5280  0.7420
21226SOL     OW66309   2.150   9.489   3.888 -0.2225 -0.4692 -0.0374
21226SOL    HW166310   2.152   9.491   3.792 -1.6907 -1.4238 -0.1199
21226SOL    HW266311   2.242   9.495   3.914  0.1108  1.6710 -1.4204
21227SOL     OW66312   3.649   2.683   9.995  0.1688 -0.3546 -0.4928
21227SOL    HW166313   3.582   2.696  10.062  0.1975  0.2286 -0.5686
21227SOL    HW266314   3.645   2.762   9.942 -1.1143 -1.5558 -2.3083
21228SOL     OW66315   9.960   8.801   6.286 -0.6384 -0.2573 -0.0178
21228SOL    HW166316   9.880   8.753   6.307  1.0901 -3.5190 -0.2155
21228SOL    HW266317   9.958   8.812   6.191 -0.3395 -1.4879 -0.1893
21229SOL     OW66318   8.643   3.451  10.125 -0.4712  0.2210  0.1376
21229SOL    HW166319   8.738   3.448  10.123 -0.4262  0.1977  1.5056
21229SOL    HW266320   8.616   3.363  10.099 -0.1671  0.4938 -1.1927
21230SOL     OW66321   7.337   9.800   7.590 -0.9874 -0.6620  0.2249
21230SOL    HW166322   7.245   9.787   7.616 -0.2278 -1.3401  2.8895
21230SOL    HW266323   7.361   9.884   7.628 -0.7675 -0.0052 -1.3385
21231SOL     OW66324   5.432  10.128   8.070 -0.3571  0.2968 -0.1103
21231SOL    HW166325   5.507  10.183   8.094 -1.2195  1.6690 -0.4295
21231SOL    HW266326   5.470  10.043   8.048  0.9865  0.6280  0.8052
21232SOL     OW66327   8.143   7.620   3.146 -0.5168  0.4839  0.0872
21232SOL    HW166328   8.100   7.536   3.130  1.5467 -0.3803 -1.2787
21232SOL    HW266329   8.226   7.597   3.187  0.2785  1.8397 -0.7235
21233SOL     OW66330   0.584   9.703   7.513  0.0739 -0.1057  0.2089
21233SOL    HW166331   0.490   9.701   7.532  0.5852 -1.3599  3.3032
21233SOL    HW266332   0.613   9.787   7.550  0.0353  0.9736 -2.0525
21234SOL     OW66333   8.282   7.234   3.689 -0.8222 -0.1874  0.3599
21234SOL    HW166334   8.210   7.296   3.676  0.0171  0.6199 -0.6222
21234SOL    HW266335   8.313   7.215   3.600  0.6131  0.0247  0.7913
21235SOL     OW66336   7.212   9.193   0.911  0.2533 -0.0609 -0.1995
21235SOL    HW166337   7.131   9.181   0.861 -0.4011 -0.3726  0.8997
21235SOL    HW266338   7.247   9.104   0.920  1.6648  0.2373 -2.1467
21236SOL     OW66339   6.643   1.164   0.120 -0.2578  0.5862  0.1975
21236SOL    HW166340   6.551   1.137   0.117  0.2872 -1.3065 -0.7287
21236SOL    HW266341   6.662   1.199   0.033  0.3579 -0.7638 -0.2396
21237SOL     OW66342   8.543  10.175   1.533 -0.2856  0.7365  0.3113
21237SOL    HW166343   8.599  10.137   1.465 -0.1949  0.7426  0.3811
21237SOL    HW266344   8.578  10.140   1.615 -1.2188 -0.3228  0.2811
21238SOL     OW66345   3.099   6.688   0.873  0.3989  0.3120  0.2470
21238SOL    HW166346   3.092   6.778   0.905  0.5609  0.2978  0.3276
21238SOL    HW266347   3.192   6.678   0.850  0.3449  0.2249  0.0636
21239SOL     OW66348   3.123   3.175   4.957  0.1220 -0.7577 -0.0987
21239SOL    HW166349   3.037   3.148   4.989 -0.2279  0.5237  0.0681
21239SOL    HW266350   3.111   3.187   4.863 -0.1750  0.4861  0.0873
21240SOL     OW66351   9.804   8.707   4.856  0.1425 -0.4423 -0.1943
21240SOL    HW166352   9.819   8.795   4.822  0.5341  0.1515  1.3901
21240SOL    HW266353   9.714   8.687   4.832 -0.2592  0.7840  0.1671
21241SOL     OW66354   0.412   6.432   1.827  0.3771 -0.3130  0.3579
21241SOL    HW166355   0.397   6.338   1.829 -0.7356 -0.1369  1.0598
21241SOL    HW266356   0.435   6.455   1.917  0.7604  0.0812  0.1669
21242SOL     OW66357   0.930   2.112   2.148 -0.0305 -0.0978  0.3723
21242SOL    HW166358   0.989   2.038   2.163 -0.2179 -0.4282 -0.4273
21242SOL    HW266359   0.959   2.149   2.064  0.2182  0.8925  0.8841
21243SOL     OW66360   3.470   3.572   6.391  0.4179  0.2806 -0.0462
21243SOL    HW166361   3.566   3.566   6.388  0.6550  3.0537 -0.1715
21243SOL    HW266362   3.442   3.542   6.304  1.0194 -1.6816  0.3797
21244SOL     OW66363   2.191   7.213   3.043  0.3337  0.2549 -0.2777
21244SOL    HW166364   2.242   7.290   3.016  0.3525 -0.0186 -1.0366
21244SOL    HW266365   2.258   7.149   3.068  0.3127  0.5839  0.6609
21245SOL     OW66366   8.577   2.343   2.205  0.2955  0.3396 -0.4400
21245SOL    HW166367   8.526   2.272   2.243 -1.4611  2.2528  0.9961
21245SOL    HW266368   8.640   2.299   2.147 -1.0872 -2.3070 -0.0898
21246SOL     OW66369  10.156   1.257   5.762 -0.0728  0.1498 -0.1526
21246SOL    HW166370  10.084   1.312   5.793 -0.9809  0.9998 -3.3659
21246SOL    HW266371  10.213   1.318   5.715  0.2441 -1.2517 -1.6478
21247SOL     OW66372   9.591   4.279   2.932  0.2156  0.2125 -0.0421
21247SOL    HW166373   9.651   4.323   2.992  1.5219  0.7438 -1.6553
21247SOL    HW266374   9.641   4.268   2.851 -1.0685 -1.5745 -0.6662
21248SOL     OW66375   1.033   7.160   8.542 -0.3577  0.6020  0.2454
21248SOL    HW166376   1.081   7.233   8.582  0.5078  1.4136 -2.0699
21248SOL    HW266377   1.012   7.191   8.454 -2.8538 -0.7692  0.2645
21249SOL     OW66378   9.211   2.848   6.297 -0.5062  0.3351  0.1614
21249SOL    HW166379   9.125   2.870   6.264 -0.1398  2.2561  0.3854
21249SOL    HW266380   9.265   2.836   6.219 -0.4413  1.4748  0.0181
21250SOL     OW66381   6.306   7.576   0.208  0.2366  0.8699  0.5867
21250SOL    HW166382   6.244   7.583   0.135 -1.2835  1.3590  1.8817
21250SOL    HW266383   6.368   7.649   0.193  0.4331  0.4900 -0.6155
21251SOL     OW66384  10.173   7.752   4.598  0.0022 -0.0953  0.0066
21251SOL    HW166385  10.192   7.668   4.640 -0.3119 -0.3955 -0.4423
21251SOL    HW266386  10.080   7.766   4.616  0.1104  0.2808  0.2920
21252SOL     OW66387   8.088   7.131   0.753 -0.1798  0.1717 -0.1179
21252SOL    HW166388   8.159   7.148   0.690  1.3475 -3.1456  0.4755
21252SOL    HW266389   8.053   7.046   0.726 -2.3437  0.6151  1.0876
21253SOL     OW66390   9.072   4.115   9.373 -0.1084 -0.1530 -0.1124
21253SOL    HW166391   9.020   4.039   9.348 -0.1754  0.2886 -1.4212
21253SOL    HW266392   9.042   4.138   9.461 -0.4740 -1.2948  0.0728
21254SOL     OW66393   3.103   5.359   9.791  0.5160 -0.3021 -0.6516
21254SOL    HW166394   3.025   5.352   9.736 -0.4137  1.6325  0.3096
21254SOL    HW266395   3.172   5.314   9.741 -1.0983 -1.7259 -1.6934
21255SOL     OW66396   8.058   6.279   0.688  0.1951 -0.4120 -0.2501
21255SOL    HW166397   8.132   6.339   0.688  0.7978 -1.1346 -0.3506
21255SOL    HW266398   7.994   6.318   0.629 -0.1882  1.0282  1.0534
21256SOL     OW66399   3.741   0.946   2.887  0.0733  0.7061  0.1750
21256SOL    HW166400   3.805   0.917   2.952  1.0431 -0.2351 -1.1396
21256SOL    HW266401   3.794   0.989   2.820 -0.7578  0.5524 -0.5925
21257SOL     OW66402   6.825   8.750   6.345 -0.4307  0.2230  0.2367
21257SOL    HW166403   6.899   8.719   6.293  0.7897  1.8948  0.8600
21257SOL    HW266404   6.755   8.764   6.282  0.1011 -0.4411 -0.5194
21258SOL     OW66405   3.541   0.014   2.866  0.1186 -0.1861 -0.2474
21258SOL    HW166406   3.561  -0.078   2.853 -1.0066 -0.9228  2.4900
21258SOL    HW266407   3.606   0.044   2.929  1.0865  1.2250 -1.8285
21259SOL     OW66408   5.260   9.851   0.434 -0.3239 -0.5215 -0.5016
21259SOL    HW166409   5.248   9.900   0.353 -0.0241 -0.3043 -0.4159
21259SOL    HW266410   5.342   9.803   0.421 -0.2273 -0.4148 -0.2922
21260SOL     OW66411   9.297   4.542   9.933  0.1840  0.4352 -0.4760
21260SOL    HW166412   9.319   4.531  10.025  1.8775  2.5800 -0.5445
21260SOL    HW266413   9.345   4.473   9.887  0.9255  0.5783  0.0746
21261SOL     OW66414   4.151   3.677   2.341 -0.0241 -0.5045  0.2887
21261SOL    HW166415   4.123   3.768   2.341 -2.2060 -1.1157  0.6969
21261SOL    HW266416   4.092   3.634   2.279  1.5674 -1.5032 -0.5970
21262SOL     OW66417   1.994   0.266   7.021 -0.2215 -0.1399  0.0798
21262SOL    HW166418   2.022   0.246   7.111 -2.0268  2.1188  1.2534
21262SOL    HW266419   2.068   0.314   6.983  0.0573  0.0513  0.8394
21263SOL     OW66420   1.312   0.357   4.073  0.1462  1.1051  0.2445
21263SOL    HW166421   1.267   0.434   4.107 -0.7798  1.0161 -0.7225
21263SOL    HW266422   1.250   0.319   4.011 -0.0668 -1.2769  1.7863
21264SOL     OW66423   0.175   3.091   9.495 -0.0136  0.1741  0.2877
21264SOL    HW166424   0.260   3.136   9.492  1.0597 -1.8055 -0.5144
21264SOL    HW266425   0.185   3.025   9.563 -1.2593  0.4940  0.8084
21265SOL     OW66426   8.162   3.767   4.230 -0.0621  0.2105 -0.2298
21265SOL    HW166427   8.155   3.760   4.134  0.4690 -0.4402 -0.2273
21265SOL    HW266428   8.251   3.799   4.245  0.0447 -0.2156  0.0612
21266SOL     OW66429   3.613   2.257   1.461  0.2716  0.3248 -0.4101
21266SOL    HW166430   3.571   2.311   1.395 -1.1222  0.3798  0.4779
21266SOL    HW266431   3.554   2.182   1.472 -1.2142  1.7749  2.8874
21267SOL     OW66432   1.149   6.767   3.550 -0.4780 -0.3274  0.0921
21267SOL    HW166433   1.222   6.816   3.588 -0.3201 -1.0548  0.7526
21267SOL    HW266434   1.075   6.785   3.609 -0.4341 -0.8223  0.3060
21268SOL     OW66435   4.464  10.013   1.923 -0.4642 -0.5151  0.2194
21268SOL    HW166436   4.526  10.058   1.866 -0.1078  0.0930  1.0652
21268SOL    HW266437   4.455   9.926   1.885 -1.4736  0.3608 -1.6858
21269SOL     OW66438   2.070   1.678  10.257  0.0044  0.5504  0.4016
21269SOL    HW166439   2.153   1.633  10.246 -0.0733  0.3964  0.4316
21269SOL    HW266440   2.010   1.610  10.288  0.0244  0.7950  1.0029
21270SOL     OW66441   8.881   2.135   8.853  0.7315 -0.2163 -0.0113
21270SOL    HW166442   8.940   2.140   8.929 -0.7709  0.8014  1.1528
21270SOL    HW266443   8.866   2.226   8.828  1.3013 -0.5436 -1.6576
21271SOL     OW66444   9.279   3.779   9.475 -0.0257 -0.0158 -0.2416
21271SOL    HW166445   9.240   3.691   9.475  0.8538 -0.4250  0.4331
21271SOL    HW266446   9.230   3.827   9.542  0.0109 -0.2402 -0.0541
21272SOL     OW66447   3.603   5.256   0.472  0.3735 -0.0204 -0.8424
21272SOL    HW166448   3.573   5.174   0.432 -0.7568  0.4210 -0.9064
21272SOL    HW266449   3.676   5.284   0.416  0.1768 -0.5085 -1.3490
21273SOL     OW66450   4.285   9.373   6.023 -0.3937  0.3687  0.3099
21273SOL    HW166451   4.236   9.347   5.945 -0.1740 -0.4117  0.4174
21273SOL    HW266452   4.268   9.302   6.086  0.9336  0.0335  0.3193
21274SOL     OW66453   6.410   0.072   6.660 -0.3948  0.2676  0.6320
21274SOL    HW166454   6.366   0.155   6.643 -0.3039  0.1293 -0.3285
21274SOL    HW266455   6.394   0.019   6.582 -2.0877 -1.3648  1.9778
21275SOL     OW66456   4.572   7.135   1.072  0.1615 -0.2174 -1.1133
21275SOL    HW166457   4.605   7.153   1.160 -0.6343 -0.2228 -0.8036
21275SOL    HW266458   4.545   7.220   1.039 -0.1969 -0.3188 -1.0789
21276SOL     OW66459   8.592   5.997   4.221  0.3414  0.1015 -0.0263
21276SOL    HW166460   8.502   5.983   4.250  0.6828 -0.9106  0.5691
21276SOL    HW266461   8.626   6.065   4.279  0.1913 -0.0417  0.2277
21277SOL     OW66462   2.903   4.003   1.674 -0.0595 -0.0915 -0.0783
21277SOL    HW166463   2.831   4.034   1.619  0.9631  1.3207 -0.6916
21277SOL    HW266464   2.861   3.983   1.758 -1.1225  1.0580 -0.2949
21278SOL     OW66465   0.735   2.012   1.344  0.2082 -0.0221  0.3993
21278SOL    HW166466   0.828   2.023   1.363 -0.0198  1.9744  0.5897
21278SOL    HW266467   0.691   2.028   1.428 -0.3387 -0.1822  0.1535
21279SOL     OW66468   2.010   9.467   6.661 -0.0447  0.1014  0.1315
21279SOL    HW166469   2.101   9.495   6.653  0.6531 -1.1192  2.7238
21279SOL    HW266470   1.997   9.407   6.588  1.2059  0.3366 -0.3114
21280SOL     OW66471   6.224   7.098   8.533 -0.3835  0.5518  0.0989
21280SOL    HW166472   6.300   7.048   8.562 -0.5613  0.4307  0.3647
21280SOL    HW266473   6.149   7.049   8.568 -0.5429  1.2959  0.8352
21281SOL     OW66474   2.579   3.173   3.768  0.1506  0.0261  0.9434
21281SOL    HW166475   2.642   3.212   3.708 -0.5044  0.6287  0.6291
21281SOL    HW266476   2.611   3.084   3.783 -0.5993 -0.7705 -1.7199
21282SOL     OW66477   7.187   6.659   2.875  0.6405 -0.0343 -0.0007
21282SOL    HW166478   7.135   6.699   2.946  0.0155 -0.4724 -0.2022
21282SOL    HW266479   7.174   6.717   2.800  0.7151  0.0392  0.0432
21283SOL     OW66480   1.683   9.181   9.611 -0.3728  0.3714 -0.3226
21283SOL    HW166481   1.612   9.244   9.613 -0.5189  0.2334 -1.1555
21283SOL    HW266482   1.697   9.162   9.519  1.6623  1.4375 -0.3169
21284SOL     OW66483   4.191   3.996   3.527 -0.0210  0.1910 -0.0240
21284SOL    HW166484   4.265   3.936   3.539 -0.2368 -0.3840 -1.3664
21284SOL    HW266485   4.120   3.957   3.578  0.2875  0.1508  0.3758
21285SOL     OW66486   2.785   2.417   1.562 -0.1370 -0.0422 -0.1861
21285SOL    HW166487   2.870   2.381   1.589  0.8238  0.2138 -2.6491
21285SOL    HW266488   2.777   2.498   1.613  0.5738 -0.6184  0.8796
21286SOL     OW66489   8.259   0.840   2.474  0.4192 -0.3162  0.5840
21286SOL    HW166490   8.322   0.887   2.420  1.1065  1.1138  2.4904
21286SOL    HW266491   8.313   0.798   2.542 -0.5569 -0.2116  1.4484
21287SOL     OW66492   8.295   3.159   5.230  0.3377 -0.8879  0.0957
21287SOL    HW166493   8.349   3.113   5.167  1.5264 -1.5158  1.5047
21287SOL    HW266494   8.316   3.252   5.216  1.7366 -1.1132  0.5453
21288SOL     OW66495   1.936   2.879   4.624  0.0129 -0.2500  0.3654
21288SOL    HW166496   2.019   2.925   4.607  0.2255 -0.4637  0.7919
21288SOL    HW266497   1.949   2.841   4.711  0.1681 -1.8545 -0.3408
21289SOL     OW66498   7.171   9.370   2.570  0.1581  0.1792  0.0371
21289SOL    HW166499   7.248   9.427   2.563  0.4788 -0.4906 -3.7396
21289SOL    HW266500   7.099   9.423   2.536 -0.0879 -0.7085 -0.8729
21290SOL     OW66501   9.523   1.539   1.876  0.5703 -0.3217  0.0810
21290SOL    HW166502   9.517   1.625   1.834 -0.9952 -0.3051  0.2783
21290SOL    HW266503   9.594   1.494   1.829  0.8654  0.7769 -0.5599
21291SOL     OW66504   8.333   4.997   0.623  0.0396 -0.1061 -0.5357
21291SOL    HW166505   8.277   4.922   0.605  0.0480  0.0208 -1.1005
21291SOL    HW266506   8.360   4.985   0.715 -3.2454  1.3511  0.7807
21292SOL     OW66507   9.029   4.823   3.454 -0.1788  0.1018  0.4012
21292SOL    HW166508   8.966   4.889   3.426 -0.9978 -0.6502  0.4373
21292SOL    HW266509   9.114   4.855   3.422 -1.0207 -0.7088 -3.0624
21293SOL     OW66510   4.626   4.931   6.617 -0.5328 -0.2697  0.3912
21293SOL    HW166511   4.681   4.972   6.551 -1.2811 -1.6943 -1.2074
21293SOL    HW266512   4.659   4.964   6.700  1.1763  0.7310 -0.6291
21294SOL     OW66513   4.715   2.080   9.194  0.3630 -0.0411  0.0354
21294SOL    HW166514   4.748   2.162   9.157 -0.5639  0.6582  0.7121
21294SOL    HW266515   4.682   2.105   9.281 -1.1279 -0.8679 -0.2670
21295SOL     OW66516   5.278   5.445   4.937  0.4328 -0.1124  0.1344
21295SOL    HW166517   5.282   5.377   4.870  1.8782  0.1191 -0.0437
21295SOL    HW266518   5.234   5.518   4.895  3.7454  1.0743 -1.5979
21296SOL     OW66519   0.214   7.700   2.530  0.2186  0.0952  1.3650
21296SOL    HW166520   0.210   7.632   2.597 -0.6437  0.5318  1.7701
21296SOL    HW266521   0.186   7.780   2.575 -1.5857  0.1735  0.2171
21297SOL     OW66522   6.803   1.951   8.616  0.3698 -0.5124 -0.2417
21297SOL    HW166523   6.713   1.929   8.591  0.3314 -0.2653 -0.3266
21297SOL    HW266524   6.841   1.868   8.645 -0.3171 -0.3848  1.1140
21298SOL     OW66525   9.888   2.412   3.228 -0.5895 -0.8225 -0.4855
21298SOL    HW166526   9.842   2.336   3.263 -1.8562 -0.6927 -1.7969
21298SOL    HW266527   9.818   2.470   3.197  0.4214 -0.0185 -1.3288
21299SOL     OW66528   8.998   5.816   3.257  0.1466 -0.4873  0.3752
21299SOL    HW166529   9.037   5.767   3.184  1.4344  0.7757  0.1731
21299SOL    HW266530   8.952   5.749   3.308 -1.2666 -1.3533 -1.8593
21300SOL     OW66531   0.228   2.581   1.738  0.0969  0.0119 -0.1228
21300SOL    HW166532   0.255   2.521   1.807 -0.8735  1.6152  1.7421
21300SOL    HW266533   0.299   2.578   1.674  1.3491 -1.0530  1.2629
21301SOL     OW66534   3.972   1.415   8.069 -0.6309  0.2542  0.0016
21301SOL    HW166535   3.930   1.434   7.985  0.9566  1.4283 -0.5829
21301SOL    HW266536   4.006   1.326   8.059 -1.3201  0.0107 -0.2170
21302SOL     OW66537   0.467   6.052   7.737  0.1651  0.2016 -0.0475
21302SOL    HW166538   0.554   6.084   7.711  0.0755  0.6101  0.1355
21302SOL    HW266539   0.463   5.963   7.704 -0.3144  0.9859 -2.3162
21303SOL     OW66540   0.227   3.241   4.032 -0.2990  0.1345  0.4022
21303SOL    HW166541   0.144   3.202   4.007 -0.1212  0.5261 -0.8475
21303SOL    HW266542   0.247   3.203   4.118 -1.9803  0.3885  0.9337
21304SOL     OW66543   7.285   1.900   4.081 -0.3352  0.7308  0.3510
21304SOL    HW166544   7.347   1.969   4.105  1.3927 -1.1612  1.6881
21304SOL    HW266545   7.305   1.828   4.141 -2.1157 -0.9198 -0.9188
21305SOL     OW66546   9.436   8.870   1.964 -0.5006 -0.4000  0.1630
21305SOL    HW166547   9.375   8.837   1.898 -1.4101  2.0422 -0.3157
21305SOL    HW266548   9.452   8.961   1.940  2.7547 -0.6915  0.7632
21306SOL     OW66549   8.655   0.643   2.375 -0.4832  0.6684  0.1806
21306SOL    HW166550   8.567   0.660   2.342 -0.4969  0.7126  0.2394
21306SOL    HW266551   8.652   0.671   2.467 -0.3454  0.8747  0.1234
21307SOL     OW66552   0.205   5.044   1.456  0.0007 -0.0416 -0.1146
21307SOL    HW166553   0.131   4.983   1.460 -1.2792  1.4098 -0.6345
21307SOL    HW266554   0.226   5.051   1.363 -0.2657  0.7521 -0.1209
21308SOL     OW66555   3.449   7.026   5.142  0.0281 -0.0223  0.9524
21308SOL    HW166556   3.406   7.101   5.185 -0.2508  0.0048  0.6234
21308SOL    HW266557   3.513   7.066   5.083 -0.5020 -0.0310  0.3707
21309SOL     OW66558   5.788   8.305   3.558  0.1718  0.2915 -0.0856
21309SOL    HW166559   5.762   8.244   3.489 -0.6266  1.4328 -0.8363
21309SOL    HW266560   5.708   8.318   3.609  0.5771  0.0088  0.6308
21310SOL     OW66561   9.619   1.861   0.707 -0.4159  0.3116 -0.1921
21310SOL    HW166562   9.529   1.832   0.718 -0.6070  1.6493  2.5558
21310SOL    HW266563   9.647   1.821   0.625 -3.8122  0.6641 -1.6985
21311SOL     OW66564   0.048   6.193   2.411 -0.1568 -0.0467 -0.6724
21311SOL    HW166565  -0.037   6.182   2.453 -0.6070 -0.7052 -1.7283
21311SOL    HW266566   0.070   6.285   2.426  1.0948 -0.8253  3.5090
21312SOL     OW66567   3.476   4.073   7.787 -0.4529  0.5213  0.3619
21312SOL    HW166568   3.474   3.989   7.740 -0.7787 -0.5397  2.1762
21312SOL    HW266569   3.491   4.138   7.718 -1.0726 -0.9205 -1.2255
21313SOL     OW66570   2.492   2.352   1.725  0.3391 -0.2677 -0.0971
21313SOL    HW166571   2.452   2.302   1.796  1.9681 -0.6709  0.5826
21313SOL    HW266572   2.574   2.385   1.762  1.0409 -0.1533 -1.6739
21314SOL     OW66573   5.446   0.679   5.068  0.3056 -0.4398 -0.1116
21314SOL    HW166574   5.371   0.620   5.058 -0.7401  0.5333  1.5192
21314SOL    HW266575   5.491   0.647   5.146  1.0936 -0.4787 -0.5736
21315SOL     OW66576   8.593   6.511   0.828 -1.2110  0.5629  0.0487
21315SOL    HW166577   8.527   6.445   0.806  0.1218  0.0200 -2.9994
21315SOL    HW266578   8.656   6.464   0.883 -1.9211  0.2828  0.6427
21316SOL     OW66579   9.838   5.853   2.794  0.0225  0.7765  0.2354
21316SOL    HW166580   9.766   5.903   2.754  0.2752  1.0072  0.0668
21316SOL    HW266581   9.915   5.907   2.780 -0.0225  1.3305  1.8857
21317SOL     OW66582   6.963   5.496   2.919 -0.3133  0.0787 -0.9305
21317SOL    HW166583   7.041   5.495   2.863 -1.1838  1.2242 -2.2185
21317SOL    HW266584   6.944   5.403   2.935  1.0200 -0.2171 -0.9944
21318SOL     OW66585   7.117   5.351   1.861 -0.4894  0.1556 -0.3196
21318SOL    HW166586   7.112   5.301   1.942  0.6330  0.1481 -0.2352
21318SOL    HW266587   7.127   5.442   1.890  0.3907  0.1019 -0.4335
21319SOL     OW66588   3.472   8.161   2.908 -0.1684  0.0042 -0.7024
21319SOL    HW166589   3.389   8.136   2.868 -0.3827 -1.9267  0.8310
21319SOL    HW266590   3.485   8.098   2.978  1.6703  1.4415  0.3316
21320SOL     OW66591   4.982   7.352   7.619  0.3561  0.2466  0.4095
21320SOL    HW166592   4.919   7.294   7.577  1.0045 -0.4939  0.4334
21320SOL    HW266593   4.993   7.425   7.558 -0.0046  0.0402  0.0969
21321SOL     OW66594   4.370   9.126   2.843 -0.2078  0.3672 -0.0448
21321SOL    HW166595   4.441   9.092   2.898  0.6806  1.9229 -0.1800
21321SOL    HW266596   4.384   9.083   2.758  0.4486  0.5011 -0.0122
21322SOL     OW66597   6.866   3.201   0.722 -0.2539 -0.1757  0.1981
21322SOL    HW166598   6.823   3.253   0.654 -0.5136  0.9737  1.2007
21322SOL    HW266599   6.912   3.266   0.776 -0.1170 -1.0466  1.1687
21323SOL     OW66600   3.288   8.971   8.508 -0.0961  0.4336 -0.3883
21323SOL    HW166601   3.384   8.970   8.512 -0.0388  2.6497  0.7664
21323SOL    HW266602   3.260   8.910   8.576  0.4235 -1.1732 -1.5473
21324SOL     OW66603   8.136   2.211   7.097 -0.2700 -0.0260  0.1056
21324SOL    HW166604   8.129   2.295   7.142 -0.3390 -0.0075  0.0609
21324SOL    HW266605   8.136   2.146   7.168 -0.1237  0.0159  0.1440
21325SOL     OW66606   1.609   9.035   0.665  0.4630 -0.1890  0.3202
21325SOL    HW166607   1.523   9.047   0.706  0.3322 -0.4403  0.1258
21325SOL    HW266608   1.631   9.122   0.631  0.1729 -0.1764  0.1564
21326SOL     OW66609   5.476   3.064   9.091 -0.0937 -0.2355 -0.2225
21326SOL    HW166610   5.486   3.033   9.182 -0.3889  0.6831  0.1304
21326SOL    HW266611   5.521   2.997   9.039  0.1837 -0.7216  0.6064
21327SOL     OW66612  10.027   2.327   7.794  0.1709 -0.4076  0.1903
21327SOL    HW166613  10.100   2.291   7.744 -1.1304 -1.4861 -1.0103
21327SOL    HW266614  10.064   2.402   7.841  1.6941 -0.0360 -1.5268
21328SOL     OW66615   5.013   9.078   1.740  0.2780 -0.3403 -0.0888
21328SOL    HW166616   4.957   9.155   1.746  0.6999 -0.0077 -0.3730
21328SOL    HW266617   5.021   9.046   1.830 -0.9118 -0.7942 -0.1215
21329SOL     OW66618   0.537   9.680   9.339  0.0020 -0.1176  0.1108
21329SOL    HW166619   0.624   9.691   9.376  0.5430  0.6083 -1.3448
21329SOL    HW266620   0.492   9.762   9.358  0.4718  0.4858 -1.3049
21330SOL     OW66621   2.113   1.920   0.004  0.2487 -0.3543  0.0185
21330SOL    HW166622   2.162   1.887   0.079  0.5674 -0.2846 -0.1564
21330SOL    HW266623   2.096   1.843  -0.050 -0.5197 -0.5036  0.4633
21331SOL     OW66624   4.873   4.220   6.707 -0.3927  0.6859  0.7859
21331SOL    HW166625   4.867   4.196   6.799  0.1972 -1.3065  0.3398
21331SOL    HW266626   4.785   4.203   6.673 -0.1398 -0.3044  0.6065
21332SOL     OW66627   9.982   4.219   6.775  0.8228 -0.7924  0.5985
21332SOL    HW166628   9.974   4.306   6.813  0.1900 -1.1287  1.2604
21332SOL    HW266629  10.061   4.224   6.721  1.5311 -0.1702  1.6340
21333SOL     OW66630   7.521   4.331   6.836 -0.4147 -0.0832 -0.1696
21333SOL    HW166631   7.441   4.295   6.875  0.6332 -1.9933  0.3769
21333SOL    HW266632   7.592   4.285   6.881  0.9244 -0.3383 -2.3699
21334SOL     OW66633   8.843   2.926   8.437  0.1766 -0.4320  0.1029
21334SOL    HW166634   8.801   2.947   8.520 -1.1039 -1.1847 -0.3295
21334SOL    HW266635   8.779   2.872   8.391  1.3000 -0.9265 -0.9287
21335SOL     OW66636   3.437   4.375   5.731  0.4064  0.2653  0.0284
21335SOL    HW166637   3.464   4.456   5.773  1.1705 -0.1983  0.4457
21335SOL    HW266638   3.378   4.334   5.793  0.4591  0.2332  0.0569
21336SOL     OW66639   8.218   4.038   1.431  0.1723 -0.6509  0.5268
21336SOL    HW166640   8.181   4.000   1.511 -1.1426 -0.0217  0.2453
21336SOL    HW266641   8.264   4.116   1.461 -4.3395  2.4570  0.3626
21337SOL     OW66642   6.880   6.647   4.915  0.0015 -0.0274 -0.3421
21337SOL    HW166643   6.964   6.638   4.870 -1.2911  0.5546 -3.0321
21337SOL    HW266644   6.857   6.558   4.941  1.5776 -0.1514  0.8158
21338SOL     OW66645   0.653   5.635   2.855  0.1985 -0.3597 -0.4684
21338SOL    HW166646   0.595   5.565   2.884 -0.5309 -0.0466 -1.1287
21338SOL    HW266647   0.735   5.591   2.832  0.6253 -0.6771  1.4996
21339SOL     OW66648   7.262   3.045   3.852  0.1832 -0.2005 -0.3884
21339SOL    HW166649   7.183   3.086   3.816  0.3192 -0.3882 -0.9098
21339SOL    HW266650   7.246   2.951   3.844 -0.3177 -0.2790  1.2188
21340SOL     OW66651   9.750   2.851   5.849 -0.1809 -0.6311  0.3113
21340SOL    HW166652   9.691   2.775   5.857 -0.5270 -0.5131 -0.8133
21340SOL    HW266653   9.733   2.884   5.761  0.5375  0.2892  0.5051
21341SOL     OW66654   3.638   2.546   2.287 -0.0179 -0.8341  0.1723
21341SOL    HW166655   3.728   2.515   2.303  0.5226 -1.3454 -3.1690
21341SOL    HW266656   3.649   2.638   2.262 -0.6536 -0.4546  1.2073
21342SOL     OW66657   3.800   3.824   2.374 -0.1279 -0.3206 -0.7682
21342SOL    HW166658   3.861   3.794   2.307  0.8991 -0.6397  0.2782
21342SOL    HW266659   3.719   3.844   2.326  0.7099 -0.1180 -2.1469
21343SOL     OW66660   9.670   2.494   1.478  0.0813  0.1386  0.5143
21343SOL    HW166661   9.653   2.411   1.522 -0.9752  0.1527  0.1842
21343SOL    HW266662   9.665   2.473   1.385  1.5348  0.2479  0.4001
21344SOL     OW66663   7.944   3.345   8.314  0.1911 -0.8821  0.2131
21344SOL    HW166664   7.987   3.277   8.262 -0.7917 -0.5923 -1.0298
21344SOL    HW266665   7.875   3.379   8.257  0.8167  1.3635  0.6610
21345SOL     OW66666   3.182   1.486   7.989 -0.3618  0.0721 -1.0758
21345SOL    HW166667   3.266   1.524   8.013 -0.8129 -0.3738  1.5054
21345SOL    HW266668   3.186   1.396   8.023 -1.8657  0.0534 -0.8721
21346SOL     OW66669   2.439   7.927   1.968  0.0801 -0.1063  0.2354
21346SOL    HW166670   2.405   7.999   2.020  0.0629  0.8433 -1.0358
21346SOL    HW266671   2.533   7.944   1.961  0.0046  0.0555 -0.4510
21347SOL     OW66672   8.276   5.219   0.500 -0.5028  0.0065 -0.7073
21347SOL    HW166673   8.288   5.150   0.565  1.6677 -1.3174 -2.3400
21347SOL    HW266674   8.333   5.290   0.529  1.6440 -1.1685 -1.8023
21348SOL     OW66675   0.794   3.340   0.781  0.4657  0.3164  0.2314
21348SOL    HW166676   0.718   3.370   0.830  0.6953  2.2674 -0.5021
21348SOL    HW266677   0.864   3.333   0.847  0.3849  1.4247  0.4558
21349SOL     OW66678   4.648   9.869   3.366  0.3191  0.3266  0.0128
21349SOL    HW166679   4.645   9.781   3.329  0.7756  0.1438  0.3926
21349SOL    HW266680   4.556   9.891   3.383  0.1518  0.1996 -0.7085
21350SOL     OW66681   5.614   5.721   4.814 -0.1065  0.0015 -0.3505
21350SOL    HW166682   5.678   5.776   4.860  0.2311  0.2905 -1.1583
21350SOL    HW266683   5.592   5.652   4.877  1.2507 -0.2978 -0.1852
21351SOL     OW66684   9.415   6.205   4.597 -0.0825  0.8143 -0.0027
21351SOL    HW166685   9.460   6.288   4.617  0.0850  0.4489  1.2046
21351SOL    HW266686   9.421   6.155   4.678 -2.5582  0.6901  0.1812
21352SOL     OW66687  10.122   7.724   9.925  0.6111  0.1525  0.2028
21352SOL    HW166688  10.094   7.761  10.008 -0.2296 -2.0043  0.9723
21352SOL    HW266689  10.181   7.652   9.949  2.8664  1.4153 -1.2321
21353SOL     OW66690   2.022   1.480   2.465  0.5925 -0.1816 -0.2752
21353SOL    HW166691   2.067   1.402   2.433  0.8674  0.2064 -0.8595
21353SOL    HW266692   2.090   1.547   2.471  0.5501 -0.2313  1.1474
21354SOL     OW66693   7.725   3.132   8.604  0.6206  0.0833  0.0851
21354SOL    HW166694   7.649   3.128   8.662  0.0944  0.5211 -0.5649
21354SOL    HW266695   7.721   3.220   8.567  0.9670 -0.1885 -0.6031
21355SOL     OW66696  10.044   0.059   1.526 -0.4209 -0.1660 -0.3326
21355SOL    HW166697  10.123   0.111   1.511 -0.7227  0.8173  1.2646
21355SOL    HW266698  10.056  -0.019   1.472  0.0887  1.4830 -2.7707
21356SOL     OW66699   9.092   3.898  10.282  0.1202 -0.1997 -0.1918
21356SOL    HW166700   9.148   3.847  10.223  0.2472 -1.0955  0.6810
21356SOL    HW266701   9.006   3.857  10.274 -0.0211  0.1121 -0.2660
21357SOL     OW66702   9.804   9.729   2.705  0.1344 -0.0321 -0.3698
21357SOL    HW166703   9.772   9.778   2.629  1.0002  2.2265  0.6502
21357SOL    HW266704   9.898   9.719   2.690  0.0677 -0.8980 -0.2708
21358SOL     OW66705   9.625   9.697   4.264 -0.3378  0.0673 -0.0602
21358SOL    HW166706   9.574   9.654   4.195  0.8036  0.5944 -1.2910
21358SOL    HW266707   9.660   9.625   4.317 -1.2247 -0.3464 -0.0272
21359SOL     OW66708   0.248   3.796   3.208 -0.6900 -0.9232  0.3068
21359SOL    HW166709   0.162   3.757   3.221 -0.8534 -0.1198  1.8667
21359SOL    HW266710   0.240   3.885   3.242  0.7016 -0.7734  0.3096
21360SOL     OW66711   9.603   7.324  10.334 -0.7801  0.1525  0.2801
21360SOL    HW166712   9.594   7.418  10.345 -2.3817 -0.1325  1.6183
21360SOL    HW266713   9.690   7.304  10.368 -0.3037  1.1591 -0.2928
21361SOL     OW66714   6.285   6.237   6.392  0.5218  0.1374 -0.0329
21361SOL    HW166715   6.333   6.166   6.433  0.4191 -0.6777 -1.2764
21361SOL    HW266716   6.274   6.210   6.301 -0.8411  1.0524 -0.1768
21362SOL     OW66717   2.378   2.792   6.378 -0.0290  0.0454  0.1125
21362SOL    HW166718   2.345   2.729   6.315  0.1931 -1.2916  1.2782
21362SOL    HW266719   2.382   2.743   6.460  0.0195  1.6295  1.0876
21363SOL     OW66720   6.199   5.647   3.376 -0.0367  0.6148  0.2372
21363SOL    HW166721   6.148   5.727   3.379 -0.0809  0.6097 -0.4104
21363SOL    HW266722   6.267   5.663   3.311 -0.8203 -0.3238 -0.8586
21364SOL     OW66723   2.228   5.889   7.390  0.6423  0.0629  0.3546
21364SOL    HW166724   2.166   5.830   7.431  1.4932 -0.0489  1.5281
21364SOL    HW266725   2.202   5.891   7.298  0.2363 -1.6798  0.3930
21365SOL     OW66726   8.905   8.067   2.763 -0.4488  0.3185  0.0193
21365SOL    HW166727   8.896   8.133   2.695 -0.2664  1.6841  1.2655
21365SOL    HW266728   8.998   8.045   2.764 -0.6108 -0.4343 -0.8137
21366SOL     OW66729   5.606   8.148   1.400  0.2250  0.1111 -0.5094
21366SOL    HW166730   5.513   8.133   1.383  0.3044  0.6651 -1.5181
21366SOL    HW266731   5.612   8.241   1.421  0.3875 -0.1883  0.8863
21367SOL     OW66732   6.241   8.515   9.741  0.5873  0.4129 -0.2220
21367SOL    HW166733   6.152   8.500   9.770  0.0927  1.6427 -1.0105
21367SOL    HW266734   6.294   8.454   9.792 -0.6963 -0.3633  0.2278
21368SOL     OW66735   3.009   0.468   1.891  0.3071  0.9627 -0.1277
21368SOL    HW166736   2.922   0.444   1.858 -0.4365  2.2179  0.8466
21368SOL    HW266737   3.067   0.454   1.816 -0.5597 -0.8136 -0.5106
21369SOL     OW66738   8.178   7.602   3.536 -0.0765  0.6030 -0.2171
21369SOL    HW166739   8.200   7.576   3.625  0.0834  0.1808 -0.3747
21369SOL    HW266740   8.109   7.668   3.546  1.9058  2.7097  0.3265
21370SOL     OW66741   9.500   2.053   5.482  0.2642 -0.0370 -0.5131
21370SOL    HW166742   9.437   1.988   5.513  0.6492  0.3267  1.1343
21370SOL    HW266743   9.578   2.038   5.536  1.7334 -0.6376 -2.6362
21371SOL     OW66744  10.335   9.118   2.865  0.0368  0.6566 -0.5401
21371SOL    HW166745  10.405   9.056   2.883  0.7180  1.7169  0.5849
21371SOL    HW266746  10.324   9.166   2.947 -3.0661 -0.4726 -0.1687
21372SOL     OW66747   0.283   7.112   7.520  0.1241  0.0881 -0.0212
21372SOL    HW166748   0.312   7.031   7.562  1.0171  1.9208  3.2455
21372SOL    HW266749   0.224   7.152   7.583 -1.0869  1.6014 -1.9759
21373SOL     OW66750   6.983   0.165   3.497 -0.1225 -0.1444  0.4676
21373SOL    HW166751   6.947   0.093   3.446 -0.2862  1.4222 -1.7812
21373SOL    HW266752   7.069   0.183   3.457 -0.5786  1.6215  0.1779
21374SOL     OW66753   8.084   9.051   1.748 -0.5952 -0.3722 -0.4682
21374SOL    HW166754   8.169   9.052   1.792 -0.1441 -3.4026 -1.0131
21374SOL    HW266755   8.035   9.123   1.788  1.0693 -0.6100  2.2704
21375SOL     OW66756   9.532   6.373   1.824 -0.2256  0.2814  0.2885
21375SOL    HW166757   9.507   6.465   1.825  2.6165  1.2451 -2.2299
21375SOL    HW266758   9.596   6.365   1.895 -0.4733  0.2478  0.5080
21376SOL     OW66759   0.833   9.492   4.326 -0.3636  0.6904  0.3333
21376SOL    HW166760   0.747   9.496   4.283 -0.8452 -0.9340  1.0748
21376SOL    HW266761   0.836   9.571   4.380 -1.3628  0.8251  0.2160
21377SOL     OW66762   6.788   2.937   2.985  0.1324  0.3177  0.5169
21377SOL    HW166763   6.726   2.880   2.939  1.0585 -0.9316  0.7670
21377SOL    HW266764   6.747   3.023   2.983 -1.1775 -0.2901 -0.1318
21378SOL     OW66765   3.072   2.837   9.920  0.0509  0.2566  0.1734
21378SOL    HW166766   3.042   2.866   9.834 -1.5373 -0.9580  0.2819
21378SOL    HW266767   3.047   2.907   9.979  0.2666  0.6591 -0.2064
21379SOL     OW66768   3.598   8.320   1.015 -0.1604  0.5590 -0.2550
21379SOL    HW166769   3.566   8.388   0.956  0.6843  1.4182  0.2520
21379SOL    HW266770   3.526   8.305   1.076 -0.5411  0.6214 -0.6835
21380SOL     OW66771   7.824   8.857   7.765 -0.0228 -0.2751 -0.6668
21380SOL    HW166772   7.740   8.814   7.784 -0.2250 -0.1758 -1.3161
21380SOL    HW266773   7.804   8.951   7.771  0.4332 -0.2401  0.8247
21381SOL     OW66774   7.898   2.016   9.361  0.1031  0.1488  0.4056
21381SOL    HW166775   7.924   1.931   9.399 -1.6846 -0.5728  0.0798
21381SOL    HW266776   7.817   2.038   9.406 -1.6148 -0.2925 -2.2848
21382SOL     OW66777   5.090   2.136   0.239  0.3151  0.1558 -0.1599
21382SOL    HW166778   5.048   2.107   0.320  0.1461  0.0215 -0.2951
21382SOL    HW266779   5.112   2.055   0.193 -0.8863  0.2389 -0.9141
21383SOL     OW66780   3.469   3.225   8.028  0.4117  0.5492  0.6086
21383SOL    HW166781   3.386   3.271   8.030 -0.6846 -1.2086 -0.9277
21383SOL    HW266782   3.533   3.289   8.059 -1.4792  1.9380  1.8838
21384SOL     OW66783   5.936   4.488   0.111 -0.3793  0.5682 -0.8136
21384SOL    HW166784   6.002   4.552   0.139  1.5872 -1.2788 -0.9155
21384SOL    HW266785   5.895   4.528   0.034  1.6722  1.2033 -1.6532
21385SOL     OW66786   9.365   1.351   1.781 -0.1162  0.4098 -0.0263
21385SOL    HW166787   9.426   1.410   1.825 -0.2496  0.3047  0.2960
21385SOL    HW266788   9.317   1.407   1.720 -0.6117  0.7306  0.6522
21386SOL     OW66789   1.351   1.247   4.481 -0.0835  0.0045  0.3510
21386SOL    HW166790   1.306   1.169   4.513  0.8861 -1.1544 -1.0038
21386SOL    HW266791   1.313   1.319   4.532 -0.6151 -1.3884  2.0131
21387SOL     OW66792   1.831   8.330   4.994  0.1460  0.3250  0.0036
21387SOL    HW166793   1.786   8.248   4.974  0.7110 -0.3811  1.4164
21387SOL    HW266794   1.879   8.352   4.915  0.5823 -1.1382 -0.1643
21388SOL     OW66795   7.663   6.483   6.936  0.3608  0.3411 -0.0032
21388SOL    HW166796   7.746   6.439   6.919 -0.6158 -1.3014 -0.7303
21388SOL    HW266797   7.608   6.459   6.862 -1.1979  0.2744  1.1380
21389SOL     OW66798   5.110   1.586   0.417 -0.1031 -0.1495  0.5378
21389SOL    HW166799   5.033   1.547   0.456 -0.7677 -0.0562 -0.6233
21389SOL    HW266800   5.126   1.535   0.337 -0.7351  1.6016 -0.7810
21390SOL     OW66801   2.003   7.028   7.435  0.3312 -0.3352  0.5832
21390SOL    HW166802   1.950   7.104   7.459 -2.0390 -1.6878  0.0502
21390SOL    HW266803   2.093   7.054   7.453 -0.3491  2.6259  0.2571
21391SOL     OW66804   1.646   6.932   7.770  0.2376  0.3940  0.0010
21391SOL    HW166805   1.647   6.895   7.858  1.9128  1.4703  0.4846
21391SOL    HW266806   1.727   6.983   7.764 -0.5376  1.5409 -1.6521
21392SOL     OW66807   2.231   5.720   9.442 -0.5023 -0.0426  0.4774
21392SOL    HW166808   2.187   5.753   9.520  1.5926  1.2597  1.2250
21392SOL    HW266809   2.185   5.760   9.369 -1.2560  0.3500  1.1584
21393SOL     OW66810   6.215   7.405   1.295  0.1110 -0.4857 -0.1633
21393SOL    HW166811   6.190   7.362   1.214  1.2756 -1.7346  0.1097
21393SOL    HW266812   6.285   7.465   1.269 -0.0622 -0.3011 -0.2055
21394SOL     OW66813   0.018   1.074   0.776 -0.0906  0.1624 -0.0215
21394SOL    HW166814  -0.042   1.026   0.719 -0.3130 -1.5236  1.5281
21394SOL    HW266815   0.103   1.032   0.762 -0.0761 -0.0268  0.6143
21395SOL     OW66816   6.528   4.380   2.052  0.1767  0.7632 -0.4153
21395SOL    HW166817   6.513   4.474   2.064 -0.6615  0.4584  1.3104
21395SOL    HW266818   6.481   4.359   1.971 -0.2544  1.7072 -0.4303
21396SOL     OW66819   2.052   8.217   4.420 -0.1123 -0.0399 -0.2254
21396SOL    HW166820   2.088   8.163   4.490  0.4003 -0.1472 -0.5687
21396SOL    HW266821   2.065   8.165   4.341 -1.7729 -0.4548 -0.2653
21397SOL     OW66822   5.128   3.376   8.561 -0.1832  0.0779  0.1865
21397SOL    HW166823   5.107   3.289   8.596  0.6322 -0.0985  0.2770
21397SOL    HW266824   5.148   3.429   8.638 -2.6774  0.9587  0.2967
21398SOL     OW66825   3.018   5.999   7.867 -0.2404  0.5627 -0.6549
21398SOL    HW166826   2.929   5.970   7.884  0.0154  0.0428 -0.2002
21398SOL    HW266827   3.021   6.011   7.772 -0.8042  0.6226 -0.6690
21399SOL     OW66828   5.089   6.942   5.860 -0.2844  0.5494  0.2896
21399SOL    HW166829   5.041   6.935   5.943 -0.5056  0.9800  0.2013
21399SOL    HW266830   5.067   6.861   5.813 -0.5370  0.5173  0.4589
21400SOL     OW66831   1.771   2.929   5.806  0.3212  0.2313 -0.0407
21400SOL    HW166832   1.852   2.980   5.801  0.3447  0.2163  0.1950
21400SOL    HW266833   1.759   2.895   5.717  0.0789  0.9931 -0.3023
21401SOL     OW66834   8.067   4.919   2.518 -0.0250 -0.2950 -0.0507
21401SOL    HW166835   8.084   4.988   2.455  0.1978  0.5119  0.8708
21401SOL    HW266836   7.977   4.934   2.548  0.1761 -0.1229  0.4821
21402SOL     OW66837   8.571   8.906   9.034 -0.2879  0.2136 -0.1944
21402SOL    HW166838   8.492   8.903   8.980 -1.5337  0.7337  1.5115
21402SOL    HW266839   8.539   8.922   9.122  1.7135 -0.1126  0.6422
21403SOL     OW66840   3.165   4.378   2.597 -0.1389  0.1317  0.5284
21403SOL    HW166841   3.173   4.473   2.606  1.4136 -0.0911  2.2206
21403SOL    HW266842   3.097   4.366   2.531 -1.7488  2.4001  1.6040
21404SOL     OW66843   4.737   4.047   3.027 -0.4410  0.8900 -0.1174
21404SOL    HW166844   4.825   4.035   3.063 -1.1415  2.8635  2.5104
21404SOL    HW266845   4.750   4.107   2.953  0.5926 -0.5146 -1.1606
21405SOL     OW66846   4.455  10.141   2.799  0.1122  0.3119  0.3771
21405SOL    HW166847   4.388  10.073   2.789 -0.4790  0.6621  1.8511
21405SOL    HW266848   4.424  10.214   2.746  0.6373 -0.4267 -1.0338
21406SOL     OW66849   5.987   0.181   3.704 -0.2299  0.0311 -0.1145
21406SOL    HW166850   5.970   0.143   3.791 -1.9172 -2.2394 -1.3335
21406SOL    HW266851   6.062   0.132   3.670  0.1216  0.5831 -0.1456
21407SOL     OW66852   6.950   0.048   3.928  0.5743  0.2538  0.7191
21407SOL    HW166853   6.929   0.101   3.851  1.5519 -0.7822 -0.2997
21407SOL    HW266854   6.866   0.033   3.971 -0.3932 -1.1384 -1.4680
21408SOL     OW66855   7.541   2.858   4.036 -0.4283  0.0270 -0.5566
21408SOL    HW166856   7.590   2.775   4.038 -1.2990 -0.4908  0.2108
21408SOL    HW266857   7.552   2.894   4.123 -0.7710  0.2907 -0.6238
21409SOL     OW66858   1.743   5.217   8.241 -0.2655 -0.5171  0.1515
21409SOL    HW166859   1.754   5.219   8.146 -1.4451  1.5162  0.0082
21409SOL    HW266860   1.652   5.241   8.255 -0.3971 -1.8220  1.7839
21410SOL     OW66861  10.029   6.461   9.250 -0.4992 -0.5766  0.5949
21410SOL    HW166862   9.939   6.493   9.247  0.0059  0.8158 -0.7126
21410SOL    HW266863  10.041   6.414   9.167 -0.1254 -1.1054  0.9373
21411SOL     OW66864   2.979   3.794   1.481  0.3485  0.4688 -0.2384
21411SOL    HW166865   2.950   3.869   1.534 -0.1472 -0.3623  0.7060
21411SOL    HW266866   3.062   3.768   1.520  0.3498  0.3118 -0.3474
21412SOL     OW66867   7.993   8.608   8.475 -0.1214  0.2067  0.2526
21412SOL    HW166868   8.034   8.535   8.522  0.0138  1.4879  2.2530
21412SOL    HW266869   8.067   8.667   8.455 -0.3815  0.3557 -0.2740
21413SOL     OW66870   8.882   9.605   4.457  0.2986 -0.0825 -0.0873
21413SOL    HW166871   8.795   9.642   4.444 -0.2418 -1.2884 -0.0045
21413SOL    HW266872   8.917   9.652   4.533 -0.5316 -0.0286  0.2673
21414SOL     OW66873   8.916   6.092   6.702  0.4223 -0.0090 -0.1591
21414SOL    HW166874   8.993   6.140   6.670  0.3290 -0.4141 -1.0141
21414SOL    HW266875   8.935   6.076   6.794  0.6373  1.3082  0.0381
21415SOL     OW66876   2.340   4.110   9.142 -0.1657 -0.1887  0.4829
21415SOL    HW166877   2.316   4.197   9.176  0.5278  0.4934 -0.6905
21415SOL    HW266878   2.434   4.116   9.125  0.0778 -1.5140  1.3061
21416SOL     OW66879   9.105   5.149   2.875 -0.2310  0.2074 -0.1830
21416SOL    HW166880   9.074   5.078   2.931 -0.5426 -0.4574 -1.1732
21416SOL    HW266881   9.026   5.185   2.835  0.0607  0.0129 -0.9566
21417SOL     OW66882   6.945   2.440   6.859  0.0900 -0.0466 -0.3088
21417SOL    HW166883   6.885   2.506   6.825 -0.0260  0.1412  0.2518
21417SOL    HW266884   6.895   2.358   6.858  0.0657 -0.0283 -0.5261
21418SOL     OW66885   3.297   3.853   8.052  0.6048 -0.3439 -0.0711
21418SOL    HW166886   3.220   3.797   8.045  0.5712 -0.3198  0.0980
21418SOL    HW266887   3.314   3.883   7.963  0.8414 -0.9174 -0.2217
21419SOL     OW66888   7.059   0.043   0.928 -0.3151 -0.3670 -0.0081
21419SOL    HW166889   7.047   0.020   0.836  2.2902  0.4984 -0.6559
21419SOL    HW266890   7.086  -0.040   0.969  2.5259 -0.0524 -0.9664
21420SOL     OW66891   0.488   0.359   8.738 -0.8108  0.0664  0.4418
21420SOL    HW166892   0.476   0.426   8.671 -0.2203  0.2851  0.5437
21420SOL    HW266893   0.545   0.401   8.803 -0.8461 -0.3669  0.7531
21421SOL     OW66894   7.110   4.058   9.757 -0.1300 -0.1361  0.3139
21421SOL    HW166895   7.173   4.078   9.827  1.6868 -1.8354 -0.7197
21421SOL    HW266896   7.123   4.126   9.692  0.4923 -0.3400  0.2199
21422SOL     OW66897   9.110   7.743   9.329  0.1954  0.1151  0.1938
21422SOL    HW166898   9.149   7.658   9.349 -1.1063 -0.6910 -0.5771
21422SOL    HW266899   9.176   7.788   9.276  0.1217 -1.2083 -1.0730
21423SOL     OW66900   9.391   6.593   9.791 -0.0132  0.3917 -0.5887
21423SOL    HW166901   9.352   6.570   9.707 -0.8113  0.7465 -0.3230
21423SOL    HW266902   9.445   6.670   9.772 -3.4916  3.2501 -0.0877
21424SOL     OW66903   3.939   4.206   1.276  0.1828 -0.1435  0.1585
21424SOL    HW166904   3.956   4.298   1.301  0.3134  0.1693 -1.0456
21424SOL    HW266905   3.909   4.165   1.358  0.4943  0.8750  0.8080
21425SOL     OW66906   4.733   7.111   3.690  0.7631  0.1687 -0.3814
21425SOL    HW166907   4.795   7.055   3.737  0.6711  0.4606  0.0889
21425SOL    HW266908   4.777   7.196   3.684 -0.4701  1.0388  1.9319
21426SOL     OW66909   3.298   7.794   0.022 -0.3295 -0.5079 -0.1818
21426SOL    HW166910   3.305   7.882   0.060 -1.5719 -0.2984 -0.3724
21426SOL    HW266911   3.352   7.739   0.079  0.7468  0.4309 -0.2623
21427SOL     OW66912  10.131   3.818   7.058  0.4544  0.3996  0.3105
21427SOL    HW166913  10.173   3.781   7.136 -1.3891 -0.9019  0.7443
21427SOL    HW266914  10.196   3.808   6.989  0.3739 -2.9598  0.5902
21428SOL     OW66915   4.783   4.180   6.978 -0.7767  0.3854 -0.0503
21428SOL    HW166916   4.774   4.164   7.072 -1.5044  0.0952 -0.1598
21428SOL    HW266917   4.752   4.269   6.965 -0.7233  0.4083 -0.0184
21429SOL     OW66918   6.497   8.818   8.479 -0.1897 -0.5723 -0.3465
21429SOL    HW166919   6.410   8.851   8.503  0.1889 -0.1547  0.5292
21429SOL    HW266920   6.538   8.797   8.563  0.2840 -1.4885 -0.7957
21430SOL     OW66921   9.540   7.107   5.041 -0.5146  0.3261  0.4857
21430SOL    HW166922   9.566   7.196   5.015 -1.7692  0.3359 -0.8155
21430SOL    HW266923   9.610   7.079   5.100  1.4317  1.0885 -1.3320
21431SOL     OW66924   8.718   9.700   9.437 -0.1416  0.3502  0.1318
21431SOL    HW166925   8.763   9.719   9.354 -0.4706  1.9679  0.2937
21431SOL    HW266926   8.692   9.786   9.470 -0.4766 -0.3208  1.6660
21432SOL     OW66927   0.109   8.153   0.601  0.4544 -0.4506 -0.2207
21432SOL    HW166928   0.014   8.158   0.601  0.5106  1.5162  0.5965
21432SOL    HW266929   0.137   8.232   0.648  2.5299  0.3829 -2.6446
21433SOL     OW66930   2.529   7.393   0.954 -0.1738  0.2402  0.4800
21433SOL    HW166931   2.563   7.306   0.976 -0.7005 -0.0965 -0.0082
21433SOL    HW266932   2.602   7.437   0.912 -0.0425 -0.1385  0.3039
21434SOL     OW66933   7.388   6.649   0.218 -0.4090  0.4572  0.3853
21434SOL    HW166934   7.433   6.733   0.215 -0.9969  0.8890  2.2235
21434SOL    HW266935   7.449   6.590   0.262 -0.9086  0.5830  1.2816
21435SOL     OW66936   1.609   7.628   8.211 -0.6408  0.4686  0.4733
21435SOL    HW166937   1.574   7.711   8.245 -2.1175 -0.4537  1.3120
21435SOL    HW266938   1.576   7.562   8.271  0.8731 -0.7087  0.0600
21436SOL     OW66939   3.312   4.719   2.056  0.4591  0.0414 -0.2171
21436SOL    HW166940   3.254   4.759   1.992 -1.5771  0.0267  1.5266
21436SOL    HW266941   3.388   4.778   2.060 -0.9269  1.8936 -0.1632
21437SOL     OW66942   8.267   7.311   2.473 -0.0410 -0.0810 -0.1004
21437SOL    HW166943   8.175   7.305   2.496  0.3012  0.4463  1.5507
21437SOL    HW266944   8.269   7.359   2.391 -1.1460  1.9446  0.9987
21438SOL     OW66945   2.109   3.481   2.751  0.1119 -0.2159 -0.2370
21438SOL    HW166946   2.071   3.398   2.780  1.5160 -0.4372  1.1441
21438SOL    HW266947   2.034   3.533   2.723 -1.1612 -0.8763  1.7034
21439SOL     OW66948   0.917   5.942   5.462 -0.0196  0.1961 -0.2260
21439SOL    HW166949   0.982   5.969   5.397 -1.0053  0.9308 -0.9340
21439SOL    HW266950   0.967   5.891   5.526  1.4487  1.5914 -0.2005
21440SOL     OW66951   5.963   7.750   1.326  0.2169  0.4178  0.2841
21440SOL    HW166952   6.020   7.790   1.392 -0.0734  0.5666  0.4503
21440SOL    HW266953   5.894   7.814   1.313  1.6126  1.5647 -2.0868
21441SOL     OW66954   4.817   3.581   7.524 -0.4232  0.0950  0.0938
21441SOL    HW166955   4.857   3.511   7.577 -0.8631 -0.3713 -0.1818
21441SOL    HW266956   4.855   3.662   7.559  1.9134 -0.3896 -1.1307
21442SOL     OW66957   9.379   9.060   1.779 -0.4403 -0.7053 -0.4599
21442SOL    HW166958   9.458   9.112   1.766 -0.4011 -0.3404  1.0584
21442SOL    HW266959   9.379   8.997   1.706  0.4187  0.2880 -1.3459
21443SOL     OW66960   4.039   5.346   6.334 -0.0636 -0.4495  1.0349
21443SOL    HW166961   4.082   5.428   6.360 -0.7595  0.2676  0.0329
21443SOL    HW266962   4.056   5.339   6.240 -1.7811 -0.3131  0.6763
21444SOL     OW66963   3.198   6.176   3.141  0.0659 -0.1733  0.7536
21444SOL    HW166964   3.139   6.122   3.090  0.0354 -0.2114  0.8281
21444SOL    HW266965   3.274   6.120   3.158 -0.5564 -0.6822  2.0132
21445SOL     OW66966   9.494   5.732   2.903 -0.6255 -0.2807 -0.3438
21445SOL    HW166967   9.542   5.678   2.965 -1.7647  0.3782  1.1978
21445SOL    HW266968   9.483   5.816   2.947 -2.1899 -0.0507 -1.0765
21446SOL     OW66969   0.367   5.028   3.395 -0.0351  0.1365  0.0032
21446SOL    HW166970   0.440   5.016   3.456  1.9315 -1.0086 -2.4161
21446SOL    HW266971   0.377   5.118   3.363 -1.3378  0.8979  1.5746
21447SOL     OW66972   4.096   3.125   5.857  0.5893 -0.6120 -0.5617
21447SOL    HW166973   4.109   3.211   5.817 -2.6056  0.5377  0.5599
21447SOL    HW266974   4.130   3.134   5.946  1.7827 -1.1086 -0.9431
21448SOL     OW66975   6.705   3.212   1.861  0.6629 -0.7901  0.3176
21448SOL    HW166976   6.688   3.272   1.788  2.4849  0.6556  0.9838
21448SOL    HW266977   6.761   3.144   1.824  1.3683 -0.1997  0.2517
21449SOL     OW66978   4.051   3.586   9.328 -0.0005  0.3241  0.1988
21449SOL    HW166979   4.120   3.647   9.301 -2.1254  3.0895  0.6519
21449SOL    HW266980   4.063   3.576   9.422 -1.4576  2.6718  0.7210
21450SOL     OW66981   5.225   9.376   8.770 -0.7298  0.0226 -0.2017
21450SOL    HW166982   5.188   9.464   8.762 -2.1829 -0.4504  0.9097
21450SOL    HW266983   5.163   9.329   8.826  0.8158 -1.2644  0.5104
21451SOL     OW66984   6.114   1.563  10.031 -0.3884  0.0146 -0.0897
21451SOL    HW166985   6.108   1.516   9.948 -1.6477 -2.8857  1.4988
21451SOL    HW266986   6.183   1.519  10.079 -0.2165  1.1409  0.7345
21452SOL     OW66987   3.221   6.058   5.300  0.1773  0.8260 -0.0286
21452SOL    HW166988   3.281   6.007   5.245  0.9827  1.2231  0.4646
21452SOL    HW266989   3.143   6.069   5.246 -0.5973 -2.0981  0.3510
21453SOL     OW66990   3.409   2.080   1.487 -0.1614  0.3499 -0.0855
21453SOL    HW166991   3.325   2.125   1.473 -0.3304  0.4174  1.0541
21453SOL    HW266992   3.386   1.988   1.498  0.2689 -0.2697 -3.3878
21454SOL     OW66993   9.888   3.431   9.861  0.1127 -0.0160 -0.3891
21454SOL    HW166994   9.947   3.372   9.815  0.5352 -0.1698  0.3278
21454SOL    HW266995   9.915   3.519   9.834  2.1081  0.0474  1.5141
21455SOL     OW66996   8.435   2.006   8.251 -0.2284 -0.0571 -0.4097
21455SOL    HW166997   8.464   1.921   8.219  0.3886  0.1533 -0.4141
21455SOL    HW266998   8.406   1.989   8.341 -0.1862 -0.2830 -0.4385
21456SOL     OW66999   5.720   8.691   3.919 -0.2311 -0.2932  0.2120
21456SOL    HW167000   5.728   8.700   4.014  1.0713 -0.7942  0.1664
21456SOL    HW267001   5.659   8.760   3.893  0.0872  0.4114  1.3039
21457SOL     OW67002   5.337   0.634   5.447 -0.4368  0.4271 -0.1216
21457SOL    HW167003   5.398   0.596   5.383 -2.7423 -0.0020 -2.1816
21457SOL    HW267004   5.378   0.717   5.472  1.7736 -0.5905 -0.1374
21458SOL     OW67005   0.429   1.688   0.043  0.3683 -0.1991  0.2041
21458SOL    HW167006   0.395   1.651  -0.038 -1.1555  0.4335  0.5264
21458SOL    HW267007   0.519   1.655   0.049 -0.2133 -2.0442 -0.6061
21459SOL     OW67008   3.576   1.828   6.603  0.3775  0.2655 -0.6604
21459SOL    HW167009   3.497   1.882   6.589  0.5992  0.7405 -0.1402
21459SOL    HW267010   3.622   1.831   6.519 -0.3728 -0.3836 -1.1115
21460SOL     OW67011   1.241   3.903   7.469  0.3010 -0.0130  0.3713
21460SOL    HW167012   1.181   3.967   7.506 -0.6702 -0.3693 -0.5432
21460SOL    HW267013   1.284   3.863   7.545 -1.2422 -0.3560  1.0902
21461SOL     OW67014   0.327   3.638   8.978 -0.1888 -0.1252 -0.5859
21461SOL    HW167015   0.306   3.731   8.967  0.1096 -0.0599 -0.6133
21461SOL    HW267016   0.296   3.617   9.066  2.2723  0.7347  0.5867
21462SOL     OW67017   5.708   3.611   8.158  0.0637 -0.2793 -0.1547
21462SOL    HW167018   5.660   3.556   8.219 -0.9435 -0.1383 -0.7978
21462SOL    HW267019   5.792   3.627   8.201 -0.6864 -0.0077  1.2680
21463SOL     OW67020   5.138   0.254   2.327  0.2919 -0.1828 -0.0137
21463SOL    HW167021   5.121   0.161   2.338 -1.1640  0.1347  0.6327
21463SOL    HW267022   5.186   0.279   2.406  0.0060 -0.2345  0.1782
21464SOL     OW67023   2.329   9.065   2.415  0.3895  0.1164  0.2998
21464SOL    HW167024   2.354   9.142   2.466  0.1383 -0.2907  1.0635
21464SOL    HW267025   2.261   9.023   2.468  0.5863 -0.6767 -0.0596
21465SOL     OW67026   4.489   5.060   6.060 -0.3838 -0.1215 -0.2383
21465SOL    HW167027   4.397   5.045   6.036 -1.0983  0.0769  2.1611
21465SOL    HW267028   4.533   5.072   5.976 -2.5357 -0.2476 -1.4733
21466SOL     OW67029   6.818   0.687   5.293 -0.1597 -0.1717  0.2173
21466SOL    HW167030   6.845   0.744   5.220  0.8684 -0.5861  0.2525
21466SOL    HW267031   6.877   0.711   5.364 -0.3142 -0.6635  0.5135
21467SOL     OW67032   5.874   3.502   1.442  0.4235  0.3358  0.4879
21467SOL    HW167033   5.873   3.423   1.387  0.3739  0.6407  0.0495
21467SOL    HW267034   5.840   3.571   1.385  1.0615  0.8023  0.6693
21468SOL     OW67035   8.323   9.815   9.035 -0.0161 -0.0108  0.6364
21468SOL    HW167036   8.297   9.755   8.965  2.8625 -1.9387  1.0232
21468SOL    HW267037   8.273   9.895   9.019 -0.2441 -0.7272 -3.0044
21469SOL     OW67038   0.505   3.847   8.346  0.5501  0.2489 -0.6866
21469SOL    HW167039   0.556   3.906   8.290 -0.4967  3.1609  1.1341
21469SOL    HW267040   0.567   3.818   8.413  0.6110  1.1742 -0.3196
21470SOL     OW67041   6.129   5.543   3.622  0.0440 -0.3945  0.3198
21470SOL    HW167042   6.155   5.579   3.537 -0.4286 -1.1620 -0.1654
21470SOL    HW267043   6.211   5.533   3.670  0.2934  0.2659  0.0464
21471SOL     OW67044   4.798   8.123   6.002 -0.4333  0.5432 -0.1248
21471SOL    HW167045   4.783   8.179   6.078 -0.6329  1.3238 -0.7200
21471SOL    HW267046   4.824   8.184   5.933 -0.0418 -0.1790 -0.6212
21472SOL     OW67047   3.014   3.231   1.705  0.1105  0.9189 -0.3654
21472SOL    HW167048   3.078   3.178   1.753 -0.7055 -0.0881 -0.3789
21472SOL    HW267049   2.989   3.300   1.767 -1.4301 -0.7542  0.9608
21473SOL     OW67050   4.275   4.344   7.963 -0.2581  0.4507  0.3826
21473SOL    HW167051   4.305   4.265   8.008 -2.5554 -0.6364  0.1747
21473SOL    HW267052   4.321   4.343   7.879  0.0202 -0.4796  0.5382
21474SOL     OW67053   3.047   7.938   9.186  0.2961 -0.0840 -0.0265
21474SOL    HW167054   3.054   7.908   9.096  0.0227  0.0309 -0.0861
21474SOL    HW267055   2.988   8.014   9.183 -0.0998 -0.3684  0.3084
21475SOL     OW67056   0.824   3.730   2.496 -0.1502 -0.8422  0.3787
21475SOL    HW167057   0.872   3.789   2.555 -0.4330 -1.4821  1.2681
21475SOL    HW267058   0.886   3.660   2.476  0.6800  0.4235 -1.8198
21476SOL     OW67059   3.780   5.230   4.960  0.4636  0.3092 -0.4755
21476SOL    HW167060   3.818   5.311   4.927  0.5079  0.0637 -1.0475
21476SOL    HW267061   3.686   5.246   4.958  0.5267  1.1265  1.4917
21477SOL     OW67062   2.477   4.327   2.572 -0.3582 -0.3872  0.5371
21477SOL    HW167063   2.556   4.279   2.597 -0.0713  0.1116  0.6055
21477SOL    HW267064   2.406   4.286   2.622  0.1299  0.2774  1.8083
21478SOL     OW67065   9.694   8.592   4.061 -0.4237  0.2238  0.7223
21478SOL    HW167066   9.734   8.664   4.012 -0.9133 -0.4999 -0.7883
21478SOL    HW267067   9.619   8.632   4.105  0.8937  1.2179  2.2226
21479SOL     OW67068  10.354   5.746   6.539  0.4136 -0.0073  0.0938
21479SOL    HW167069  10.350   5.841   6.526 -1.7667 -0.1146 -0.3540
21479SOL    HW267070  10.350   5.735   6.634  2.2337  0.3553  0.2480
21480SOL     OW67071   1.883   6.091   4.781  0.3473 -0.3810  0.6890
21480SOL    HW167072   1.966   6.046   4.770  0.4470 -0.7780  2.6092
21480SOL    HW267073   1.836   6.038   4.846 -1.1984  0.1174  0.0347
21481SOL     OW67074   4.299   2.617   8.715  0.1259 -0.0032  0.0994
21481SOL    HW167075   4.394   2.627   8.705  0.4262 -1.9440  0.4750
21481SOL    HW267076   4.286   2.613   8.810 -0.2874 -0.0869  0.0388
21482SOL     OW67077   5.960   3.202  10.247  0.6788 -0.2127 -0.4519
21482SOL    HW167078   5.873   3.193  10.208  0.5932 -0.1793 -0.2648
21482SOL    HW267079   5.976   3.118  10.290 -0.2279  0.5788  1.5217
21483SOL     OW67080   8.242   4.306   1.736  0.1004 -0.1583 -0.1015
21483SOL    HW167081   8.241   4.271   1.825 -3.8473 -0.6399 -0.1832
21483SOL    HW267082   8.242   4.401   1.747 -0.4859 -0.2173  0.4341
21484SOL     OW67083   2.292   1.896   3.712 -0.0588  0.3441 -0.2583
21484SOL    HW167084   2.387   1.911   3.707  0.0228 -0.4090 -1.6184
21484SOL    HW267085   2.257   1.975   3.753  0.7743  2.4374 -3.2315
21485SOL     OW67086   3.983   4.641   2.530 -0.5522 -0.2904 -0.1085
21485SOL    HW167087   3.956   4.552   2.507 -0.8768 -0.3517  0.4828
21485SOL    HW267088   4.045   4.666   2.462  0.0542 -1.2305  0.0730
21486SOL     OW67089   4.772   7.632   1.484 -0.0988 -0.3227 -0.6121
21486SOL    HW167090   4.813   7.574   1.549 -0.3852 -0.7675 -0.8231
21486SOL    HW267091   4.714   7.687   1.536  0.1499 -0.2432 -0.4129
21487SOL     OW67092   4.688   5.400   2.650 -0.1767 -0.6201  0.1618
21487SOL    HW167093   4.669   5.319   2.698 -0.0716 -0.7680 -0.0412
21487SOL    HW267094   4.765   5.436   2.694 -0.6761 -0.2309  0.7312
21488SOL     OW67095   9.589   7.841   4.328 -0.0380 -0.1373 -0.3206
21488SOL    HW167096   9.541   7.920   4.304  0.0245  0.0568  0.1643
21488SOL    HW267097   9.595   7.845   4.424 -1.4586 -1.5517 -0.1264
21489SOL     OW67098   5.324   1.290   6.740  0.7076  0.1806  0.0686
21489SOL    HW167099   5.351   1.228   6.672 -3.4193 -0.9189 -0.8357
21489SOL    HW267100   5.305   1.235   6.816 -0.3907  0.6548  0.1509
21490SOL     OW67101   0.932   3.769   9.112 -0.4007 -0.1386  0.1940
21490SOL    HW167102   0.837   3.760   9.103 -0.4850  0.6590  0.2034
21490SOL    HW267103   0.959   3.692   9.162 -0.9580 -0.6935 -0.3468
21491SOL     OW67104   8.494   3.219   3.112 -0.0798  0.4417  0.1866
21491SOL    HW167105   8.587   3.214   3.090  0.1559  1.6785  0.8377
21491SOL    HW267106   8.477   3.139   3.161  0.2747 -0.5002 -1.1532
21492SOL     OW67107   9.799   7.160   7.957  0.6766  0.1137 -0.5805
21492SOL    HW167108   9.863   7.098   7.992  0.8330  0.2301 -0.6572
21492SOL    HW267109   9.849   7.242   7.947  0.9907 -0.2651 -2.3331
21493SOL     OW67110   5.050   6.193   2.561  0.1018  0.2110  0.1383
21493SOL    HW167111   5.104   6.199   2.640 -0.0676  1.7336  0.1746
21493SOL    HW267112   4.960   6.189   2.594 -0.0102  1.5001  0.0428
21494SOL     OW67113   9.181   3.342   5.652 -0.1137 -0.1044 -0.1973
21494SOL    HW167114   9.249   3.345   5.586  0.6760 -1.3974  0.5112
21494SOL    HW267115   9.201   3.414   5.711 -0.1432  0.3310 -0.7113
21495SOL     OW67116   7.644   5.258   3.966  0.1201 -0.5137 -0.3984
21495SOL    HW167117   7.730   5.247   3.926 -0.2123  1.0396 -1.6404
21495SOL    HW267118   7.599   5.175   3.950  0.4673 -0.4057 -2.1481
21496SOL     OW67119   3.141   7.937   5.717  0.2481  0.5067 -0.0428
21496SOL    HW167120   3.127   7.852   5.758  0.9518 -0.0243 -0.8577
21496SOL    HW267121   3.235   7.952   5.725  0.4785  0.1893 -1.7897
21497SOL     OW67122  10.243   6.254   3.319  0.1439  0.4535  0.7147
21497SOL    HW167123  10.185   6.267   3.245  0.9770 -1.2562 -0.3080
21497SOL    HW267124  10.194   6.196   3.378  1.1249 -1.9613 -0.6896
21498SOL     OW67125   6.804   8.192   2.489  0.0785 -0.0192 -0.0487
21498SOL    HW167126   6.783   8.175   2.580  1.8775 -0.7964  0.2705
21498SOL    HW267127   6.741   8.140   2.439 -0.7981  0.2762  0.7336
21499SOL     OW67128   6.705   4.562   2.684 -0.2756  0.7586 -0.1538
21499SOL    HW167129   6.635   4.586   2.745 -0.0715  1.5476 -0.2245
21499SOL    HW267130   6.744   4.645   2.658  1.1163  0.2983  0.3708
21500SOL     OW67131   5.033   3.600   8.141 -0.2459  0.1441  0.6027
21500SOL    HW167132   5.077   3.584   8.225  1.4325  1.1015 -0.0357
21500SOL    HW267133   4.986   3.682   8.154 -2.4485 -1.1915  1.4805
21501SOL     OW67134   0.337  10.327   6.201 -0.4477  0.5385  0.3193
21501SOL    HW167135   0.418  10.376   6.218 -0.6632  0.9448  0.1723
21501SOL    HW267136   0.298  10.369   6.125 -0.8140  0.3563  0.4021
21502SOL     OW67137   1.103   1.666   5.468  0.3695 -0.3194  0.1225
21502SOL    HW167138   1.076   1.720   5.541 -0.0872  0.7718 -0.8322
21502SOL    HW267139   1.195   1.691   5.452  0.1118  0.3287 -0.4197
21503SOL     OW67140   1.433   2.820   3.719  0.1715 -0.4697 -0.5970
21503SOL    HW167141   1.461   2.729   3.727  0.6093 -0.3874 -1.1526
21503SOL    HW267142   1.369   2.819   3.648 -0.3470 -0.4523 -0.1394
21504SOL     OW67143   9.494   7.988   6.254  0.2945  0.2710  0.2179
21504SOL    HW167144   9.454   7.923   6.196  1.1540 -0.2238  0.1629
21504SOL    HW267145   9.442   8.067   6.241 -0.3124 -0.1974 -0.2650
21505SOL     OW67146   6.057   6.538   2.485 -0.7796 -0.0017 -0.2772
21505SOL    HW167147   5.993   6.469   2.505  0.0251 -0.6198  0.2225
21505SOL    HW267148   6.044   6.603   2.554  0.2243 -0.9093  0.8240
21506SOL     OW67149   9.701   4.354   8.947  0.1680 -0.2489 -0.0281
21506SOL    HW167150   9.705   4.448   8.965 -0.0043  0.1094 -1.6861
21506SOL    HW267151   9.782   4.319   8.984 -0.2842  0.3402  1.6061
21507SOL     OW67152   6.248   7.728   4.825 -0.0064  0.1789  0.4502
21507SOL    HW167153   6.293   7.645   4.840  1.2937  0.8090  0.1928
21507SOL    HW267154   6.288   7.789   4.886 -1.5839  0.4327  1.2866
21508SOL     OW67155   4.873   8.081   5.429  0.3213  0.1925 -0.2061
21508SOL    HW167156   4.796   8.134   5.411  0.4521 -0.3089 -2.4631
21508SOL    HW267157   4.844   8.019   5.497  0.0601  2.7677  2.2115
21509SOL     OW67158   2.691   1.652   6.937  0.0867 -0.0823 -0.2034
21509SOL    HW167159   2.612   1.659   6.882  0.8242  1.9455 -1.0953
21509SOL    HW267160   2.763   1.646   6.874  0.7360 -1.4079  0.6045
21510SOL     OW67161   7.822   2.216   9.117  0.1261 -0.3469  0.4437
21510SOL    HW167162   7.905   2.215   9.069 -0.8404 -1.5331 -1.3055
21510SOL    HW267163   7.823   2.136   9.169 -0.5967 -1.2789 -0.9040
21511SOL     OW67164   0.635   0.909   4.277 -0.1932  0.3658 -0.1858
21511SOL    HW167165   0.553   0.878   4.317 -0.7237  1.5066 -0.3189
21511SOL    HW267166   0.630   0.880   4.186 -0.5118  0.5151 -0.2191
21512SOL     OW67167   2.408   2.678   5.538 -0.2144  0.1182  0.9558
21512SOL    HW167168   2.404   2.597   5.487  1.1850  0.4462  0.2559
21512SOL    HW267169   2.334   2.673   5.598  0.4162 -2.1442  1.6298
21513SOL     OW67170   1.236   9.351   4.333 -0.1387  0.4278 -0.0391
21513SOL    HW167171   1.328   9.343   4.307  0.0560  2.2976 -0.0706
21513SOL    HW267172   1.187   9.348   4.251 -0.0938 -0.3553 -0.0400
21514SOL     OW67173   3.914   0.653   4.118  0.3374 -0.2782 -0.0870
21514SOL    HW167174   3.833   0.613   4.086 -0.3277  1.2162 -0.3840
21514SOL    HW267175   3.907   0.745   4.091  0.0897  0.9559  3.6030
21515SOL     OW67176   9.473   0.744   0.731  0.3540  0.0323 -0.4286
21515SOL    HW167177   9.519   0.745   0.816 -1.1132 -1.0185  0.4305
21515SOL    HW267178   9.417   0.821   0.733 -1.2378 -1.0763  0.5308
21516SOL     OW67179  10.071   6.676   6.347  0.1774 -0.0734  0.2458
21516SOL    HW167180  10.054   6.585   6.370 -0.5471 -0.1745 -0.6389
21516SOL    HW267181  10.012   6.726   6.403  1.8326 -0.0065  2.0266
21517SOL     OW67182   1.273   8.071   8.964  0.0074 -0.4616 -0.0982
21517SOL    HW167183   1.323   8.011   8.908 -0.9979 -2.0401  0.5970
21517SOL    HW267184   1.189   8.026   8.977 -0.5974  0.8903  0.8793
21518SOL     OW67185   1.041   6.250   2.385 -0.1005 -0.1487 -0.0545
21518SOL    HW167186   1.084   6.297   2.313  2.2924  1.3281  2.1718
21518SOL    HW267187   0.950   6.280   2.383  0.2381  0.8883 -1.6200
21519SOL     OW67188   1.603   4.978   8.713 -0.2895 -0.3311 -0.3160
21519SOL    HW167189   1.544   4.978   8.637  0.5347 -0.0500 -0.9669
21519SOL    HW267190   1.688   4.954   8.677  0.0054 -0.7101  0.6173
21520SOL     OW67191   4.591   4.513   6.310 -0.1151  0.1735 -0.2658
21520SOL    HW167192   4.587   4.429   6.264 -2.3641  0.7331 -1.2209
21520SOL    HW267193   4.539   4.573   6.255  1.1788  2.1238  0.5450
21521SOL     OW67194   2.032   0.508   7.225 -0.7217 -0.1384 -0.4911
21521SOL    HW167195   2.071   0.577   7.279 -0.9047 -0.6615  0.3109
21521SOL    HW267196   2.050   0.536   7.135 -0.1490  0.5827 -0.1634
21522SOL     OW67197   1.887   4.046   5.755 -0.3412 -0.3212  0.1526
21522SOL    HW167198   1.801   4.014   5.729 -0.3498  1.6772 -2.7320
21522SOL    HW267199   1.869   4.110   5.824 -1.0910 -0.3887  0.0257
21523SOL     OW67200   2.029   1.475   8.465  0.0336  0.1440  0.1808
21523SOL    HW167201   2.020   1.516   8.551 -0.8578  1.8543 -0.6785
21523SOL    HW267202   2.123   1.457   8.457 -0.0833 -1.8690  2.2618
21524SOL     OW67203   5.037   3.445  10.354  0.3341  0.6643  0.3826
21524SOL    HW167204   5.029   3.520  10.413  1.0414 -0.0141  1.3773
21524SOL    HW267205   4.949   3.407  10.353  0.4111  0.4202  1.3893
21525SOL     OW67206   1.451   1.966   7.416 -0.3934  0.4793  0.2961
21525SOL    HW167207   1.387   1.970   7.345 -1.0307  0.3268  0.8468
21525SOL    HW267208   1.408   2.009   7.490 -0.0444 -0.0393  0.8118
21526SOL     OW67209   2.185   3.786   5.399  0.0670  0.4779  0.4334
21526SOL    HW167210   2.213   3.827   5.480 -1.2131  0.1528  1.0693
21526SOL    HW267211   2.206   3.850   5.331 -1.0569  1.8166  1.2937
21527SOL     OW67212   8.052   7.504   5.972 -0.1100 -0.4961  0.3849
21527SOL    HW167213   8.147   7.517   5.977  0.0807 -2.1048  1.6797
21527SOL    HW267214   8.030   7.527   5.882  1.6061 -0.6408 -0.1071
21528SOL     OW67215   0.336   2.193   1.104  0.8337 -0.0339  0.1182
21528SOL    HW167216   0.362   2.177   1.013  4.9775 -1.1804  1.2685
21528SOL    HW267217   0.374   2.278   1.125 -0.1024  0.2338  0.7816
21529SOL     OW67218   3.635   1.139   7.759  0.2965 -0.1274  0.1163
21529SOL    HW167219   3.658   1.109   7.847 -1.7343  0.8250  1.0123
21529SOL    HW267220   3.556   1.090   7.737 -0.4743  1.2307 -0.2508
21530SOL     OW67221   6.408   3.740   1.339  0.0090 -0.1540 -0.0250
21530SOL    HW167222   6.337   3.676   1.336  1.5087 -2.2297  3.2674
21530SOL    HW267223   6.459   3.723   1.259 -0.7893 -1.6730 -0.2485
21531SOL     OW67224   1.953   9.228  10.243  0.0848 -0.1814  0.0677
21531SOL    HW167225   1.885   9.170  10.276  0.7835 -1.1189 -0.0823
21531SOL    HW267226   2.034   9.177  10.253  0.6141  0.4623 -0.8007
21532SOL     OW67227   3.853   0.356   9.689  0.5029 -0.5076 -0.4689
21532SOL    HW167228   3.840   0.309   9.772  1.4285  0.2940  0.1545
21532SOL    HW267229   3.771   0.405   9.676  0.7147  0.1349  0.4989
21533SOL     OW67230   8.481   8.726   7.175  0.4537  0.3543 -0.3737
21533SOL    HW167231   8.508   8.635   7.162 -1.0651 -0.1680 -0.0762
21533SOL    HW267232   8.458   8.757   7.087  0.0726  0.1401 -0.3522
21534SOL     OW67233  10.108   6.476   7.455 -0.5248 -0.2677 -0.0006
21534SOL    HW167234  10.203   6.478   7.457 -0.5357  0.4224  0.9186
21534SOL    HW267235  10.082   6.545   7.516 -1.6124 -0.2671 -0.4395
21535SOL     OW67236   9.276   6.471   6.398 -0.2364 -0.5152  0.1964
21535SOL    HW167237   9.351   6.447   6.343 -0.7947 -0.0277 -0.7992
21535SOL    HW267238   9.314   6.483   6.485  1.1322  1.1165 -0.5678
21536SOL     OW67239   0.439   5.042   2.516  0.4096 -0.3584 -0.0993
21536SOL    HW167240   0.450   5.123   2.466  1.2765 -1.2055 -1.3459
21536SOL    HW267241   0.484   5.058   2.599 -1.6601  1.3335  0.7927
21537SOL     OW67242   0.226   5.113   2.199  0.3202 -0.4710  0.4193
21537SOL    HW167243   0.140   5.144   2.168  0.1181 -0.2341  1.1957
21537SOL    HW267244   0.283   5.189   2.189  0.1782 -0.2952  0.9211
21538SOL     OW67245   5.328   5.755   4.220  0.2357  0.2509  0.6973
21538SOL    HW167246   5.271   5.683   4.193 -0.0282  0.3348  1.0316
21538SOL    HW267247   5.406   5.711   4.256  0.2270  0.1339  0.5740
21539SOL     OW67248   3.552   1.095   3.059  0.2786  0.1170  0.0358
21539SOL    HW167249   3.612   1.042   3.006  0.9527 -0.6127  1.4966
21539SOL    HW267250   3.492   1.032   3.098 -0.1394  0.6390  0.2454
21540SOL     OW67251   0.060   6.266   8.084  0.2758  0.5399 -0.1325
21540SOL    HW167252   0.011   6.272   8.002  0.1242 -0.4380 -0.1282
21540SOL    HW267253   0.005   6.310   8.148  0.3966  1.3152 -0.5474
21541SOL     OW67254   2.218   6.615   9.205  0.3780  0.8381  0.3448
21541SOL    HW167255   2.198   6.704   9.174  0.5086  1.1323  1.0793
21541SOL    HW267256   2.309   6.601   9.180  0.5954  1.2147  0.8870
21542SOL     OW67257   0.261   4.004   2.834 -0.1605  0.2568  0.4718
21542SOL    HW167258   0.292   4.078   2.887  0.8041 -0.0140  0.3102
21542SOL    HW267259   0.321   3.933   2.855 -0.2203 -0.0700 -0.4237
21543SOL     OW67260  10.016   3.387   4.680 -0.0940 -0.4956  0.4166
21543SOL    HW167261  10.012   3.304   4.632 -0.7270 -0.3333  0.1819
21543SOL    HW267262   9.932   3.394   4.724  0.4849 -0.6449  1.5821
21544SOL     OW67263   3.994   1.137   3.411  0.4827 -0.7744 -0.0383
21544SOL    HW167264   3.922   1.199   3.420  1.1840 -0.0955  1.0260
21544SOL    HW267265   3.951   1.055   3.386 -0.5029 -0.0112 -0.9494
21545SOL     OW67266   1.816   5.132   2.655 -0.5636  0.1930  0.5087
21545SOL    HW167267   1.755   5.086   2.714 -1.2519 -0.8324 -0.9483
21545SOL    HW267268   1.872   5.062   2.620 -1.3286  0.4808 -1.4092
21546SOL     OW67269   4.603   9.065   0.305 -0.1853 -0.5844  0.2000
21546SOL    HW167270   4.690   9.087   0.336  0.1382 -0.2707 -0.8892
21546SOL    HW267271   4.550   9.143   0.323  0.6445  0.6870 -2.4398
21547SOL     OW67272   1.096   4.273   1.812  0.8641  0.3143  0.0531
21547SOL    HW167273   1.162   4.338   1.787  1.0780  0.6498  1.3983
21547SOL    HW267274   1.094   4.277   1.908 -2.2923  1.5400  0.0694
21548SOL     OW67275   1.787   0.503   9.486  0.1086 -0.7797  0.2234
21548SOL    HW167276   1.851   0.480   9.553 -0.3767  0.0298  0.9847
21548SOL    HW267277   1.702   0.493   9.529 -0.2084 -0.2841 -0.2685
21549SOL     OW67278   7.373  10.038   1.220  0.3477  1.1533  0.4276
21549SOL    HW167279   7.284  10.031   1.254  0.0969 -0.1095 -0.3899
21549SOL    HW267280   7.418   9.960   1.253  1.0291  1.5704  0.5066
21550SOL     OW67281   5.751   9.971   1.888 -0.2935  1.0759  0.4952
21550SOL    HW167282   5.808   9.909   1.934 -1.4977 -0.3542  0.1378
21550SOL    HW267283   5.811  10.034   1.849  1.0087  0.0030  0.6920
21551SOL     OW67284   0.004   3.906   2.793  0.1581  0.1796 -0.5697
21551SOL    HW167285  -0.042   3.909   2.876 -0.7211 -0.6923 -1.0076
21551SOL    HW267286   0.093   3.935   2.813  0.5484 -1.9442  1.0760
21552SOL     OW67287   2.468   3.926  10.273  0.0341  0.1183 -0.1179
21552SOL    HW167288   2.552   3.921  10.228 -0.2705 -1.6906 -0.5783
21552SOL    HW267289   2.484   3.983  10.349  1.7505 -0.4198 -0.0309
21553SOL     OW67290   6.213   1.121   1.219 -0.1372 -0.7609  0.1868
21553SOL    HW167291   6.153   1.063   1.172 -2.1321  1.0056  0.4073
21553SOL    HW267292   6.190   1.209   1.189  1.1005  0.1238  1.6991
21554SOL     OW67293   7.208   0.825   5.038 -0.6962 -0.4279  0.1976
21554SOL    HW167294   7.269   0.785   5.100 -0.7272 -0.8081 -0.0141
21554SOL    HW267295   7.185   0.754   4.978  0.4899  0.2589 -1.1473
21555SOL     OW67296   3.855   2.351   1.388 -0.2772 -0.0878  0.1798
21555SOL    HW167297   3.851   2.425   1.450  1.0722 -1.6643  2.2862
21555SOL    HW267298   3.789   2.290   1.420 -0.6877 -0.2611 -0.9589
21556SOL     OW67299   3.891   2.465   2.395  0.3267 -0.5821  0.1682
21556SOL    HW167300   3.913   2.416   2.474 -1.1546  0.2336  1.1365
21556SOL    HW267301   3.974   2.507   2.369  1.3898 -2.7550 -0.1368
21557SOL     OW67302   9.487   1.099   9.114 -0.2934 -0.1540  0.6248
21557SOL    HW167303   9.561   1.151   9.146  0.8966 -1.4986  0.1530
21557SOL    HW267304   9.411   1.138   9.156  0.6452  1.4370  0.9275
21558SOL     OW67305   3.497   3.529  10.167 -0.1546  0.3742 -0.7145
21558SOL    HW167306   3.476   3.567  10.253  0.2788  0.4659 -0.6457
21558SOL    HW267307   3.501   3.435  10.183  1.1520  0.4722 -0.3543
21559SOL     OW67308   1.387   1.820   8.788  0.0066  0.4262  0.6208
21559SOL    HW167309   1.465   1.876   8.789  0.3674 -0.0697  1.7430
21559SOL    HW267310   1.369   1.803   8.880  1.4613 -3.4554  0.3527
21560SOL     OW67311   8.768   6.306   4.513  0.1680 -0.6688 -0.0462
21560SOL    HW167312   8.685   6.287   4.469  0.8390 -0.4123 -1.4692
21560SOL    HW267313   8.825   6.340   4.444  1.3824 -0.5929  0.9560
21561SOL     OW67314   9.645   5.452   5.278  0.4865 -0.1406  0.1305
21561SOL    HW167315   9.699   5.496   5.213  1.1710  0.2536  0.9489
21561SOL    HW267316   9.579   5.517   5.303 -0.6150 -0.7300 -1.1096
21562SOL     OW67317   8.889   8.132   9.926 -0.2128 -0.1266  0.0123
21562SOL    HW167318   8.895   8.189   9.849 -0.8802 -0.5602 -0.3769
21562SOL    HW267319   8.822   8.173   9.981 -0.0303 -0.0349  0.1640
21563SOL     OW67320   4.507   2.313   2.655 -0.2036  0.1349  0.0907
21563SOL    HW167321   4.534   2.401   2.630 -2.0955  0.6322 -0.3654
21563SOL    HW267322   4.414   2.309   2.634 -0.5011 -1.5008  1.4431
21564SOL     OW67323   2.424   5.646   6.647  0.4295  0.4417  0.1408
21564SOL    HW167324   2.378   5.620   6.727 -0.0731  1.8165  0.3176
21564SOL    HW267325   2.515   5.656   6.675  0.2953  0.7052  0.4966
21565SOL     OW67326   2.648   3.815  10.106 -0.0860  0.5281  0.1700
21565SOL    HW167327   2.621   3.732  10.147  1.1555  0.3843  0.7465
21565SOL    HW267328   2.688   3.789  10.024  2.1189  0.3381  1.2442
21566SOL     OW67329   1.520   6.447   8.216 -0.2003  0.0204  0.2340
21566SOL    HW167330   1.441   6.501   8.208  0.3885  0.9771  0.6906
21566SOL    HW267331   1.590   6.502   8.181  0.0819 -1.3063 -1.3667
21567SOL     OW67332   9.277   3.668   6.242 -0.1645  0.0345  0.4216
21567SOL    HW167333   9.341   3.598   6.255  0.6040  1.0535  2.5138
21567SOL    HW267334   9.326   3.739   6.202 -0.4536  0.1364  0.2467
21568SOL     OW67335   3.907   8.828   6.638 -0.2645  0.2896  0.6231
21568SOL    HW167336   3.916   8.920   6.616 -1.9517  1.0228  2.6255
21568SOL    HW267337   3.846   8.793   6.573  1.9525 -0.0063 -1.4023
21569SOL     OW67338   6.976   8.829   3.197  0.0220 -0.5148 -0.1693
21569SOL    HW167339   6.927   8.811   3.117 -1.0410 -2.4877  0.8383
21569SOL    HW267340   7.062   8.790   3.181  0.6412  1.1664 -1.1799
21570SOL     OW67341   3.530   8.647   3.556  0.1417 -0.2435 -0.0366
21570SOL    HW167342   3.460   8.674   3.497  0.7473  1.1781 -0.1445
21570SOL    HW267343   3.529   8.551   3.553 -1.6694 -0.2520 -0.1594
21571SOL     OW67344   4.787   4.119   3.964 -0.0820 -0.0731 -0.0038
21571SOL    HW167345   4.774   4.102   3.870 -0.7717 -1.7948  0.3634
21571SOL    HW267346   4.787   4.214   3.971 -1.7234  0.0917 -1.5362
21572SOL     OW67347   4.520   9.408   8.056 -0.0318  0.3718 -0.2006
21572SOL    HW167348   4.481   9.489   8.088 -1.3960 -0.3403  0.0151
21572SOL    HW267349   4.456   9.373   7.994  0.6424 -0.4327 -0.4672
21573SOL     OW67350   5.238   7.055   8.280 -0.4991 -0.1407 -0.3241
21573SOL    HW167351   5.252   6.970   8.323 -1.3054 -0.6823 -1.0996
21573SOL    HW267352   5.286   7.117   8.335  0.8081 -1.2057 -0.1971
21574SOL     OW67353   8.173   4.548   2.980  0.1090 -0.2752 -0.2660
21574SOL    HW167354   8.185   4.643   2.976 -0.0252 -0.2412  0.1743
21574SOL    HW267355   8.147   4.524   2.891 -1.9409  0.3874  0.0992
21575SOL     OW67356   4.321   6.928   3.547 -0.1189 -0.1080  0.6079
21575SOL    HW167357   4.299   6.845   3.506  0.1139  0.1149  0.0245
21575SOL    HW267358   4.239   6.977   3.549  0.0904  0.3223 -0.6291
21576SOL     OW67359   0.874   4.218   5.395 -0.1746  0.1969  0.3260
21576SOL    HW167360   0.897   4.165   5.472 -0.0491  0.7026  0.6405
21576SOL    HW267361   0.953   4.270   5.378  0.1555 -0.6262 -0.7572
21577SOL     OW67362   0.282   8.601   1.209 -0.0410 -0.2673 -0.6448
21577SOL    HW167363   0.332   8.523   1.186  0.5122  0.1524 -0.8711
21577SOL    HW267364   0.306   8.620   1.299  0.4296  0.0950 -0.8418
21578SOL     OW67365   3.140   9.428   2.146 -0.2964  0.4196 -0.1099
21578SOL    HW167366   3.199   9.499   2.121 -2.0915  1.7446 -0.8422
21578SOL    HW267367   3.081   9.418   2.071 -0.5899 -1.2968  0.3200
21579SOL     OW67368   7.244  10.018   3.280 -0.1248 -0.1639 -0.3152
21579SOL    HW167369   7.200   9.984   3.203  0.2145 -2.2060  0.3420
21579SOL    HW267370   7.337  10.018   3.258 -0.0433 -0.5648  0.0210
21580SOL     OW67371   6.163   9.308   3.904 -0.2134  0.7314 -0.2780
21580SOL    HW167372   6.157   9.400   3.879  1.9197  0.7293 -1.0641
21580SOL    HW267373   6.243   9.303   3.958 -0.1815 -0.6794 -0.4133
21581SOL     OW67374   5.779   5.741   9.342  0.2298  0.1188  0.4990
21581SOL    HW167375   5.784   5.648   9.317 -2.9554  0.7555 -3.7969
21581SOL    HW267376   5.870   5.768   9.353  1.3218 -3.2537  1.2071
21582SOL     OW67377   6.600   4.297   9.213  0.5237 -0.1603  0.0371
21582SOL    HW167378   6.511   4.277   9.240  0.2681  0.3712 -0.3805
21582SOL    HW267379   6.607   4.260   9.125  0.7984 -0.4201  0.1663
21583SOL     OW67380   1.049   5.356   3.798 -0.1441 -0.1414 -0.2892
21583SOL    HW167381   1.040   5.428   3.860 -0.8312  0.3343 -0.9235
21583SOL    HW267382   1.141   5.330   3.804 -0.2503 -0.2664  1.0960
21584SOL     OW67383   6.187   0.522   2.105  0.2076 -0.6378  0.2422
21584SOL    HW167384   6.265   0.467   2.109  0.8187  0.2248  0.4042
21584SOL    HW267385   6.174   0.552   2.195  0.2227 -0.0456  0.0487
21585SOL     OW67386   3.389   8.045   8.492  0.1180 -0.8676  0.6911
21585SOL    HW167387   3.329   7.995   8.549  0.9384 -1.7571  0.8061
21585SOL    HW267388   3.422   8.115   8.549 -0.4839 -0.6230  0.7506
21586SOL     OW67389   3.477   3.419   4.987  0.1259 -0.0135  0.0889
21586SOL    HW167390   3.523   3.457   4.911 -0.0269  1.1170  0.5546
21586SOL    HW267391   3.428   3.491   5.025 -2.9979 -1.3757 -1.0222
21587SOL     OW67392   2.037   7.396   9.631  0.1686 -0.0426  0.4068
21587SOL    HW167393   2.015   7.465   9.569 -0.6819  0.9974  1.8144
21587SOL    HW267394   2.116   7.356   9.596  0.6826  1.6436 -0.4460
21588SOL     OW67395   5.131   8.431   9.512 -0.1074 -0.1303  0.8810
21588SOL    HW167396   5.145   8.346   9.553  3.3683 -0.3707 -0.4749
21588SOL    HW267397   5.111   8.490   9.585  1.9877 -1.2722  2.4977
21589SOL     OW67398   5.448   2.700   2.946  0.0501 -0.3407  0.0863
21589SOL    HW167399   5.497   2.621   2.924  2.0206  0.8305  0.0801
21589SOL    HW267400   5.503   2.747   3.008 -0.4592  1.6461 -0.8614
21590SOL     OW67401   7.730   4.865   7.803  0.4186  0.6712 -0.3003
21590SOL    HW167402   7.763   4.780   7.774 -1.0405 -0.0757  0.1417
21590SOL    HW267403   7.776   4.929   7.748  1.7602 -0.3638 -0.4303
21591SOL     OW67404   9.696   4.556   0.187  0.5440 -0.0284  0.1122
21591SOL    HW167405   9.727   4.605   0.262  1.3894 -0.5215  0.0925
21591SOL    HW267406   9.615   4.514   0.217 -0.0726  1.1633  0.1944
21592SOL     OW67407   0.861   2.499   4.038  0.1909 -0.0081 -0.5198
21592SOL    HW167408   0.801   2.489   3.964  0.6274  0.0582 -0.8848
21592SOL    HW267409   0.816   2.558   4.098 -1.1886 -1.8320  0.3447
21593SOL     OW67410   3.010   8.076   5.923 -0.6342  0.1171 -0.0230
21593SOL    HW167411   3.062   8.016   5.977  0.3728  1.6670  0.8514
21593SOL    HW267412   3.053   8.075   5.838  0.0066  0.3333  0.2862
21594SOL     OW67413   3.416   8.893   5.826  0.7370  0.4195 -0.4284
21594SOL    HW167414   3.479   8.864   5.760  1.0468  1.7409 -0.7436
21594SOL    HW267415   3.469   8.936   5.893  0.5112 -1.5481  1.1132
21595SOL     OW67416  10.208   4.110   3.598  0.1715  0.4057  0.0321
21595SOL    HW167417  10.300   4.123   3.617  1.0241 -2.2014 -1.7932
21595SOL    HW267418  10.179   4.193   3.560  1.7777  1.1971  0.4621
21596SOL     OW67419   7.041   5.539   6.321  0.0462 -0.0114 -0.4686
21596SOL    HW167420   7.038   5.449   6.291 -1.3566 -0.4082  0.7431
21596SOL    HW267421   7.040   5.592   6.241  1.3331 -1.0454 -1.2002
21597SOL     OW67422   2.263   6.760  10.191  0.3509  0.1034  0.1065
21597SOL    HW167423   2.333   6.696  10.186 -0.0583 -0.3197 -0.2792
21597SOL    HW267424   2.183   6.709  10.179 -0.0929  0.4351  1.4425
21598SOL     OW67425   4.715   4.895   0.191  0.0621 -0.8639  0.3075
21598SOL    HW167426   4.699   4.979   0.234  1.8284 -0.2081 -0.2179
21598SOL    HW267427   4.638   4.880   0.137  0.3666  1.2365 -0.8158
21599SOL     OW67428   3.390   9.014   4.285 -0.4747 -0.0424  0.0877
21599SOL    HW167429   3.403   8.943   4.223 -2.3570  0.1973 -0.6216
21599SOL    HW267430   3.456   8.998   4.353  0.3873 -1.3641 -1.0006
21600SOL     OW67431   9.095   4.225   2.205  0.6312 -0.7983 -0.1337
21600SOL    HW167432   9.132   4.186   2.126 -0.3131 -0.6529 -0.6600
21600SOL    HW267433   9.116   4.318   2.199 -2.4759 -0.0615 -2.0870
21601SOL     OW67434   9.239   8.466   3.361  0.3718 -0.2111 -0.1445
21601SOL    HW167435   9.208   8.544   3.407  1.2245 -0.6398  1.2255
21601SOL    HW267436   9.310   8.433   3.416 -0.5982 -2.5099 -0.1799
21602SOL     OW67437   9.590   3.920   8.493 -0.3992 -0.6649  0.2342
21602SOL    HW167438   9.684   3.914   8.511 -0.2562 -0.2319 -0.3286
21602SOL    HW267439   9.549   3.868   8.562  0.0917  1.0918  1.9455
21603SOL     OW67440   8.639   3.811   1.536  0.0293 -0.6293 -0.7774
21603SOL    HW167441   8.585   3.765   1.472  2.1097 -0.4451 -2.8032
21603SOL    HW267442   8.704   3.747   1.563 -1.0788 -0.8377  1.5923
21604SOL     OW67443   3.534   0.520   7.966 -0.0011 -0.0564  0.5383
21604SOL    HW167444   3.586   0.451   7.925  1.0931  0.4058  1.1239
21604SOL    HW267445   3.578   0.538   8.049  0.2362  1.9292  0.0238
21605SOL     OW67446   5.312   0.670   4.239 -0.1652  0.3204  0.6396
21605SOL    HW167447   5.260   0.592   4.218  0.8818  0.2470 -1.9424
21605SOL    HW267448   5.372   0.640   4.308 -0.3888 -0.9001  0.3299
21606SOL     OW67449   4.598   4.809   5.116  0.3344  0.6532  0.2225
21606SOL    HW167450   4.625   4.848   5.199  0.6739  1.6041 -0.3100
21606SOL    HW267451   4.576   4.719   5.137 -0.7230  1.1825  1.5788
21607SOL     OW67452   6.941   1.093   9.452  0.2533 -0.1993 -0.2136
21607SOL    HW167453   6.887   1.027   9.495  1.5820 -2.0273 -1.2272
21607SOL    HW267454   6.899   1.176   9.475 -1.4590 -1.3541  1.1414
21608SOL     OW67455   5.363   7.104   1.603  0.2518 -0.5169 -0.3842
21608SOL    HW167456   5.377   7.131   1.693 -0.3220 -1.4012 -0.0184
21608SOL    HW267457   5.276   7.138   1.580  1.3403  1.8463 -1.4627
21609SOL     OW67458   5.588   7.254   8.829  0.1463  0.6987 -0.1142
21609SOL    HW167459   5.625   7.242   8.917 -0.4375  3.1435  0.5502
21609SOL    HW267460   5.494   7.244   8.842 -0.0728  2.4415 -0.1190
21610SOL     OW67461   5.752   8.488   6.018 -0.0024 -0.0570  0.2085
21610SOL    HW167462   5.670   8.467   6.062  0.6104  0.9212  1.9083
21610SOL    HW267463   5.758   8.424   5.947 -2.2373 -0.1192  0.0062
21611SOL     OW67464   7.051   3.615   2.246  0.3656  0.0653 -0.7902
21611SOL    HW167465   7.096   3.531   2.244  0.4889 -0.0381  2.2424
21611SOL    HW267466   6.971   3.599   2.297  0.3818  1.7508 -0.1619
21612SOL     OW67467  10.143   7.687   8.362  0.0975  0.0946 -0.2641
21612SOL    HW167468  10.227   7.729   8.343 -0.4185  1.7290  0.8207
21612SOL    HW267469  10.123   7.636   8.284  1.9098 -0.0239 -0.6892
21613SOL     OW67470   9.934   8.978   0.185 -0.4856  0.2248  0.0033
21613SOL    HW167471  10.003   9.022   0.134 -1.2633  1.6363  0.1300
21613SOL    HW267472   9.852   9.014   0.151 -1.1420 -0.9699  0.2845
21614SOL     OW67473   5.011   1.378   0.783  0.1786  0.4578  0.2975
21614SOL    HW167474   4.979   1.412   0.699 -0.9616  0.9737  0.9244
21614SOL    HW267475   4.945   1.313   0.808  2.0755 -2.0308 -0.6728
21615SOL     OW67476   4.702   3.535   7.295  0.3592 -0.3261  0.3164
21615SOL    HW167477   4.649   3.458   7.315 -0.0892 -0.5133 -1.4295
21615SOL    HW267478   4.751   3.552   7.375 -2.6122  0.1062  2.1668
21616SOL     OW67479   9.710   8.348   1.141  0.1115 -0.4813  0.2552
21616SOL    HW167480   9.728   8.439   1.161 -0.5683 -0.1268 -0.6744
21616SOL    HW267481   9.622   8.332   1.176 -0.6088 -0.1809 -1.3313
21617SOL     OW67482   6.710  10.194   7.908 -0.3791  0.3129  0.6270
21617SOL    HW167483   6.784  10.187   7.969  0.0861  2.1202  0.3227
21617SOL    HW267484   6.745  10.160   7.826 -0.7337 -1.2957  1.1020
21618SOL     OW67485   7.493   0.957   6.667 -0.0458 -0.1920  0.1415
21618SOL    HW167486   7.512   0.916   6.583 -0.0532  0.2110 -0.0581
21618SOL    HW267487   7.573   0.947   6.717 -0.1468 -0.7203  0.2087
21619SOL     OW67488   3.503   0.050   7.252 -0.1383  0.1248 -0.0303
21619SOL    HW167489   3.573   0.107   7.283  0.2677  0.6950 -1.8584
21619SOL    HW267490   3.483   0.083   7.164 -1.1901 -1.3970 -0.3951
21620SOL     OW67491   0.034   4.606   9.099  0.6816  0.3417  0.2072
21620SOL    HW167492   0.127   4.585   9.094  0.8535  0.4230  2.1571
21620SOL    HW267493  -0.002   4.541   9.159 -0.3011  0.9536  0.3038
21621SOL     OW67494   9.680   9.750   0.472  0.1780  0.2108  0.2077
21621SOL    HW167495   9.753   9.744   0.412 -0.3203  0.2293 -0.4106
21621SOL    HW267496   9.708   9.700   0.549  0.2802 -1.0101 -0.5888
21622SOL     OW67497   1.317   9.800   9.328 -0.1630 -0.8496  0.1171
21622SOL    HW167498   1.411   9.819   9.325 -0.0481 -1.5765 -1.7546
21622SOL    HW267499   1.275   9.884   9.310  0.1890 -0.9417 -1.1874
21623SOL     OW67500   9.087   9.495   0.344  0.0400 -0.5527  0.0347
21623SOL    HW167501   9.080   9.591   0.348 -0.4908 -0.6167  1.4174
21623SOL    HW267502   9.052   9.466   0.428  0.2648 -1.9679 -0.3422
21624SOL     OW67503   8.123   3.320   4.702 -0.3820 -0.7889 -0.4382
21624SOL    HW167504   8.158   3.401   4.666 -0.5243  0.4055  1.9367
21624SOL    HW267505   8.028   3.327   4.692 -0.4562 -0.2293  0.5560
21625SOL     OW67506   1.351   2.549   2.561  0.2847 -0.4178  0.0698
21625SOL    HW167507   1.397   2.608   2.620 -1.5781  0.4639  0.7051
21625SOL    HW267508   1.414   2.533   2.490  1.5205  0.8044  0.8325
21626SOL     OW67509   2.574   8.271   0.132 -0.1490 -0.0719 -0.7643
21626SOL    HW167510   2.588   8.354   0.087  0.7786 -0.9227 -2.1164
21626SOL    HW267511   2.565   8.206   0.062 -0.6959 -1.1477  0.2538
21627SOL     OW67512   8.146   5.306   8.669  0.3392  0.4084 -0.0281
21627SOL    HW167513   8.126   5.306   8.763  1.1173 -0.0488  0.1457
21627SOL    HW267514   8.222   5.249   8.661 -0.8515 -1.1104 -1.1800
21628SOL     OW67515   5.840   7.450  10.037  0.6419  0.5572 -0.0851
21628SOL    HW167516   5.826   7.409   9.951  0.9753  1.8526 -0.7716
21628SOL    HW267517   5.758   7.434  10.084  0.4775 -0.2247 -0.6074
21629SOL     OW67518   2.401   0.668   3.738  0.0561 -0.3593  0.6993
21629SOL    HW167519   2.404   0.622   3.654  0.7911 -0.3774  0.7250
21629SOL    HW267520   2.397   0.599   3.804  1.1072 -0.3989  0.7357
21630SOL     OW67521   6.468   7.971   6.875  0.5001  0.3929 -0.7045
21630SOL    HW167522   6.416   8.015   6.942 -2.1878 -2.5499 -0.6450
21630SOL    HW267523   6.476   8.035   6.805  0.1999  2.2789  0.8950
21631SOL     OW67524   8.610   6.813   2.101 -0.5753 -0.0606 -0.4379
21631SOL    HW167525   8.629   6.781   2.189 -0.3396  0.1044 -0.4267
21631SOL    HW267526   8.690   6.794   2.051  0.0229  1.5139 -0.1552
21632SOL     OW67527   3.570   8.736   8.250 -1.0196  0.3012 -0.1141
21632SOL    HW167528   3.543   8.657   8.203 -1.3393 -0.6185  1.5164
21632SOL    HW267529   3.589   8.800   8.182 -0.4582 -1.2784 -1.5006
21633SOL     OW67530   8.043   6.020   3.260 -0.7417 -0.2285 -0.2589
21633SOL    HW167531   8.006   5.935   3.283 -0.4447 -0.6096 -1.1247
21633SOL    HW267532   8.067   6.011   3.168 -0.3613  0.6753 -0.2576
21634SOL     OW67533   7.297   5.281  10.310  0.2036 -0.2115  0.1273
21634SOL    HW167534   7.233   5.250  10.246 -0.0951 -1.2488  0.9024
21634SOL    HW267535   7.263   5.251  10.394  1.9269 -1.1740  0.5257
21635SOL     OW67536   5.648   6.221   3.252  0.4498 -0.2113 -0.0676
21635SOL    HW167537   5.553   6.214   3.267  0.3109  0.1610 -0.7160
21635SOL    HW267538   5.661   6.187   3.163  0.7444  0.8802 -0.4617
21636SOL     OW67539   8.494   6.575   9.374 -0.5918 -0.1035  0.5133
21636SOL    HW167540   8.446   6.492   9.369 -1.1190  0.2720 -2.0389
21636SOL    HW267541   8.444   6.635   9.320  0.8965  1.2982  0.6206
21637SOL     OW67542   4.266   6.592   5.804 -0.1320  0.5010 -0.1202
21637SOL    HW167543   4.202   6.664   5.803 -0.6723  0.0296  0.1442
21637SOL    HW267544   4.277   6.570   5.896  0.1158  0.3116 -0.1930
21638SOL     OW67545   0.951   6.927   6.635  0.1107  0.0120 -0.3420
21638SOL    HW167546   1.025   6.920   6.576 -0.0409 -1.4928 -0.3905
21638SOL    HW267547   0.936   6.838   6.666 -1.7987  0.2323 -0.4911
21639SOL     OW67548   9.140   4.493   7.897 -0.1969 -0.7649 -0.0951
21639SOL    HW167549   9.219   4.545   7.912 -0.6638 -0.3862  1.2222
21639SOL    HW267550   9.106   4.524   7.813  0.7600 -0.5729 -0.4303
21640SOL     OW67551   7.564   3.090  10.154 -0.3456 -0.0299 -0.4080
21640SOL    HW167552   7.491   3.066  10.212  2.1051 -1.0027  2.5354
21640SOL    HW267553   7.551   3.035  10.076 -2.4497 -0.5345  0.2226
21641SOL     OW67554   4.277   4.573   8.977  0.8637 -0.2339 -0.0334
21641SOL    HW167555   4.191   4.540   9.002  1.2288 -0.4391  1.0476
21641SOL    HW267556   4.269   4.668   8.979  0.7701 -0.2487  0.5154
21642SOL     OW67557   0.614   9.083   9.091  0.1114 -0.0750 -0.3466
21642SOL    HW167558   0.673   9.078   9.016  3.0329 -0.5785  1.8054
21642SOL    HW267559   0.607   9.177   9.110  1.5599 -0.0792  0.3049
21643SOL     OW67560   3.227   8.206   8.940  0.0807 -0.4948  0.1542
21643SOL    HW167561   3.219   8.300   8.953 -1.5093 -0.7192  1.0276
21643SOL    HW267562   3.148   8.181   8.892  1.4300 -1.1173 -1.8594
21644SOL     OW67563   0.630   3.407   6.767  0.2194  0.1171 -0.2913
21644SOL    HW167564   0.584   3.347   6.709 -0.5485  0.4022  0.0100
21644SOL    HW267565   0.604   3.494   6.738  0.7698  0.2873 -0.2782
21645SOL     OW67566   6.669   1.348   1.196 -0.0857  0.0827  0.3050
21645SOL    HW167567   6.604   1.322   1.261  1.2671 -0.5822  1.4414
21645SOL    HW267568   6.741   1.384   1.248  0.1567  1.5227 -0.9642
21646SOL     OW67569   2.513   3.226   9.604 -0.2278  0.1109  0.4403
21646SOL    HW167570   2.554   3.303   9.566 -1.0399  0.8121  0.9496
21646SOL    HW267571   2.583   3.160   9.607  0.9570  1.3524  1.5384
21647SOL     OW67572   7.108   8.896   5.001  0.1484 -0.5309 -0.4818
21647SOL    HW167573   7.080   8.870   4.913 -1.6003 -1.0383  0.1862
21647SOL    HW267574   7.059   8.976   5.019  1.4775  0.2959 -0.4501
21648SOL     OW67575   7.763   4.026   4.824 -0.1057 -0.0787 -0.3311
21648SOL    HW167576   7.854   4.026   4.853 -0.6933 -0.7173  1.6731
21648SOL    HW267577   7.748   3.938   4.790 -0.3474 -0.4683  0.7326
21649SOL     OW67578   5.077   3.765   4.189  0.0819 -0.3015 -0.5989
21649SOL    HW167579   4.993   3.746   4.231  1.0432 -1.6111  0.7989
21649SOL    HW267580   5.083   3.700   4.119  0.1285 -0.4953 -0.4158
21650SOL     OW67581   2.391   7.697   4.579  0.5428 -0.5057 -0.6308
21650SOL    HW167582   2.398   7.654   4.495 -0.5522 -0.5173 -0.7388
21650SOL    HW267583   2.316   7.756   4.569  0.2616 -0.6695  0.3914
21651SOL     OW67584   5.429   6.800   5.432  0.1214  0.3375 -0.0899
21651SOL    HW167585   5.336   6.814   5.451  0.6153  1.7377  1.5060
21651SOL    HW267586   5.458   6.738   5.498  0.7612  1.5117  0.7693
21652SOL     OW67587   6.963   1.753   5.791 -0.6926 -0.0693  0.1568
21652SOL    HW167588   7.046   1.801   5.787 -0.1009 -1.0645  0.0596
21652SOL    HW267589   6.896   1.820   5.782  0.0429  0.9773  1.8510
21653SOL     OW67590   1.652   8.689   1.983  0.1644 -0.5245 -0.1483
21653SOL    HW167591   1.623   8.605   2.020  0.0924  0.0882  1.2240
21653SOL    HW267592   1.577   8.747   1.994  0.5692  0.0029 -0.1674
21654SOL     OW67593   4.795   9.703   4.542  0.3873  0.9249  0.0981
21654SOL    HW167594   4.794   9.608   4.542 -1.9866  0.8914 -0.5490
21654SOL    HW267595   4.842   9.727   4.462  1.6098  0.3418  0.6193
21655SOL     OW67596   2.260   8.336   2.731  0.4923 -0.0514  0.5684
21655SOL    HW167597   2.354   8.324   2.736  0.7305  1.6058  0.8790
21655SOL    HW267598   2.248   8.414   2.677 -0.8746 -1.9439 -2.0748
21656SOL     OW67599   6.357   9.785   2.945  0.0181  0.0018 -0.6495
21656SOL    HW167600   6.410   9.719   2.900 -1.9705 -2.4510  0.3271
21656SOL    HW267601   6.277   9.791   2.892 -0.2132  0.9327 -0.2077
21657SOL     OW67602   8.049  10.294   6.801 -0.2231 -0.2123  0.1228
21657SOL    HW167603   7.970  10.289   6.856  1.5995  0.7723  3.0887
21657SOL    HW267604   8.052  10.385   6.772  0.5636  0.1688  1.3261
21658SOL     OW67605   6.130   4.497   5.016 -0.2009 -0.2545 -0.3232
21658SOL    HW167606   6.089   4.476   5.100  0.9686 -0.4447  0.2278
21658SOL    HW267607   6.171   4.582   5.030 -2.2545  1.0319 -1.5687
21659SOL     OW67608   8.376   5.142   3.154  0.4575 -0.3495  0.0029
21659SOL    HW167609   8.440   5.146   3.082  1.5943  1.6707  1.0411
21659SOL    HW267610   8.373   5.231   3.189 -1.1127 -0.9621  1.5906
21660SOL     OW67611   6.812   4.175   1.416  0.1838  0.1293  0.0507
21660SOL    HW167612   6.870   4.109   1.454 -0.2425  0.7801  1.9036
21660SOL    HW267613   6.724   4.138   1.425 -0.0222  0.7785  0.7543
21661SOL     OW67614   1.534   2.971   2.604 -0.5049 -0.2650  0.3314
21661SOL    HW167615   1.538   3.009   2.517 -1.4874 -0.4146  0.2111
21661SOL    HW267616   1.509   3.044   2.661 -0.8769 -0.3912  0.3309
21662SOL     OW67617   0.363   3.493   0.394  1.1098  0.7664  0.8809
21662SOL    HW167618   0.292   3.432   0.373  1.9973 -0.3791  1.1004
21662SOL    HW267619   0.442   3.448   0.364  1.8037  1.7450  1.2179
21663SOL     OW67620   9.330   7.658   2.560 -0.2110  0.1076  0.0789
21663SOL    HW167621   9.393   7.707   2.507  0.6307 -1.3904 -0.3510
21663SOL    HW267622   9.378   7.635   2.640  0.2922 -2.1645 -0.7985
21664SOL     OW67623   6.629   0.840   0.216  0.7980  0.4161 -0.1921
21664SOL    HW167624   6.683   0.909   0.254 -0.4085  1.1288  0.2951
21664SOL    HW267625   6.643   0.764   0.273  2.6623  0.0026 -1.1252
21665SOL     OW67626   8.642   5.605   6.783 -0.3551  0.3471  0.4767
21665SOL    HW167627   8.660   5.522   6.739 -2.1436 -0.0412  0.3725
21665SOL    HW267628   8.562   5.588   6.833  0.6371  1.2853  2.5124
21666SOL     OW67629   0.624   7.671   8.035  0.2372  0.2307  0.1241
21666SOL    HW167630   0.584   7.648   8.119  0.6040 -0.5358  0.0903
21666SOL    HW267631   0.652   7.587   7.998  1.7720  0.7300  0.0868
21667SOL     OW67632   2.430   1.230   5.321 -0.0130 -0.3484  0.3026
21667SOL    HW167633   2.453   1.219   5.229  0.9981 -0.7736  0.6045
21667SOL    HW267634   2.336   1.212   5.324  0.0772 -1.0205 -0.5309
21668SOL     OW67635   0.282   1.998   1.316 -0.8284  0.1605  0.2091
21668SOL    HW167636   0.312   2.059   1.249  0.1030 -1.3469 -0.8087
21668SOL    HW267637   0.359   1.945   1.337 -2.0143 -2.0135 -0.4759
21669SOL     OW67638   9.818   0.376   2.457 -0.5237  0.5110 -0.6450
21669SOL    HW167639   9.804   0.310   2.525 -1.0452  2.4688  1.2646
21669SOL    HW267640   9.909   0.404   2.469  0.4373 -1.3130 -2.9103
21670SOL     OW67641   5.712   3.310   1.801 -0.2992 -0.3157  0.1782
21670SOL    HW167642   5.741   3.269   1.882 -0.2886  0.6447  0.6728
21670SOL    HW267643   5.763   3.267   1.732 -0.3160 -1.1404  0.6747
21671SOL     OW67644   7.877  10.233   3.164 -0.4361 -0.2391  0.9166
21671SOL    HW167645   7.899  10.308   3.108 -0.1846 -0.0599  1.2521
21671SOL    HW267646   7.961  10.191   3.181 -0.5675 -0.5554  0.7964
21672SOL     OW67647   8.568   2.494   6.437  0.1760  0.3979  0.1192
21672SOL    HW167648   8.517   2.575   6.440  1.4457  1.2472 -0.3579
21672SOL    HW267649   8.561   2.464   6.347  2.3788  1.8145 -0.6073
21673SOL     OW67650   6.121   2.887   9.132  0.0829 -0.1885  0.2172
21673SOL    HW167651   6.039   2.853   9.097 -0.0261  0.1996  0.0973
21673SOL    HW267652   6.145   2.958   9.074  0.9656 -0.8568 -0.2635
21674SOL     OW67653   7.291   4.927   4.537 -0.1381 -0.3201  0.9949
21674SOL    HW167654   7.241   4.999   4.573 -0.5296  0.1316 -0.3671
21674SOL    HW267655   7.358   4.908   4.602  1.5781  2.9664  0.3592
21675SOL     OW67656   0.460   6.264   3.201  0.4771 -0.7501 -0.1063
21675SOL    HW167657   0.438   6.336   3.260 -0.3552 -0.9610 -0.1445
21675SOL    HW267658   0.499   6.307   3.124 -0.1918 -0.3255 -0.2132
21676SOL     OW67659   7.719   1.028   7.380 -0.3038  0.2276  0.2801
21676SOL    HW167660   7.725   0.961   7.312 -0.5255 -1.9580  2.2905
21676SOL    HW267661   7.808   1.036   7.415 -0.7211 -0.9112  1.6993
21677SOL     OW67662   3.935  10.081   6.908  0.1709  0.1331 -0.1733
21677SOL    HW167663   4.006  10.143   6.890  2.3971 -1.4285  2.5249
21677SOL    HW267664   3.882  10.125   6.974 -0.1272  0.4067 -0.5865
21678SOL     OW67665   7.285   6.243   5.832  0.1658 -0.4386  0.1069
21678SOL    HW167666   7.354   6.228   5.768  0.9068 -0.4947  0.8902
21678SOL    HW267667   7.300   6.175   5.899  1.2557  1.3740  1.8216
21679SOL     OW67668   2.110   4.377   2.038 -0.4240  0.0794  0.1658
21679SOL    HW167669   2.062   4.398   1.958 -0.6203  1.0933  0.5414
21679SOL    HW267670   2.064   4.423   2.108  0.8657  0.7789  0.5865
21680SOL     OW67671   9.489  10.115   8.026 -0.0236  0.2350 -0.4251
21680SOL    HW167672   9.585  10.124   8.026  0.3110 -2.2578  1.3299
21680SOL    HW267673   9.463  10.141   8.114 -0.9231  0.4207 -0.7371
21681SOL     OW67674   1.624   7.034   8.970  0.2571  0.0700  0.0121
21681SOL    HW167675   1.590   7.031   9.059 -0.2620  0.1507 -0.1789
21681SOL    HW267676   1.643   6.942   8.948  0.7352  0.0888  0.3331
21682SOL     OW67677   1.037   7.936   6.102  0.7004  0.3613 -0.5437
21682SOL    HW167678   1.050   7.921   6.008  1.0845 -2.2459 -0.1527
21682SOL    HW267679   1.024   7.848   6.138  0.5187  1.3142  1.8465
21683SOL     OW67680   8.784   2.228   2.494 -0.1550 -0.3383  0.4098
21683SOL    HW167681   8.812   2.294   2.558 -2.2748 -0.6056  1.7186
21683SOL    HW267682   8.800   2.268   2.409 -0.4264  1.4617  1.1680
21684SOL     OW67683   8.275   7.614   1.822 -0.2861 -0.2102  0.6170
21684SOL    HW167684   8.271   7.658   1.737 -2.0931 -2.8787 -0.8276
21684SOL    HW267685   8.199   7.556   1.823 -0.4731 -0.1805  4.2068
21685SOL     OW67686   1.216   2.846   4.523 -0.3077  0.3991  0.1163
21685SOL    HW167687   1.168   2.768   4.492 -0.4507  0.3416  0.4803
21685SOL    HW267688   1.308   2.820   4.519 -0.4343 -1.0781  3.5485
21686SOL     OW67689   4.295   4.833  10.104  0.2567  0.3744  0.0721
21686SOL    HW167690   4.388   4.853  10.095 -0.1283  2.8082  0.9947
21686SOL    HW267691   4.279   4.829  10.198 -0.3139 -1.6047 -0.0587
21687SOL     OW67692   7.981   8.596   4.817 -0.3126  0.0586 -0.4900
21687SOL    HW167693   7.945   8.507   4.822 -1.9551  0.7148 -0.1980
21687SOL    HW267694   7.918   8.650   4.864  1.0714  1.2784  0.0242
21688SOL     OW67695   6.239   9.599   4.786  0.0345 -0.6685  0.8719
21688SOL    HW167696   6.308   9.563   4.841  0.1796  0.6768  1.6104
21688SOL    HW267697   6.284   9.658   4.726 -0.4610  0.3384  1.4626
21689SOL     OW67698   1.066   0.522   8.690 -0.1826  0.3339  0.1149
21689SOL    HW167699   1.149   0.547   8.730  0.2003  1.0523 -1.0695
21689SOL    HW267700   1.069   0.562   8.603 -1.4911 -0.1813 -0.1832
21690SOL     OW67701  10.179   2.244   6.670 -0.5592 -0.4155 -0.1683
21690SOL    HW167702  10.125   2.292   6.607  0.4196  0.1451 -0.6173
21690SOL    HW267703  10.120   2.223   6.742 -1.6753 -0.9305 -1.1972
21691SOL     OW67704   2.530   5.806   1.733 -0.2874 -0.4795  0.4810
21691SOL    HW167705   2.575   5.777   1.813 -0.8268 -2.5419  0.0824
21691SOL    HW267706   2.596   5.799   1.665  0.1919  1.3442  0.6961
21692SOL     OW67707   8.947   1.873   5.681 -0.1355  0.2303  1.0406
21692SOL    HW167708   8.888   1.923   5.625 -1.0344 -0.5146  1.2913
21692SOL    HW267709   9.001   1.939   5.724 -1.9529  1.0984  2.1264
21693SOL     OW67710   2.815   0.342   8.845  0.0173  0.3609 -0.1991
21693SOL    HW167711   2.766   0.325   8.764 -0.1729  0.0040 -0.0094
21693SOL    HW267712   2.906   0.327   8.822 -0.0848 -0.2386 -0.2129
21694SOL     OW67713   7.918   7.019   4.688  0.4658 -0.0203 -0.6627
21694SOL    HW167714   7.900   6.969   4.768  0.9463  0.7980 -0.0290
21694SOL    HW267715   7.962   7.098   4.719 -0.0687  0.6920 -1.6680
21695SOL     OW67716   3.946   6.296   3.757  0.0961  0.6771  0.2691
21695SOL    HW167717   3.964   6.338   3.841 -1.4353 -0.1413  1.0531
21695SOL    HW267718   3.999   6.217   3.757 -0.7575  0.0827  1.0074
21696SOL     OW67719   2.598   7.275  10.204 -0.1139 -0.2799 -0.4222
21696SOL    HW167720   2.677   7.275  10.258 -0.2820 -0.1907 -0.1734
21696SOL    HW267721   2.564   7.186  10.211 -0.3137 -0.1806 -0.1163
21697SOL     OW67722   6.605   5.672   7.550  0.7429 -0.3627 -0.3999
21697SOL    HW167723   6.550   5.745   7.576 -0.3207 -0.8899 -1.1205
21697SOL    HW267724   6.598   5.610   7.622 -1.4960 -1.4386 -1.4688
21698SOL     OW67725   8.308   6.461   0.940  0.2862  0.1415  0.3093
21698SOL    HW167726   8.359   6.478   1.019  0.1846  0.9866  0.1984
21698SOL    HW267727   8.327   6.370   0.918  1.0248  0.1768  0.7879
21699SOL     OW67728   2.924   7.356   1.807 -0.3164  0.0516  0.2947
21699SOL    HW167729   2.841   7.403   1.810  0.2041  0.9399  1.4839
21699SOL    HW267730   2.900   7.264   1.813 -1.3006  0.1714 -1.1922
21700SOL     OW67731   0.754   4.415   0.414  0.6509 -0.0976 -0.3262
21700SOL    HW167732   0.678   4.361   0.433  0.2425  0.0267 -1.5041
21700SOL    HW267733   0.824   4.379   0.469 -0.1119 -0.5486  0.3664
21701SOL     OW67734   5.164   8.050   1.475 -0.1851  0.1019  0.3871
21701SOL    HW167735   5.096   7.985   1.456 -0.0360  0.3559 -1.1421
21701SOL    HW267736   5.120   8.115   1.529 -1.4251  0.6574 -1.2043
21702SOL     OW67737   6.106   7.799   6.982  0.0106 -0.3345  0.4329
21702SOL    HW167738   6.056   7.738   6.928  0.8368 -1.5607  1.0070
21702SOL    HW267739   6.191   7.757   6.993 -0.0960 -0.0747  2.5819
21703SOL     OW67740   2.390   8.086   9.320 -0.5333 -0.4101  0.1092
21703SOL    HW167741   2.364   7.996   9.339  0.6259 -1.3637 -2.3619
21703SOL    HW267742   2.327   8.116   9.255 -0.0996  0.0884 -0.0913
21704SOL     OW67743  10.295   6.433   9.053  0.4022 -0.3906  0.0064
21704SOL    HW167744  10.233   6.360   9.059 -0.7514  0.3524 -1.9745
21704SOL    HW267745  10.380   6.392   9.068 -0.3003 -1.9452  0.0140
21705SOL     OW67746   0.190   2.295   9.084 -0.0095  0.5753 -0.0710
21705SOL    HW167747   0.263   2.353   9.060  0.4394  1.3664  2.7638
21705SOL    HW267748   0.231   2.210   9.097  0.1601  0.6892  0.1525
21706SOL     OW67749   5.615   6.722   9.858 -0.0422 -0.1205  0.1070
21706SOL    HW167750   5.546   6.673   9.901  0.1497 -0.4671  0.0279
21706SOL    HW267751   5.569   6.789   9.808 -0.3137 -0.2743  0.1463
21707SOL     OW67752   7.337   6.279   1.395  0.4140 -0.0430  0.6320
21707SOL    HW167753   7.268   6.270   1.329  0.4677 -1.8810  0.7965
21707SOL    HW267754   7.361   6.190   1.418  2.0576  0.5568  1.4313
21708SOL     OW67755   4.156   5.999   9.106 -0.1571  0.9098  0.0241
21708SOL    HW167756   4.165   6.016   9.199 -0.0411 -0.2331  0.2398
21708SOL    HW267757   4.235   6.037   9.067  0.0799  0.8812  0.4691
21709SOL     OW67758   7.027   3.099   2.738 -0.1402  0.5492  0.9241
21709SOL    HW167759   6.974   3.055   2.671  2.3392 -0.5000 -0.5130
21709SOL    HW267760   7.063   3.175   2.693 -1.4102  2.0300  2.2896
21710SOL     OW67761   0.310   9.440   9.047 -0.5769  0.0399 -0.2863
21710SOL    HW167762   0.316   9.371   8.981  1.6956  0.5084 -0.6402
21710SOL    HW267763   0.350   9.516   9.005 -1.6817  1.1702  0.6444
21711SOL     OW67764   9.754   8.236   2.188 -0.4680 -0.1013  0.2398
21711SOL    HW167765   9.695   8.288   2.242 -1.6009 -3.1367  2.1540
21711SOL    HW267766   9.710   8.231   2.103 -2.0480 -0.6584  1.0472
21712SOL     OW67767   0.183   2.859   8.755 -0.2383  0.4656 -0.1559
21712SOL    HW167768   0.271   2.866   8.719  0.6849  0.3373  1.9391
21712SOL    HW267769   0.156   2.949   8.772 -0.3552  0.4838 -0.4370
21713SOL     OW67770   2.976   7.010   5.727  0.2623 -0.4988  0.0499
21713SOL    HW167771   3.069   6.989   5.728 -0.1410 -2.5973  2.0510
21713SOL    HW267772   2.938   6.949   5.664  0.1430  0.0699 -0.4460
21714SOL     OW67773   9.401   6.064   1.116 -0.6523  0.3066  0.1257
21714SOL    HW167774   9.382   6.006   1.042 -2.0509  2.3408 -1.2264
21714SOL    HW267775   9.378   6.151   1.084  0.6872  1.5411  2.2943
21715SOL     OW67776   7.808   9.894   1.526  0.5493 -0.0083  0.1153
21715SOL    HW167777   7.731   9.929   1.572  0.8290 -0.0360  0.6106
21715SOL    HW267778   7.828   9.813   1.572  0.0947 -0.6741 -0.8277
21716SOL     OW67779   2.972   7.538   6.275  0.3531 -0.0309 -0.0459
21716SOL    HW167780   2.984   7.618   6.223 -0.2540 -0.0065 -0.1514
21716SOL    HW267781   3.061   7.506   6.291  0.6035  0.6978  0.0468
21717SOL     OW67782   0.336   2.817   5.074 -0.4206  0.3064 -0.5350
21717SOL    HW167783   0.355   2.904   5.110  1.4779  0.4747 -1.7603
21717SOL    HW267784   0.423   2.782   5.052 -0.9134 -2.8757  2.0003
21718SOL     OW67785   7.987   4.435   4.786  0.1321  0.0313 -0.1566
21718SOL    HW167786   7.969   4.505   4.724 -1.7169  0.0964  0.4118
21718SOL    HW267787   7.927   4.450   4.859  1.7841 -0.4300  1.3765
21719SOL     OW67788   8.428   1.421   4.077  0.0656 -0.0473  0.2323
21719SOL    HW167789   8.501   1.451   4.131 -0.0323  1.1835 -0.2875
21719SOL    HW267790   8.375   1.499   4.062  0.7436 -0.0294 -2.6750
21720SOL     OW67791   9.934   2.746   2.534  0.6272  0.5887  0.3990
21720SOL    HW167792   9.899   2.786   2.455  0.9735  0.9946  0.4441
21720SOL    HW267793   9.875   2.774   2.604  0.3081  0.2107  0.2825
21721SOL     OW67794   8.898   8.988   9.844 -0.7757 -0.1590  0.4638
21721SOL    HW167795   8.977   8.957   9.890 -0.8121  1.9012  2.0844
21721SOL    HW267796   8.839   8.913   9.846  0.3405 -1.0688  1.1724
21722SOL     OW67797   8.407   5.729  10.332  0.2580  0.3409  0.2463
21722SOL    HW167798   8.411   5.634  10.346 -0.2808  0.5472  1.9335
21722SOL    HW267799   8.490   5.762  10.365  0.3388  0.4912 -0.1026
21723SOL     OW67800   9.419   1.677   0.017  0.1780 -0.5218 -0.1374
21723SOL    HW167801   9.336   1.630   0.015 -1.7042  2.3430  1.9531
21723SOL    HW267802   9.471   1.631   0.084 -1.0125 -0.5604  0.8030
21724SOL     OW67803   4.361   8.532   7.549  0.2716 -0.3143  0.4199
21724SOL    HW167804   4.307   8.478   7.491  2.3093 -1.6639 -0.3265
21724SOL    HW267805   4.441   8.548   7.499  1.6314 -0.5464  2.4163
21725SOL     OW67806  10.061   9.356   0.633 -0.4082  0.2624  0.5949
21725SOL    HW167807   9.986   9.331   0.688 -0.6798  0.3060  0.2524
21725SOL    HW267808  10.027   9.425   0.577 -0.5953 -0.8484 -0.7167
21726SOL     OW67809   5.476   2.955   8.647 -0.3755  0.1191  0.3691
21726SOL    HW167810   5.404   2.904   8.609  0.8000 -0.1870 -1.5886
21726SOL    HW267811   5.471   3.039   8.603 -0.4936  0.6874  1.4297
21727SOL     OW67812   0.096   0.563   5.950  0.5365  0.1802  0.1266
21727SOL    HW167813   0.084   0.550   6.044  0.0968 -1.5479 -0.1403
21727SOL    HW267814   0.010   0.588   5.917  0.0477 -1.6991 -0.1581
21728SOL     OW67815   4.541   2.496   1.034 -0.2925  0.2824  0.3832
21728SOL    HW167816   4.622   2.542   1.012 -0.5123  0.3375 -0.3297
21728SOL    HW267817   4.568   2.429   1.097  0.2230  0.6216  0.5297
21729SOL     OW67818   7.550   6.802   4.034  0.7289  0.0157 -0.3166
21729SOL    HW167819   7.504   6.840   3.960  0.4745 -0.9280 -0.6511
21729SOL    HW267820   7.486   6.803   4.105  0.1537 -1.3113 -0.7859
21730SOL     OW67821   0.784   6.551   0.601  0.0116 -0.2105 -0.0288
21730SOL    HW167822   0.695   6.583   0.590 -0.5520 -1.3311  1.0607
21730SOL    HW267823   0.808   6.515   0.515  0.5259  2.6111 -1.1880
21731SOL     OW67824   6.931   4.333   7.516  0.6054 -0.2668 -0.3232
21731SOL    HW167825   6.842   4.326   7.482 -0.6238  1.2954  2.2003
21731SOL    HW267826   6.969   4.407   7.469  0.0349 -0.0415 -0.4382
21732SOL     OW67827   5.875   4.241   5.234 -0.1422 -0.5135  0.0281
21732SOL    HW167828   5.863   4.196   5.151  1.7867  1.0655 -1.2050
21732SOL    HW267829   5.935   4.185   5.284 -0.5609 -1.0113 -0.0284
21733SOL     OW67830   3.352   8.262   8.290  0.2525  0.0538  0.8272
21733SOL    HW167831   3.290   8.319   8.336 -1.1598 -0.8550  0.1408
21733SOL    HW267832   3.338   8.175   8.328  1.1415 -0.1596  0.6873
21734SOL     OW67833   6.141   7.367   4.443  0.3226 -0.2233  0.2354
21734SOL    HW167834   6.226   7.385   4.405  1.6556 -2.4455  1.8803
21734SOL    HW267835   6.123   7.442   4.500  1.4829 -0.0193  0.3411
21735SOL     OW67836   9.178   3.437   0.933  0.6974 -0.6497 -0.2290
21735SOL    HW167837   9.245   3.504   0.921  1.5786 -1.6236 -0.8644
21735SOL    HW267838   9.212   3.360   0.888 -0.8446 -1.1765 -0.5557
21736SOL     OW67839   9.778   5.262   8.256  0.2735 -0.0422 -0.1357
21736SOL    HW167840   9.793   5.209   8.178 -0.6409 -3.6133  1.9286
21736SOL    HW267841   9.866   5.277   8.291  0.4809 -2.9076  0.8119
21737SOL     OW67842   2.881   1.368   7.053 -0.1492  0.8092 -0.2614
21737SOL    HW167843   2.894   1.419   6.973  0.1106  0.1515 -0.6472
21737SOL    HW267844   2.819   1.299   7.029  1.8592 -0.9716 -0.6447
21738SOL     OW67845   6.695   7.884   3.345  0.1222 -0.5876 -0.1134
21738SOL    HW167846   6.702   7.948   3.275  1.0310  0.8602  1.2327
21738SOL    HW267847   6.779   7.837   3.344  1.1137  1.0294  1.4126
21739SOL     OW67848  10.170   9.985   0.504 -0.5674  0.2549  0.0020
21739SOL    HW167849  10.264   9.969   0.515 -0.7309  0.3377  1.8246
21739SOL    HW267850  10.159  10.078   0.522 -0.9101  0.4047 -0.9574
21740SOL     OW67851   4.354   1.068   5.119 -0.6741  0.1280 -0.3490
21740SOL    HW167852   4.378   1.004   5.186 -1.7486  0.1958  0.1257
21740SOL    HW267853   4.314   1.017   5.049 -0.6308  0.1801 -0.4120
21741SOL     OW67854   8.369   9.070   9.291  0.2951  0.1704  0.2379
21741SOL    HW167855   8.462   9.090   9.283  0.6213 -1.3840 -0.2507
21741SOL    HW267856   8.341   9.117   9.369  1.5544  0.4509  0.5418
21742SOL     OW67857   7.966   4.627   6.543  0.3298  0.2020  0.5888
21742SOL    HW167858   7.916   4.664   6.470 -1.9737 -1.5422  1.1691
21742SOL    HW267859   7.959   4.693   6.613 -0.1465  0.4933  0.2707
21743SOL     OW67860   9.811   9.227   5.289 -0.4060  0.0190 -0.5405
21743SOL    HW167861   9.831   9.169   5.216 -0.6283  0.6166 -1.0813
21743SOL    HW267862   9.715   9.228   5.294 -0.3905 -0.9586  0.5311
21744SOL     OW67863   3.505   2.365   8.775  0.6866  0.0753  0.3631
21744SOL    HW167864   3.546   2.398   8.855 -2.9775  0.7572  2.1403
21744SOL    HW267865   3.505   2.439   8.715 -0.0876  0.8189  1.2558
21745SOL     OW67866   6.189   9.622   2.496 -0.4101 -0.0173 -0.0107
21745SOL    HW167867   6.268   9.568   2.495 -0.8293 -0.6609 -1.7585
21745SOL    HW267868   6.117   9.560   2.497 -0.9685  0.5641  2.3970
21746SOL     OW67869   0.317   9.350   5.039  0.4593  0.1838  0.5094
21746SOL    HW167870   0.401   9.378   5.002 -0.0573  0.5819 -0.3860
21746SOL    HW267871   0.276   9.432   5.068  1.2547 -0.1722  2.9374
21747SOL     OW67872   3.410   7.425   3.054 -0.3967 -0.0958  0.3461
21747SOL    HW167873   3.428   7.499   2.995 -1.8101 -0.1898 -0.2443
21747SOL    HW267874   3.494   7.378   3.059 -0.0314  0.3428 -0.9934
21748SOL     OW67875   0.590   8.644   6.137 -0.4121 -0.2730 -0.2177
21748SOL    HW167876   0.588   8.683   6.224  2.5902 -0.5640  0.0860
21748SOL    HW267877   0.557   8.555   6.149 -0.4567 -0.1607  0.5086
21749SOL     OW67878   2.337   0.179   9.352  0.3111 -0.0081  0.2206
21749SOL    HW167879   2.344   0.090   9.318 -0.4811  0.2363 -0.6270
21749SOL    HW267880   2.427   0.208   9.364  0.6983  0.1307 -2.3843
21750SOL     OW67881   8.779   6.904   1.465 -0.4957  0.2139  0.6903
21750SOL    HW167882   8.760   6.904   1.371  0.9567  0.5058  0.3831
21750SOL    HW267883   8.873   6.918   1.471 -0.7187  1.2972  2.2316
21751SOL     OW67884   9.814   2.386   3.570  0.0906  0.3299  0.0469
21751SOL    HW167885   9.729   2.378   3.612 -0.6908 -1.3455 -1.7257
21751SOL    HW267886   9.811   2.471   3.526 -1.1386 -0.1683 -0.9002
21752SOL     OW67887   4.985   9.980   4.394  0.0420  0.1841  0.0330
21752SOL    HW167888   4.952   9.895   4.366 -0.3174 -0.2363  1.6773
21752SOL    HW267889   5.077   9.964   4.414  0.1840  0.3847 -0.4384
21753SOL     OW67890   9.158  10.291   0.502 -0.3944  0.1043 -0.0657
21753SOL    HW167891   9.230  10.354   0.503  0.1336 -0.4737 -0.4767
21753SOL    HW267892   9.080  10.344   0.488 -0.3282  0.9834  2.4552
21754SOL     OW67893   2.102   8.488   4.294  0.0167  0.1411 -0.3683
21754SOL    HW167894   2.087   8.542   4.371  0.7657 -0.5667  0.2972
21754SOL    HW267895   2.090   8.398   4.325  2.3454 -0.2865 -0.5306
21755SOL     OW67896   2.266   4.924   8.602  0.1674 -0.0218  0.0123
21755SOL    HW167897   2.182   4.917   8.646  1.3136 -1.0363  2.2226
21755SOL    HW267898   2.317   4.850   8.635  1.8860  0.4732 -1.3565
21756SOL     OW67899   8.151   2.500   6.462 -0.5134  0.0552 -0.2371
21756SOL    HW167900   8.073   2.515   6.516 -0.1534 -1.6226  0.8031
21756SOL    HW267901   8.117   2.471   6.378 -1.0307 -1.0142  0.3240
21757SOL     OW67902   9.684   3.289   6.935 -0.4019 -0.1603  0.1728
21757SOL    HW167903   9.638   3.206   6.921 -0.4177 -0.1474  0.1481
21757SOL    HW267904   9.616   3.356   6.922 -0.3894 -0.1436  0.1942
21758SOL     OW67905   7.988   0.363   9.625 -0.4460 -0.5443 -0.4092
21758SOL    HW167906   8.027   0.361   9.712  2.0739 -0.9452 -1.4727
21758SOL    HW267907   7.894   0.370   9.642  0.0119  0.4538  2.3098
21759SOL     OW67908   0.392   2.445   1.172  0.4409 -0.4333 -0.6103
21759SOL    HW167909   0.440   2.491   1.104  0.2464  0.4417 -0.1754
21759SOL    HW267910   0.311   2.496   1.183 -0.2011 -1.3888 -0.7369
21760SOL     OW67911   3.870   3.767   3.325 -0.3728 -0.4042  0.5765
21760SOL    HW167912   3.861   3.675   3.347  1.3862 -0.9210 -0.6265
21760SOL    HW267913   3.927   3.768   3.247  1.3956  1.7751  1.7577
21761SOL     OW67914   9.792   3.999   0.560  0.1289 -0.4424 -0.3088
21761SOL    HW167915   9.812   3.930   0.497  0.7238  0.3840 -1.0632
21761SOL    HW267916   9.819   4.080   0.515 -0.5788  0.2762  0.5308
21762SOL     OW67917   9.329  10.085   1.834 -0.0595  0.5992  0.4724
21762SOL    HW167918   9.321  10.097   1.929 -1.3903 -0.3669  0.4987
21762SOL    HW267919   9.348  10.173   1.801 -0.3733  1.0870  1.5541
21763SOL     OW67920   1.641   9.452   7.075 -0.0987 -0.1931 -0.1268
21763SOL    HW167921   1.560   9.495   7.048 -0.9093 -1.2911  0.4742
21763SOL    HW267922   1.689   9.438   6.994  0.1207  1.6393 -0.3665
21764SOL     OW67923   5.928   4.134   4.290 -0.4438  0.1602  0.8201
21764SOL    HW167924   5.996   4.067   4.279 -0.3236  0.6325 -1.8869
21764SOL    HW267925   5.874   4.100   4.361  1.0316 -1.5868  1.2056
21765SOL     OW67926   9.752   7.199   2.607 -0.2554 -0.0066  0.5096
21765SOL    HW167927   9.685   7.215   2.539 -0.1749 -0.5635  0.2957
21765SOL    HW267928   9.709   7.224   2.689 -0.4179  0.4965  0.2778
21766SOL     OW67929   8.033   7.429   0.887 -0.7584 -0.6431 -0.0666
21766SOL    HW167930   8.015   7.335   0.881  0.5638 -0.9436  0.2759
21766SOL    HW267931   8.127   7.436   0.872 -0.5498  0.4399  1.5194
21767SOL     OW67932   7.403   5.338   2.872 -0.1240 -0.6354 -0.4319
21767SOL    HW167933   7.403   5.295   2.957 -0.0487 -1.5472 -0.8807
21767SOL    HW267934   7.327   5.396   2.874 -0.4344 -1.0500  0.0626
21768SOL     OW67935   0.961  10.073   9.611 -0.0932 -0.4657 -0.3119
21768SOL    HW167936   0.949  10.165   9.635  0.0045 -0.4713 -0.2364
21768SOL    HW267937   0.925  10.065   9.523 -2.1637 -0.8363  0.4901
21769SOL     OW67938   8.043   9.501   4.103  0.4217 -0.1747 -0.2021
21769SOL    HW167939   8.124   9.490   4.054  0.6139  1.1210 -0.2032
21769SOL    HW267940   8.006   9.583   4.071  0.7278  0.9117  2.0310
21770SOL     OW67941   5.144   4.493   5.966 -0.0161  0.3263 -0.6767
21770SOL    HW167942   5.176   4.578   5.996  0.5496 -0.5768  1.4892
21770SOL    HW267943   5.058   4.484   6.009  0.3533 -0.5812 -0.1093
21771SOL     OW67944   9.682   8.094   5.091 -0.5472  0.8735 -0.1888
21771SOL    HW167945   9.612   8.047   5.135 -1.7048  1.5281 -1.2700
21771SOL    HW267946   9.663   8.186   5.108 -0.2887  1.0808 -0.9975
21772SOL     OW67947   3.415   4.555   2.339 -0.3338  0.2839  0.4183
21772SOL    HW167948   3.495   4.570   2.389  1.7768 -0.5417 -2.4176
21772SOL    HW267949   3.407   4.460   2.333 -0.0988  0.3407 -1.3309
21773SOL     OW67950   9.984   5.733   4.137 -0.0236 -0.0810  0.0682
21773SOL    HW167951  10.018   5.809   4.184  1.3007 -1.0334  0.7148
21773SOL    HW267952  10.054   5.668   4.142 -1.0773 -1.3191 -0.5579
21774SOL     OW67953   2.579   4.220   5.995 -0.2454 -0.3174 -0.1816
21774SOL    HW167954   2.509   4.280   5.970  1.0718  1.2739 -0.2378
21774SOL    HW267955   2.534   4.142   6.028 -2.0340  0.8505  0.2610
21775SOL     OW67956   1.955   6.658   0.372  0.4348  0.3131 -0.1852
21775SOL    HW167957   1.921   6.572   0.395  0.8447 -0.0590 -0.9420
21775SOL    HW267958   1.913   6.679   0.288  0.9154  0.5127 -0.3784
21776SOL     OW67959   8.792   6.633   4.263 -0.0242  0.0224 -0.0972
21776SOL    HW167960   8.777   6.542   4.288 -1.3656  0.1163 -0.4934
21776SOL    HW267961   8.814   6.677   4.345  2.5204 -0.9854 -0.1572
21777SOL     OW67962   1.218   8.610   9.686  0.5732  0.0862  0.5060
21777SOL    HW167963   1.306   8.632   9.717  2.9556 -2.5589 -3.4624
21777SOL    HW267964   1.193   8.533   9.736  0.3274  1.0325  1.8733
21778SOL     OW67965   2.555   0.027   0.670  0.0109 -0.0599 -0.1327
21778SOL    HW167966   2.529   0.098   0.612  0.9362 -1.2035 -2.0450
21778SOL    HW267967   2.637   0.056   0.709  0.8219 -0.3597 -1.5448
21779SOL     OW67968   8.389   6.297   4.732 -0.0193 -0.3460  0.4748
21779SOL    HW167969   8.295   6.296   4.718  0.1504 -0.8980 -0.7855
21779SOL    HW267970   8.411   6.389   4.743 -0.8509 -0.3024  2.0342
21780SOL     OW67971   7.210   9.745   5.651 -0.3439  0.0046 -0.3107
21780SOL    HW167972   7.171   9.806   5.588 -0.0123  0.0504 -0.4737
21780SOL    HW267973   7.135   9.701   5.691 -0.5779  0.4322 -0.2813
21781SOL     OW67974   3.130   4.214   8.614 -0.5800  0.1600  0.2534
21781SOL    HW167975   3.169   4.141   8.664  0.4819  0.2774 -0.3773
21781SOL    HW267976   3.191   4.287   8.627 -2.0466  1.2124  1.5421
21782SOL     OW67977   3.892   0.352   9.165  0.1331 -0.1049 -0.2768
21782SOL    HW167978   3.905   0.442   9.135 -0.3800 -0.1165 -0.5502
21782SOL    HW267979   3.879   0.301   9.085  0.7287 -0.4812 -0.1409
21783SOL     OW67980   1.942   1.554   1.237 -0.3089  0.2046 -0.1206
21783SOL    HW167981   1.920   1.603   1.158 -0.6980 -0.1945 -0.2666
21783SOL    HW267982   1.858   1.522   1.270 -0.7242  3.6368  2.7051
21784SOL     OW67983   2.872   6.929   8.816 -0.0377 -0.4058  0.3962
21784SOL    HW167984   2.863   6.935   8.911 -0.8043 -0.7095  0.3495
21784SOL    HW267985   2.918   6.846   8.801  0.6106 -0.0792  0.5188
21785SOL     OW67986   8.827   9.042   6.192  0.2613  0.1886  0.1931
21785SOL    HW167987   8.816   8.978   6.262 -0.3476 -0.9606 -0.9110
21785SOL    HW267988   8.808   9.126   6.234 -1.6112 -0.6120  1.0888
21786SOL     OW67989   0.717   7.607   1.916 -0.1324 -0.1562  0.0074
21786SOL    HW167990   0.702   7.677   1.852 -1.4954 -1.2289 -0.9059
21786SOL    HW267991   0.632   7.564   1.925  0.4883 -1.2075  1.1396
21787SOL     OW67992   0.625   1.615   3.455 -0.8412 -0.0713  0.7942
21787SOL    HW167993   0.554   1.665   3.414 -0.8504 -2.2081 -2.0700
21787SOL    HW267994   0.704   1.664   3.434 -1.0024 -0.3560 -0.5161
21788SOL     OW67995   1.696   3.649   7.654 -0.1995  0.2335  0.0745
21788SOL    HW167996   1.780   3.659   7.700  0.5257 -0.3110 -1.0880
21788SOL    HW267997   1.720   3.650   7.562 -1.3913 -0.7699 -0.2584
21789SOL     OW67998   2.899   5.168   3.022 -0.4037 -0.4911  0.0306
21789SOL    HW167999   2.898   5.149   2.928 -1.6743  0.9867 -0.2880
21789SOL    HW268000   2.916   5.083   3.063  1.3205 -0.9709 -1.5499
21790SOL     OW68001   6.458   7.735   3.862 -0.1408 -0.1523 -0.3459
21790SOL    HW168002   6.470   7.748   3.768  0.3503  0.0622 -0.2588
21790SOL    HW268003   6.538   7.769   3.901 -0.6857  0.5051  0.2170
21791SOL     OW68004   1.686   4.618   2.073  0.0707  0.1751 -0.0997
21791SOL    HW168005   1.764   4.655   2.115  1.3023 -0.2570 -1.8897
21791SOL    HW268006   1.694   4.644   1.982 -2.1203  0.4377 -0.2641
21792SOL     OW68007   5.234   3.073   7.675  0.5683 -0.1276  0.0126
21792SOL    HW168008   5.201   2.988   7.703  2.8942 -0.7003  1.3043
21792SOL    HW268009   5.223   3.074   7.580  0.9146 -2.0647 -0.0704
21793SOL     OW68010   1.515   7.475   3.307 -0.2831  0.6342  0.0763
21793SOL    HW168011   1.473   7.389   3.298 -0.3709  0.6376  0.4459
21793SOL    HW268012   1.458   7.523   3.366  0.9021  0.2031  1.6368
21794SOL     OW68013   9.343   1.165   4.272  0.2986  0.0851 -0.1079
21794SOL    HW168014   9.417   1.184   4.330 -1.2078  0.5792  1.7446
21794SOL    HW268015   9.266   1.174   4.328 -1.1220 -1.5609 -1.6959
21795SOL     OW68016   7.621   2.005   3.717  0.0902 -0.1970 -0.6070
21795SOL    HW168017   7.568   2.072   3.759  2.6176  0.7925  1.2510
21795SOL    HW268018   7.643   2.043   3.631 -1.4766 -0.3012 -1.0886
21796SOL     OW68019   4.214   2.776   2.055  0.8110 -0.2039 -0.6523
21796SOL    HW168020   4.236   2.790   2.147  0.6407 -0.6071 -0.5469
21796SOL    HW268021   4.238   2.858   2.012 -0.7737  0.6562  0.0363
21797SOL     OW68022   6.320   7.458   0.917 -0.1412  0.4563 -0.0178
21797SOL    HW168023   6.260   7.401   0.966 -1.7779  0.6040 -1.7545
21797SOL    HW268024   6.349   7.404   0.843  0.6182  0.9335 -0.0758
21798SOL     OW68025   6.528   4.858   2.281  0.3557  0.0074  0.5145
21798SOL    HW168026   6.488   4.895   2.202  1.7468  1.1868  0.3217
21798SOL    HW268027   6.612   4.823   2.252  1.1280  0.9342  1.5220
21799SOL     OW68028   4.322   6.140   7.255 -0.6214 -0.4542 -0.0442
21799SOL    HW168029   4.380   6.127   7.180 -0.3742 -1.7786  0.3374
21799SOL    HW268030   4.378   6.178   7.322 -1.1618  2.0548 -0.9250
21800SOL     OW68031  10.059   7.208   7.517  0.1912 -0.4385  0.2921
21800SOL    HW168032  10.009   7.156   7.580  0.1560 -1.4177 -0.5141
21800SOL    HW268033  10.148   7.212   7.553  0.5770 -2.3587 -0.3321
21801SOL     OW68034   2.979   3.221   7.234  0.0471  0.4042 -0.1628
21801SOL    HW168035   3.067   3.253   7.214 -0.1717  0.4719 -1.0634
21801SOL    HW268036   2.920   3.283   7.191 -0.4219 -0.0756 -0.2370
21802SOL     OW68037   7.266   8.925   7.618 -0.9970  0.4068  0.6060
21802SOL    HW168038   7.340   8.986   7.625  0.5390 -1.1469 -0.9197
21802SOL    HW268039   7.298   8.844   7.657 -1.1484 -0.8350 -1.6521
21803SOL     OW68040   0.869   3.531   7.568  0.3232  0.1645  0.7139
21803SOL    HW168041   0.916   3.614   7.558 -0.4918  0.3364 -2.7014
21803SOL    HW268042   0.933   3.463   7.548  0.6795 -0.0517  2.3790
21804SOL     OW68043   6.731   6.966   2.667 -0.5804  0.3831  0.1926
21804SOL    HW168044   6.654   6.984   2.722 -0.5141  1.9662 -0.1684
21804SOL    HW268045   6.769   6.887   2.704 -0.7463  1.1805  2.2164
21805SOL     OW68046   7.291   3.479   4.212 -0.3004  0.5511 -0.5852
21805SOL    HW168047   7.241   3.430   4.146  0.3812 -2.4623  0.9795
21805SOL    HW268048   7.224   3.521   4.266 -1.0380 -0.3246 -0.7837
21806SOL     OW68049   9.255   2.573   6.374 -0.3450 -0.3885  0.3218
21806SOL    HW168050   9.259   2.480   6.395  0.5553 -0.7172 -1.1905
21806SOL    HW268051   9.265   2.577   6.279  3.2286  1.4226  0.6017
21807SOL     OW68052   1.884   4.700   8.528  0.1180 -0.0883  0.4671
21807SOL    HW168053   1.931   4.737   8.453 -1.7757  0.8971 -0.2943
21807SOL    HW268054   1.842   4.775   8.569 -1.7022 -1.0363  0.4274
21808SOL     OW68055   3.328   7.439   9.717 -0.1313 -0.0011  0.0490
21808SOL    HW168056   3.358   7.396   9.636 -0.6607 -0.4340  0.0776
21808SOL    HW268057   3.376   7.395   9.787 -0.0643  0.0108  0.0107
21809SOL     OW68058   4.613   7.790   4.132 -0.3327  0.3324 -0.4474
21809SOL    HW168059   4.556   7.727   4.089 -1.4657  1.9493 -1.4290
21809SOL    HW268060   4.585   7.790   4.223 -0.1041 -0.7631 -0.3611
21810SOL     OW68061   3.389   1.035   2.826 -0.3242 -0.1885  0.2149
21810SOL    HW168062   3.372   0.946   2.857 -1.2715  0.2564  1.0348
21810SOL    HW268063   3.422   1.081   2.903  0.9581 -0.0227 -0.4091
21811SOL     OW68064   6.811   9.719   8.983 -0.0494  0.9238 -0.1090
21811SOL    HW168065   6.834   9.775   8.909  0.8456 -0.2330 -0.7340
21811SOL    HW268066   6.878   9.650   8.983 -1.2837 -0.3204  0.4470
21812SOL     OW68067   5.367   4.170   5.205  0.0708  0.3663 -0.8149
21812SOL    HW168068   5.299   4.104   5.221  0.5454  0.1879  0.5148
21812SOL    HW268069   5.357   4.191   5.112 -0.7689 -0.8124 -1.0187
21813SOL     OW68070   0.476   4.919   5.739  0.5097 -0.5916  0.1657
21813SOL    HW168071   0.395   4.870   5.726  0.6652 -0.4751 -1.5623
21813SOL    HW268072   0.543   4.852   5.754  0.4372 -0.8315 -0.5362
21814SOL     OW68073   7.451   5.629   8.054  0.5751 -0.0365 -0.3995
21814SOL    HW168074   7.438   5.708   8.001 -0.3367 -0.3849 -0.7266
21814SOL    HW268075   7.364   5.589   8.057  0.5579  0.0668  1.5218
21815SOL     OW68076   3.320   5.824   5.149  0.2541  0.3423 -0.1014
21815SOL    HW168077   3.254   5.767   5.189  0.2644 -0.8275 -1.6778
21815SOL    HW268078   3.396   5.768   5.135  0.3476  0.7632 -1.4800
21816SOL     OW68079   1.224   0.265   7.284 -0.5803 -0.1228  0.5244
21816SOL    HW168080   1.144   0.311   7.255  0.0101  0.5727 -0.0497
21816SOL    HW268081   1.240   0.299   7.372  0.0568  1.0894 -0.0360
21817SOL     OW68082   6.745   4.467   3.209  0.1368 -0.1315 -0.5887
21817SOL    HW168083   6.738   4.430   3.297 -0.8351  1.0058 -0.1737
21817SOL    HW268084   6.656   4.461   3.173  0.0985  1.1410 -0.7603
21818SOL     OW68085   5.371   2.481   0.890  0.2848 -0.2027  0.3053
21818SOL    HW168086   5.310   2.472   0.817  1.4304 -0.9980 -0.5930
21818SOL    HW268087   5.412   2.566   0.877  0.0129 -0.0526  0.4129
21819SOL     OW68088   5.523   0.897   5.456 -0.0575 -0.2757 -0.6873
21819SOL    HW168089   5.615   0.895   5.430  0.6660 -0.3403  1.6721
21819SOL    HW268090   5.524   0.906   5.551 -2.5058 -1.0845 -0.4963
21820SOL     OW68091  10.106   9.464   1.899 -0.0858  0.0930  0.4428
21820SOL    HW168092  10.026   9.512   1.880 -0.0947  0.5861  1.6287
21820SOL    HW268093  10.176   9.528   1.890  0.1104 -0.1643  0.1015
21821SOL     OW68094   6.784   1.052   8.548 -0.0907 -0.1609 -0.3214
21821SOL    HW168095   6.807   0.961   8.532 -1.5567 -0.6319  0.1293
21821SOL    HW268096   6.868   1.098   8.553  0.6239 -1.0110 -3.1569
21822SOL     OW68097   9.249   8.538   1.467  0.5687 -0.2477 -0.0466
21822SOL    HW168098   9.308   8.568   1.398  1.3462  0.8878  1.0742
21822SOL    HW268099   9.301   8.473   1.515  0.6566  0.2415  0.5187
21823SOL     OW68100   5.574   8.270   7.943  0.1405 -0.1990 -0.3266
21823SOL    HW168101   5.641   8.327   7.980 -0.7018  0.7616 -0.2556
21823SOL    HW268102   5.549   8.312   7.861 -0.8916 -0.1609 -0.0003
21824SOL     OW68103   5.888   1.105   1.241 -0.0902 -0.1024 -0.7641
21824SOL    HW168104   5.903   1.010   1.238 -1.6932 -0.4020 -0.4371
21824SOL    HW268105   5.860   1.127   1.153 -0.1666 -0.0286 -0.7216
21825SOL     OW68106   4.049   0.173   1.858  0.3009  0.7533  0.2651
21825SOL    HW168107   4.142   0.184   1.876  0.7154 -0.5599 -0.9480
21825SOL    HW268108   4.032   0.080   1.873 -0.6267  0.7993 -0.4059
21826SOL     OW68109   2.054   7.669   9.794  0.2641  0.1924 -0.2069
21826SOL    HW168110   2.034   7.722   9.717  0.0807  0.4027 -0.0180
21826SOL    HW268111   2.031   7.580   9.769  2.2863 -0.1092 -1.1644
21827SOL     OW68112   6.910   3.163   8.285  0.0313 -0.2040 -0.4060
21827SOL    HW168113   6.920   3.148   8.191 -0.7830 -0.1022 -0.5162
21827SOL    HW268114   6.971   3.102   8.326  0.8388  0.1648 -1.0104
21828SOL     OW68115   6.643   6.523   9.176  0.2017 -0.2556 -0.7865
21828SOL    HW168116   6.622   6.476   9.257  1.1411 -1.3673 -1.1685
21828SOL    HW268117   6.724   6.571   9.196 -0.2838  0.5457 -0.6737
21829SOL     OW68118   0.986   2.255   3.999 -0.5186  0.2193  0.4142
21829SOL    HW168119   0.910   2.308   4.021 -1.3433 -1.0837  0.8501
21829SOL    HW268120   0.950   2.177   3.957  0.5324 -0.5957  0.9511
21830SOL     OW68121   2.280   8.047   8.757  0.0535  0.3062 -0.4817
21830SOL    HW168122   2.243   8.014   8.675  0.7160  0.7909 -0.9852
21830SOL    HW268123   2.333   8.122   8.731  0.8735  0.0179  0.2988
21831SOL     OW68124   7.472   5.485   5.210  0.4745 -0.8749 -0.3479
21831SOL    HW168125   7.560   5.501   5.244  0.4273 -0.6729 -0.3192
21831SOL    HW268126   7.486   5.436   5.129  0.6101 -0.9033 -0.3083
21832SOL     OW68127   9.811   4.994   5.094 -0.0270 -0.2760  0.7871
21832SOL    HW168128   9.760   4.927   5.138 -2.8167  0.3809 -1.2069
21832SOL    HW268129   9.796   4.980   5.001  1.0229  1.8099  0.2252
21833SOL     OW68130   2.145   1.661   5.156  0.1031 -0.5235  0.7541
21833SOL    HW168131   2.176   1.605   5.227 -1.4074 -1.1601  0.9497
21833SOL    HW268132   2.058   1.690   5.184 -0.7713 -1.2389 -1.0514
21834SOL     OW68133   3.150   3.329   1.505 -0.0172  0.3583 -0.0782
21834SOL    HW168134   3.209   3.384   1.555 -0.7950  1.4809 -0.3480
21834SOL    HW268135   3.091   3.291   1.570  1.5445 -1.5545  0.3151
21835SOL     OW68136   7.738   1.130   5.319  0.3710  0.0296 -0.5952
21835SOL    HW168137   7.738   1.036   5.304  0.5811  0.2264 -1.9333
21835SOL    HW268138   7.658   1.161   5.278 -0.5006  0.2610  1.1969
21836SOL     OW68139   6.016   3.826  10.256 -0.0537 -0.5696 -0.0057
21836SOL    HW168140   5.984   3.853  10.342  0.6517  0.7244 -0.1340
21836SOL    HW268141   6.020   3.906  10.205  1.9204 -0.9116 -0.4655
21837SOL     OW68142   8.037   8.073   2.518  0.4553 -0.2233  0.1650
21837SOL    HW168143   8.008   7.983   2.508  0.3702 -0.1375 -0.3661
21837SOL    HW268144   7.998   8.101   2.601  0.9396 -0.8457  0.6158
21838SOL     OW68145   8.192   9.483   3.440  0.5292 -0.3575  0.3517
21838SOL    HW168146   8.141   9.447   3.513  2.4887 -0.4662  1.7356
21838SOL    HW268147   8.277   9.440   3.446  2.1885  2.6881  0.6281
21839SOL     OW68148   5.611   8.976   9.262  0.3097  0.0541  0.9647
21839SOL    HW168149   5.604   8.946   9.171 -0.2742  0.8951  0.7199
21839SOL    HW268150   5.553   8.918   9.311 -0.5809  0.5492  0.5405
21840SOL     OW68151   1.565   0.131   9.103  0.3984 -0.0816  0.7055
21840SOL    HW168152   1.596   0.047   9.070  0.8406  0.1497  0.5204
21840SOL    HW268153   1.599   0.137   9.192  1.7718  0.6167  0.1592
21841SOL     OW68154   9.571   8.500   9.438 -0.3210 -0.1089  0.2175
21841SOL    HW168155   9.659   8.514   9.472  0.1856 -1.1794 -0.5839
21841SOL    HW268156   9.527   8.449   9.505 -0.3438  0.4582  0.6358
21842SOL     OW68157   5.460   8.523   4.346 -0.7067 -0.5582 -0.2742
21842SOL    HW168158   5.436   8.592   4.408  0.2166  0.7056 -1.2503
21842SOL    HW268159   5.383   8.514   4.290 -1.5119 -1.6453  0.9661
21843SOL     OW68160   6.668   1.174   5.307 -0.2613  0.1484 -0.2279
21843SOL    HW168161   6.583   1.184   5.263  0.3065 -0.7013 -1.5764
21843SOL    HW268162   6.714   1.256   5.289 -1.1530  1.0382  1.3807
21844SOL     OW68163   7.843   5.354   2.063  0.0692  0.0741  0.4851
21844SOL    HW168164   7.843   5.447   2.038 -0.3167 -0.2221 -0.6799
21844SOL    HW268165   7.863   5.355   2.156  3.2275  1.1701 -0.0613
21845SOL     OW68166   2.791   2.409   6.094 -0.3804  0.1118  0.4776
21845SOL    HW168167   2.741   2.394   6.174 -0.1773  0.6561  0.7106
21845SOL    HW268168   2.850   2.335   6.088 -1.0926 -0.4584  0.2883
21846SOL     OW68169   6.097   1.542   6.820 -0.8214 -0.1066 -0.0130
21846SOL    HW168170   6.096   1.475   6.752 -0.4578 -0.4187  0.2737
21846SOL    HW268171   6.172   1.597   6.798  0.6006 -1.4182  1.2249
21847SOL     OW68172   1.310   6.462   1.159 -0.3130  0.1972  0.0391
21847SOL    HW168173   1.325   6.512   1.078 -1.3766  0.9487  0.2990
21847SOL    HW268174   1.319   6.370   1.132 -1.3203  0.4061 -1.0952
21848SOL     OW68175   4.507   1.107   9.830 -0.0405 -0.0493  0.1865
21848SOL    HW168176   4.425   1.090   9.877  0.0697  0.4976  0.5860
21848SOL    HW268177   4.576   1.085   9.893  0.1114 -0.1105 -0.0018
21849SOL     OW68178   5.030   2.128   8.853  0.4042 -0.5173 -0.0812
21849SOL    HW168179   4.959   2.071   8.823  0.1959 -1.1628  1.5425
21849SOL    HW268180   4.997   2.217   8.841 -0.2393 -0.7904 -0.3630
21850SOL     OW68181   6.341   3.367   7.460  0.3033  0.2372  0.1092
21850SOL    HW168182   6.414   3.308   7.477 -0.3000 -0.1137  1.5913
21850SOL    HW268183   6.272   3.340   7.521  0.2511  2.9107  1.4155
21851SOL     OW68184   9.314   5.760   1.419  0.7321  0.0775 -0.1925
21851SOL    HW168185   9.274   5.674   1.431  0.7543  0.2952  1.8867
21851SOL    HW268186   9.256   5.804   1.356 -0.6703 -0.6297  0.5397
21852SOL     OW68187   8.839   7.829   4.293  0.4114  0.1555  0.0226
21852SOL    HW168188   8.811   7.741   4.268  0.3895  0.4434 -1.0029
21852SOL    HW268189   8.758   7.872   4.320  0.3657 -0.0158  0.1647
21853SOL     OW68190   5.304   9.955   9.233 -0.7769  0.5073 -0.2317
21853SOL    HW168191   5.273  10.036   9.274  1.1109  0.5884  1.1542
21853SOL    HW268192   5.240   9.889   9.258 -0.4381  0.8587  1.6869
21854SOL     OW68193   4.094   1.541   8.818 -0.1201 -0.0118 -0.2980
21854SOL    HW168194   4.080   1.451   8.846 -1.4078 -0.1638 -1.3241
21854SOL    HW268195   4.121   1.533   8.726  0.7752  0.6192 -0.1062
21855SOL     OW68196   1.005   6.605   7.498  0.0929  0.9143 -0.2353
21855SOL    HW168197   1.088   6.629   7.456  0.2734  0.1036 -0.3727
21855SOL    HW268198   0.938   6.641   7.441  0.3341 -0.3665 -1.3936
21856SOL     OW68199   3.559   8.302   1.670 -0.3218  0.1892 -0.5400
21856SOL    HW168200   3.483   8.315   1.727  0.0059  1.6797 -0.3934
21856SOL    HW268201   3.630   8.348   1.715  0.3621 -0.1236 -1.2880
21857SOL     OW68202   7.817   0.854   7.160 -0.4071  0.4221  0.0778
21857SOL    HW168203   7.854   0.909   7.090  0.6162 -1.0230 -0.5578
21857SOL    HW268204   7.773   0.783   7.114 -0.1181 -0.3029  0.8981
21858SOL     OW68205   6.932   5.479  10.096  0.2057  0.0833  0.3091
21858SOL    HW168206   6.968   5.517  10.016  2.2440 -1.8354  0.2490
21858SOL    HW268207   6.854   5.432  10.067  0.3555  0.2434 -0.3607
21859SOL     OW68208   6.344   2.136   5.684 -0.0636 -0.6649 -0.0479
21859SOL    HW168209   6.383   2.144   5.771 -0.7225  0.6506  0.1504
21859SOL    HW268210   6.402   2.187   5.627 -0.9265  0.4992  0.0766
21860SOL     OW68211   0.013  10.191  10.122  0.0657 -0.2965  0.2569
21860SOL    HW168212   0.107  10.204  10.113  0.2888  0.2800  2.5829
21860SOL    HW268213   0.005  10.104  10.162 -0.4839 -0.8603 -1.0434
21861SOL     OW68214   0.426   8.882   9.155  0.4884  0.4322  0.5115
21861SOL    HW168215   0.450   8.832   9.233  0.4246 -0.1517  0.1552
21861SOL    HW268216   0.485   8.957   9.156  2.0017 -0.7021 -0.0670
21862SOL     OW68217   2.739   5.213   9.591 -0.0304  0.4235 -0.1725
21862SOL    HW168218   2.709   5.213   9.682  0.5439  0.5632  0.0208
21862SOL    HW268219   2.812   5.151   9.589  0.9226  1.5074 -0.1993
21863SOL     OW68220   9.237   5.782   5.402 -0.1769  0.2841  0.4366
21863SOL    HW168221   9.195   5.713   5.453  1.2248 -0.3596  0.7671
21863SOL    HW268222   9.184   5.790   5.323  1.1545 -3.1798 -0.9988
21864SOL     OW68223   7.478   7.116   2.020 -0.2209 -0.0785 -0.7622
21864SOL    HW168224   7.524   7.087   1.940  0.1914  0.8529 -0.8771
21864SOL    HW268225   7.403   7.166   1.987  0.0029  0.3860 -0.5704
21865SOL     OW68226   6.050   2.726   8.172 -0.1012  0.1729  0.5236
21865SOL    HW168227   6.002   2.760   8.098 -0.3543 -0.8641  0.1939
21865SOL    HW268228   5.999   2.650   8.202  0.4121  0.0953  1.2527
21866SOL     OW68229   1.348   5.877   6.997 -0.4372 -0.5915 -0.6056
21866SOL    HW168230   1.350   5.802   6.938  0.0700  0.1253 -1.5299
21866SOL    HW268231   1.278   5.857   7.059 -1.1305 -1.2700 -1.5720
21867SOL     OW68232   4.182   3.286   0.575  0.0108 -0.0079 -0.4359
21867SOL    HW168233   4.195   3.214   0.635  0.2864  0.5902  0.2387
21867SOL    HW268234   4.138   3.354   0.627  0.2022  0.4927 -0.9134
21868SOL     OW68235   1.972   8.520   1.656 -0.6668 -0.5510 -0.1152
21868SOL    HW168236   1.955   8.613   1.645 -0.2847 -0.5308 -0.5877
21868SOL    HW268237   1.923   8.495   1.734  1.9706  0.7852  2.1665
21869SOL     OW68238   6.396   0.618   9.581 -0.3956  0.3856  0.2712
21869SOL    HW168239   6.435   0.692   9.629  0.9575  0.5360 -0.9889
21869SOL    HW268240   6.303   0.620   9.606 -0.3255  2.2858  0.5826
21870SOL     OW68241   6.957   5.159   2.555  0.0634 -0.5620  0.1079
21870SOL    HW168242   7.003   5.081   2.586  0.0904 -0.3529  0.6000
21870SOL    HW268243   6.913   5.193   2.633  0.9029  0.5146  0.1387
21871SOL     OW68244   2.529   7.900   0.050  0.4727  0.3516 -0.4496
21871SOL    HW168245   2.564   7.812   0.042 -0.7436 -0.2447  0.4785
21871SOL    HW268246   2.543   7.923   0.142 -1.2946  0.1891 -0.1077
21872SOL     OW68247   9.629   9.594   9.266  0.5727 -0.1297  0.0348
21872SOL    HW168248   9.635   9.524   9.201 -0.0875  1.9588 -2.4474
21872SOL    HW268249   9.706   9.583   9.321  1.9944 -1.1689 -2.0426
21873SOL     OW68250   8.320   3.426   2.972 -0.1283 -0.4101  0.0093
21873SOL    HW168251   8.376   3.503   2.983 -1.5993  0.6385  0.5410
21873SOL    HW268252   8.380   3.352   2.973  1.1953  0.6204  1.0658
21874SOL     OW68253   5.571   4.991   2.161  0.1804  0.0790  0.0655
21874SOL    HW168254   5.630   5.064   2.179 -0.0333  0.0508  0.8794
21874SOL    HW268255   5.488   5.015   2.204 -0.7317  0.5570 -1.8296
21875SOL     OW68256   0.472   7.238   1.225  0.0107 -0.3282 -0.0484
21875SOL    HW168257   0.398   7.177   1.236 -0.4706  0.2794  0.1215
21875SOL    HW268258   0.434   7.324   1.241  0.2605  0.2013 -2.1178
21876SOL     OW68259   2.380   2.177   1.904  0.3487  0.6462 -0.4503
21876SOL    HW168260   2.291   2.142   1.910 -0.1224  1.4896 -1.8789
21876SOL    HW268261   2.378   2.257   1.957  1.1112 -0.7971  1.8893
21877SOL     OW68262   1.508   9.180   4.521 -0.0176 -0.2952 -0.4282
21877SOL    HW168263   1.516   9.114   4.590  0.6960 -0.4556 -0.6563
21877SOL    HW268264   1.422   9.162   4.481 -0.6014  0.0370  0.6353
21878SOL     OW68265   9.948   7.060   8.219  1.1161  0.2188 -0.3808
21878SOL    HW168266   9.868   7.008   8.228 -0.1624  2.0265 -0.7337
21878SOL    HW268267   9.954   7.109   8.302  2.2671 -0.4197 -0.0670
21879SOL     OW68268   1.557   1.889   3.442  0.1424  0.0799  0.4209
21879SOL    HW168269   1.547   1.886   3.537  0.7287  0.8750  0.5189
21879SOL    HW268270   1.467   1.893   3.409 -0.2526 -3.3782  0.7591
21880SOL     OW68271   8.413   8.044   6.254 -0.4183 -0.0161  0.3578
21880SOL    HW168272   8.454   8.022   6.338  0.1721  1.4611  0.4819
21880SOL    HW268273   8.363   8.123   6.272  0.7096  1.0244 -0.9601
21881SOL     OW68274   0.256   6.048   8.369 -0.5813 -0.3811 -0.1720
21881SOL    HW168275   0.256   5.961   8.408  1.4527 -0.4226 -0.1393
21881SOL    HW268276   0.227   6.035   8.279 -0.3121 -1.0995 -0.1604
21882SOL     OW68277   0.731   9.227   8.155 -0.4662 -0.6539  0.5918
21882SOL    HW168278   0.775   9.142   8.154 -0.1786 -0.5145  1.0581
21882SOL    HW268279   0.726   9.252   8.063 -0.1548 -0.9774  0.4834
21883SOL     OW68280   8.739   6.758   7.692  0.3181 -0.0420 -0.2847
21883SOL    HW168281   8.663   6.803   7.655  1.7035  2.0601 -0.7379
21883SOL    HW268282   8.718   6.750   7.785 -0.4357  0.6159 -0.3813
21884SOL     OW68283  10.200   4.992   3.411 -0.1148  0.1699 -0.5473
21884SOL    HW168284  10.281   4.944   3.427 -0.0759  0.9353  1.8805
21884SOL    HW268285  10.228   5.080   3.388 -0.2505  0.0014 -1.3843
21885SOL     OW68286   3.491   0.250   0.392  0.5589  0.3110 -0.4220
21885SOL    HW168287   3.584   0.261   0.409  0.3193  2.5948 -0.3530
21885SOL    HW268288   3.448   0.275   0.474 -0.1936  1.9889 -1.2838
21886SOL     OW68289   2.479   4.300   8.246  0.5717  1.1479 -0.3477
21886SOL    HW168290   2.447   4.367   8.186 -0.0442  2.9751  1.8568
21886SOL    HW268291   2.400   4.268   8.290  0.9212 -0.7354 -1.0054
21887SOL     OW68292   3.127   1.953   6.083 -0.3288  0.0251  0.4044
21887SOL    HW168293   3.038   1.931   6.055 -0.3094 -0.2786  0.5749
21887SOL    HW268294   3.183   1.918   6.014 -0.2556 -1.0808  0.9996
21888SOL     OW68295   7.208   6.560   8.225  0.0841  0.1060 -0.1918
21888SOL    HW168296   7.122   6.587   8.193 -0.6995 -0.4618  1.3336
21888SOL    HW268297   7.251   6.523   8.149 -1.1364  0.1294 -0.9204
21889SOL     OW68298   9.957  10.169   7.889  0.1357 -0.2950  0.4171
21889SOL    HW168299   9.998  10.109   7.827  0.6404  0.3429  0.1194
21889SOL    HW268300  10.015  10.168   7.965  0.8770  0.8012 -0.1033
21890SOL     OW68301   6.609   7.701  10.256 -0.5269  0.2381  0.3511
21890SOL    HW168302   6.531   7.652  10.228 -0.6420 -1.1357  2.7648
21890SOL    HW268303   6.682   7.643  10.234 -0.4826 -0.0276  1.1672
21891SOL     OW68304   7.762   4.421   4.376 -0.5334 -0.4147  0.2486
21891SOL    HW168305   7.831   4.409   4.310 -0.4748  0.2374  0.1909
21891SOL    HW268306   7.681   4.406   4.328 -0.4735 -0.3341  0.1221
21892SOL     OW68307   8.981   9.784   3.194  0.1201 -0.1831 -0.5645
21892SOL    HW168308   9.073   9.762   3.180 -0.2683 -2.9221  0.6100
21892SOL    HW268309   8.983   9.864   3.248  1.8737 -1.1304  0.8617
21893SOL     OW68310   7.984   0.833   1.998  0.7213  0.1678  0.5885
21893SOL    HW168311   8.047   0.796   1.936 -0.9915  0.2920 -1.3426
21893SOL    HW268312   7.937   0.898   1.946  0.0913  1.2423  2.4396
21894SOL     OW68313   3.165   8.238   1.569 -0.0226  0.5247 -0.2272
21894SOL    HW168314   3.145   8.228   1.662 -1.1599 -2.6664 -0.6720
21894SOL    HW268315   3.257   8.213   1.561  0.0689  0.7802  0.0603
21895SOL     OW68316   4.846   4.869   4.638  0.1114 -0.4848 -0.7524
21895SOL    HW168317   4.937   4.896   4.645  0.5441 -1.6175 -1.6785
21895SOL    HW268318   4.800   4.921   4.704  1.4996 -0.2602  0.0739
21896SOL     OW68319   7.927   0.122   7.079  0.0518 -0.3120 -0.1023
21896SOL    HW168320   8.014   0.162   7.077  0.5291 -1.1406  2.0489
21896SOL    HW268321   7.876   0.178   7.137 -0.7603 -0.0934 -0.9903
21897SOL     OW68322   0.484   6.432   5.570 -0.6716 -0.0165 -0.0762
21897SOL    HW168323   0.530   6.364   5.620  1.0738  1.3771  0.3260
21897SOL    HW268324   0.474   6.394   5.483  0.3862 -0.7625  0.0960
21898SOL     OW68325   5.141   3.259   6.245  0.5636 -0.3771 -0.1422
21898SOL    HW168326   5.095   3.234   6.325  0.6556 -0.7440 -0.2008
21898SOL    HW268327   5.189   3.180   6.219  0.4447 -0.2945 -0.6239
21899SOL     OW68328   7.090   8.284   0.203 -0.1258 -0.0329  0.1954
21899SOL    HW168329   7.174   8.303   0.162 -0.1389  0.6018  0.4485
21899SOL    HW268330   7.110   8.223   0.273  0.0454 -0.3051 -0.0895
21900SOL     OW68331   5.194   8.437   0.325 -0.5930 -0.1273 -0.4841
21900SOL    HW168332   5.125   8.503   0.313 -0.0356  0.9516  1.7469
21900SOL    HW268333   5.276   8.486   0.320  0.1087 -1.3988 -3.1014
21901SOL     OW68334   7.756   6.639   2.086 -0.5579 -0.4386 -0.0478
21901SOL    HW168335   7.669   6.643   2.048 -0.9086  0.6403  0.7937
21901SOL    HW268336   7.816   6.642   2.011 -1.2297  0.8938 -0.5583
21902SOL     OW68337   4.080   7.550   8.659  0.1334 -0.2586  0.6268
21902SOL    HW168338   4.012   7.562   8.725 -1.7392 -0.3107 -1.1688
21902SOL    HW268339   4.052   7.473   8.609  0.8713  0.4122 -0.9057
21903SOL     OW68340   0.704   0.093   0.027 -0.3276 -0.1879  0.3447
21903SOL    HW168341   0.614   0.065   0.041 -0.8882  1.0142 -0.7057
21903SOL    HW268342   0.697   0.182  -0.007  1.1208 -0.8482 -1.9103
21904SOL     OW68343   7.841   4.389   6.789 -0.5146 -0.4603  0.0708
21904SOL    HW168344   7.933   4.404   6.812 -0.5440  2.1069 -1.2001
21904SOL    HW268345   7.840   4.301   6.751  1.3866 -0.5812  0.2144
21905SOL     OW68346   3.137   1.670   3.890  0.2482 -0.2931 -0.0656
21905SOL    HW168347   3.165   1.737   3.827 -1.1497  0.2021 -0.1834
21905SOL    HW268348   3.193   1.595   3.870  1.4101  0.6092 -0.3573
21906SOL     OW68349   5.752   8.201   8.819 -0.1425  0.1573 -0.3014
21906SOL    HW168350   5.847   8.206   8.811 -0.1538 -0.1842 -0.6738
21906SOL    HW268351   5.723   8.157   8.740 -0.4457 -1.4268  0.6472
21907SOL     OW68352   5.793   6.604   5.253 -0.3118 -0.3009  0.1435
21907SOL    HW168353   5.805   6.659   5.330 -0.5119 -0.9863  0.6805
21907SOL    HW268354   5.703   6.622   5.225 -0.2118  0.0111  0.0200
21908SOL     OW68355   1.357   2.556   4.344  0.1714  0.5252 -0.2108
21908SOL    HW168356   1.315   2.533   4.427  1.7729  1.0531  0.8011
21908SOL    HW268357   1.376   2.472   4.302 -0.5227  0.2473  0.0234
21909SOL     OW68358   4.770   9.664   9.473 -0.0976  0.4788  0.2775
21909SOL    HW168359   4.811   9.597   9.418  1.0247  1.4990 -0.1860
21909SOL    HW268360   4.728   9.723   9.410 -1.4150  0.0076  0.6995
21910SOL     OW68361   0.184   7.942   8.528  0.1842  0.5081  0.0566
21910SOL    HW168362   0.263   7.924   8.579  0.1910  1.3644  0.3700
21910SOL    HW268363   0.215   7.944   8.437  0.3664  0.0190  0.1050
21911SOL     OW68364   3.627   2.445   1.970  0.3680 -0.2795  0.1078
21911SOL    HW168365   3.668   2.531   1.963  0.6207 -0.4226 -0.2232
21911SOL    HW268366   3.694   2.388   2.007  0.3989 -0.4613 -0.2148
21912SOL     OW68367   4.762   6.018   8.299 -0.5287 -0.0625 -0.0610
21912SOL    HW168368   4.763   6.034   8.205 -0.8977 -1.1228 -0.2620
21912SOL    HW268369   4.676   5.981   8.317  0.0214 -1.1963  0.4379
21913SOL     OW68370   4.058   0.785   3.405 -0.4385 -0.0154  0.1570
21913SOL    HW168371   4.126   0.835   3.360 -0.2549 -0.2152  0.2100
21913SOL    HW268372   4.082   0.789   3.498  1.3146 -2.7389 -0.0795
21914SOL     OW68373   6.853   9.235   1.317  0.0057 -0.0085  0.3759
21914SOL    HW168374   6.822   9.177   1.387  0.7025 -0.9392 -0.0626
21914SOL    HW268375   6.947   9.244   1.333  0.1929 -0.3148 -0.4859
21915SOL     OW68376  10.079   7.523   3.073  0.2273  0.0178  0.0451
21915SOL    HW168377  10.144   7.566   3.129 -0.5427  0.2215  0.7968
21915SOL    HW268378  10.050   7.593   3.014 -0.4363  0.3338  0.7352
21916SOL     OW68379   3.071   0.244   2.890 -0.2188 -0.0812  0.7114
21916SOL    HW168380   3.161   0.212   2.881 -0.5478 -1.0470  0.7103
21916SOL    HW268381   3.056   0.295   2.810  0.0402 -0.6751  0.2698
21917SOL     OW68382   8.464  10.353   0.859  0.5100  0.2138 -0.0500
21917SOL    HW168383   8.497  10.264   0.850  0.7727  0.1051  1.6062
21917SOL    HW268384   8.396  10.360   0.793  0.9188 -0.9960 -0.6369
21918SOL     OW68385   3.641   4.552   2.475  0.2894  0.0705 -0.3907
21918SOL    HW168386   3.657   4.475   2.530  2.0823  0.3793 -0.4214
21918SOL    HW268387   3.723   4.566   2.428 -0.3759  1.3377 -1.2421
21919SOL     OW68388   1.311   3.170   6.672  0.0585 -0.8078  0.0390
21919SOL    HW168389   1.358   3.090   6.696 -2.4492 -2.4558 -0.1864
21919SOL    HW268390   1.309   3.221   6.752 -0.9778 -2.4482  1.1318
21920SOL     OW68391   0.703   1.381   0.567 -0.4298 -0.3229  0.3897
21920SOL    HW168392   0.769   1.333   0.518 -1.2950  0.1870 -1.3296
21920SOL    HW268393   0.630   1.320   0.576 -0.7020 -0.0462  0.0691
21921SOL     OW68394   2.692   0.377   4.971 -0.4232 -0.4914 -0.4564
21921SOL    HW168395   2.788   0.374   4.978 -0.4504  0.9738  1.2337
21921SOL    HW268396   2.671   0.470   4.964 -1.7577 -0.7366 -0.0372
21922SOL     OW68397   0.369   8.508   6.485 -0.2329  0.3035 -0.7217
21922SOL    HW168398   0.424   8.448   6.434  0.4564  1.7151 -1.7511
21922SOL    HW268399   0.287   8.512   6.437 -1.7041 -2.5035  1.3075
21923SOL     OW68400   5.541   7.979   4.284 -0.0638 -0.3821 -0.1303
21923SOL    HW168401   5.466   8.012   4.334 -2.1798 -0.5161 -3.0313
21923SOL    HW268402   5.591   8.058   4.262 -0.5654 -0.0379 -0.0459
21924SOL     OW68403   0.455   9.480   8.729  0.0566  0.1494  0.4362
21924SOL    HW168404   0.505   9.481   8.647  0.4480  0.8307  0.6773
21924SOL    HW268405   0.365   9.496   8.702  0.0774 -0.2984  0.0749
21925SOL     OW68406   9.345   6.146   1.851 -0.1870 -0.1902  0.2578
21925SOL    HW168407   9.341   6.119   1.943  0.2396 -0.4794  0.1949
21925SOL    HW268408   9.426   6.196   1.844 -0.2864 -0.0573  0.0698
21926SOL     OW68409   0.045   8.237   8.301  0.1146 -0.5584 -0.4305
21926SOL    HW168410   0.067   8.230   8.209  1.5364 -3.2296  0.0062
21926SOL    HW268411   0.124   8.272   8.342 -0.8091  1.4838 -0.2561
21927SOL     OW68412   6.139   5.102   8.799  0.5273  0.5326 -0.2542
21927SOL    HW168413   6.095   5.036   8.747 -1.8670  1.1914  0.8108
21927SOL    HW268414   6.204   5.140   8.739 -1.6106  0.7931 -2.5683
21928SOL     OW68415   3.594   9.331   7.014 -0.3030  0.3988  0.3199
21928SOL    HW168416   3.565   9.415   7.051 -1.5053  0.0142  0.2927
21928SOL    HW268417   3.572   9.266   7.081 -3.5400 -0.4640 -1.3578
21929SOL     OW68418   1.173   0.748   1.508  0.2630  0.4329  0.2023
21929SOL    HW168419   1.161   0.767   1.601  0.0588 -1.2496  0.5611
21929SOL    HW268420   1.095   0.782   1.466  1.6576  3.9210  0.1444
21930SOL     OW68421   6.656   0.991  10.110 -0.8658 -0.6589  0.3051
21930SOL    HW168422   6.730   1.045  10.079 -0.3283 -1.7780 -0.4124
21930SOL    HW268423   6.578   1.039  10.082 -0.4482  0.5690  1.1067
21931SOL     OW68424   6.140   1.653   1.933  0.1680  0.2799  0.7243
21931SOL    HW168425   6.146   1.587   1.864 -0.1536 -0.6185  1.5380
21931SOL    HW268426   6.141   1.736   1.886  0.2085 -0.3022 -0.3455
21932SOL     OW68427  10.025   0.605   2.012  0.3481 -0.2479  0.0092
21932SOL    HW168428   9.943   0.589   2.059 -0.2079  1.3454 -0.3479
21932SOL    HW268429  10.029   0.700   2.003  1.8070 -0.3546 -0.7638
21933SOL     OW68430   4.740   0.071   1.071 -0.8842 -0.3896  0.5030
21933SOL    HW168431   4.664   0.094   1.125  0.2192  3.2728  0.7894
21933SOL    HW268432   4.735   0.130   0.996  2.1623  0.8099  1.0902
21934SOL     OW68433  10.287   2.299   2.676 -0.3068  0.1417 -0.2433
21934SOL    HW168434  10.213   2.239   2.678 -0.6106  0.4737 -1.1294
21934SOL    HW268435  10.316   2.300   2.585 -1.5189  2.7430 -0.6826
21935SOL     OW68436   8.369   5.500   4.326  0.4607  0.0289 -0.1917
21935SOL    HW168437   8.406   5.525   4.241 -0.7454  1.9781 -0.1922
21935SOL    HW268438   8.276   5.518   4.318  0.5171  1.6205  1.9931
21936SOL     OW68439   2.475   8.798   8.861  0.4153  0.1867 -0.2112
21936SOL    HW168440   2.498   8.887   8.835 -2.3063  0.9455 -0.3789
21936SOL    HW268441   2.476   8.799   8.957 -3.6856  1.8428  0.0465
21937SOL     OW68442   4.091   5.507   0.076  0.3616 -0.2620  0.2782
21937SOL    HW168443   4.146   5.429   0.075  0.1533 -0.4476  1.2933
21937SOL    HW268444   4.019   5.487   0.016  1.5204  0.0994 -1.2703
21938SOL     OW68445   6.866   3.867   7.957  0.1020  0.0924  0.2006
21938SOL    HW168446   6.782   3.822   7.950  0.1147  0.0489  0.3386
21938SOL    HW268447   6.854   3.948   7.906 -0.2165  0.3717  0.7208
21939SOL     OW68448   2.926   1.337   8.413  0.0912 -0.1190 -0.0545
21939SOL    HW168449   2.883   1.267   8.363  1.1355 -0.6765 -0.2096
21939SOL    HW268450   2.961   1.293   8.490 -0.0430  0.4190  0.3138
21940SOL     OW68451   0.092   9.619   7.396  0.6057  0.4213 -0.1896
21940SOL    HW168452   0.183   9.628   7.423  1.0910 -0.0423 -1.6056
21940SOL    HW268453   0.057   9.709   7.398  1.5562  0.8318 -1.1715
21941SOL     OW68454   5.028   0.064   0.144  0.3089 -0.0642  0.6422
21941SOL    HW168455   4.940   0.045   0.109  0.3021  2.7314 -1.1866
21941SOL    HW268456   5.012   0.108   0.227 -0.1857  1.9182 -0.4444
21942SOL     OW68457   1.811   8.600   0.662 -0.4659 -0.6744 -0.5839
21942SOL    HW168458   1.853   8.570   0.743  1.1541 -1.0289 -1.4975
21942SOL    HW268459   1.730   8.549   0.657 -2.0194  1.2884  2.1306
21943SOL     OW68460   1.786   1.713   8.519  0.0057  0.8429 -0.2404
21943SOL    HW168461   1.788   1.802   8.484  0.4281  0.8985 -0.0863
21943SOL    HW268462   1.693   1.692   8.527 -0.1975  2.2969  2.3522
21944SOL     OW68463   8.583   7.895   4.142  0.3312  0.2532  0.6816
21944SOL    HW168464   8.615   7.809   4.168  0.1637  0.6452  2.2954
21944SOL    HW268465   8.631   7.915   4.061 -0.9957 -2.1200 -0.8006
21945SOL     OW68466   7.019   7.197   4.477  0.1771  0.0389  0.0301
21945SOL    HW168467   7.090   7.246   4.519  2.2632 -1.7858 -1.1232
21945SOL    HW268468   7.061   7.156   4.401 -2.4792 -0.0477 -1.4869
21946SOL     OW68469   4.095   5.781   1.326 -0.4253 -0.3891  0.2163
21946SOL    HW168470   4.058   5.869   1.317  0.3988 -0.1954 -1.5582
21946SOL    HW268471   4.088   5.743   1.239  2.5323 -0.7355  0.0552
21947SOL     OW68472   6.658   5.336  10.002 -0.5735  0.0730  0.5518
21947SOL    HW168473   6.631   5.374  10.085  0.6813 -0.8456  1.4185
21947SOL    HW268474   6.709   5.258  10.026  1.8267  1.0607 -0.9625
21948SOL     OW68475   4.119   2.010   3.608  0.1611  0.7447  0.0881
21948SOL    HW168476   4.074   2.073   3.664  0.4112  0.8772  0.1422
21948SOL    HW268477   4.049   1.964   3.562 -0.0407  0.7074  0.4319
21949SOL     OW68478  10.261   0.265   8.513  0.2000 -0.8337  0.0144
21949SOL    HW168479  10.249   0.170   8.516  0.3513 -0.8225  1.8324
21949SOL    HW268480  10.355   0.278   8.530 -0.0254 -0.3279  0.9347
21950SOL     OW68481   8.763   3.241   6.479  0.3971  0.5714 -0.4545
21950SOL    HW168482   8.698   3.310   6.495  0.4643  0.5200  0.0825
21950SOL    HW268483   8.733   3.167   6.531  1.3587  0.8532  0.5504
21951SOL     OW68484   4.658   8.694   8.885 -0.1730  0.1108 -0.0155
21951SOL    HW168485   4.572   8.694   8.844  0.6085  0.8714 -1.8105
21951SOL    HW268486   4.663   8.611   8.932 -1.9744  0.1971  0.3675
21952SOL     OW68487   3.667   2.081   8.995  0.4208 -0.1680 -0.3872
21952SOL    HW168488   3.585   2.044   9.027  1.2766 -0.4019  1.6678
21952SOL    HW268489   3.681   2.159   9.049  0.6184  1.0165 -2.0308
21953SOL     OW68490   3.051   0.720   1.745  0.2281  0.1213 -0.0953
21953SOL    HW168491   2.965   0.701   1.782 -0.5209  0.6168 -1.5145
21953SOL    HW268492   3.086   0.634   1.722 -0.6442  0.0089 -1.0921
21954SOL     OW68493   5.153   0.531   8.351 -0.4289 -0.5595  0.5512
21954SOL    HW168494   5.099   0.552   8.428 -1.2110  0.3277 -0.2164
21954SOL    HW268495   5.108   0.572   8.278 -0.5604 -2.7294 -0.6569
21955SOL     OW68496   4.598   7.566   9.619  0.6028 -0.3285 -0.2483
21955SOL    HW168497   4.669   7.618   9.658  1.3273 -1.2363 -0.3269
21955SOL    HW268498   4.639   7.482   9.598 -0.6512 -1.0756  0.2419
21956SOL     OW68499   3.357   7.018   9.755 -0.4035 -0.5188 -0.3404
21956SOL    HW168500   3.360   7.021   9.659  0.0461 -0.9829 -0.3480
21956SOL    HW268501   3.271   7.054   9.778 -0.1298  0.4997 -0.8679
21957SOL     OW68502   5.267  10.012   2.649 -0.1941 -0.5712  0.0918
21957SOL    HW168503   5.192  10.043   2.700  1.0447  2.1236  0.4037
21957SOL    HW268504   5.343  10.053   2.690  1.1146 -0.4610 -2.2761
21958SOL     OW68505   0.546  10.113   7.172  0.1295 -0.0498 -0.7281
21958SOL    HW168506   0.470  10.086   7.223 -1.2879  1.3955 -1.9724
21958SOL    HW268507   0.597  10.169   7.232 -0.7688  0.4731 -0.4333
21959SOL     OW68508   2.829   7.166   2.945 -0.2063 -0.4275  0.9100
21959SOL    HW168509   2.864   7.207   2.866  0.3730 -1.4565  0.6164
21959SOL    HW268510   2.799   7.239   2.998 -1.0713  0.2601 -0.4740
21960SOL     OW68511   7.428   2.262   9.436 -0.2248 -0.1216  0.0107
21960SOL    HW168512   7.505   2.211   9.460 -0.1146  0.7342  1.5516
21960SOL    HW268513   7.392   2.293   9.519 -1.5745  0.4594 -0.7518
21961SOL     OW68514   7.291   2.687   1.549  0.2825 -0.1192  0.2477
21961SOL    HW168515   7.330   2.744   1.616 -0.3759 -0.0033  0.5421
21961SOL    HW268516   7.270   2.746   1.477  0.7825 -0.2064  0.0276
21962SOL     OW68517   5.915   4.319   3.183 -0.4057  0.2860 -0.3738
21962SOL    HW168518   5.852   4.336   3.113 -0.4285  3.1351  0.1977
21962SOL    HW268519   5.866   4.268   3.247 -1.2161 -0.0414 -1.2342
21963SOL     OW68520   0.997   2.654   2.089 -0.6392  0.0007 -0.1670
21963SOL    HW168521   1.059   2.605   2.036 -1.7068 -2.0176  0.3726
21963SOL    HW268522   0.946   2.588   2.135 -2.5946  1.6004  0.1206
21964SOL     OW68523   5.794   5.435   2.338  0.4409 -0.1665 -0.6697
21964SOL    HW168524   5.867   5.382   2.370  0.7672  0.7126  0.0894
21964SOL    HW268525   5.717   5.381   2.352  0.7149 -0.2778  0.5222
21965SOL     OW68526   4.061   5.036   6.516  0.4389 -0.1816  0.1228
21965SOL    HW168527   4.044   5.035   6.422  2.1305 -2.5202 -0.2360
21965SOL    HW268528   4.122   5.108   6.529 -0.2940  0.5622 -0.4304
21966SOL     OW68529   6.870   2.351   9.326 -0.2040  0.0463  0.0566
21966SOL    HW168530   6.806   2.315   9.388 -0.8804 -0.7155 -1.0436
21966SOL    HW268531   6.876   2.284   9.257  2.8436 -0.5909  0.7815
21967SOL     OW68532   4.838   0.526   2.662  0.6501 -0.4532  0.6409
21967SOL    HW168533   4.779   0.599   2.644  1.5871  0.4461  1.1281
21967SOL    HW268534   4.920   0.550   2.620  1.4200 -0.5247  2.0446
21968SOL     OW68535   1.711   6.912   9.388  0.4547 -0.6953 -0.3395
21968SOL    HW168536   1.647   6.936   9.321 -0.9438  1.7662  1.7007
21968SOL    HW268537   1.659   6.870   9.457  1.5634 -1.4823  0.0431
21969SOL     OW68538   0.794   4.351   2.502 -0.0790 -0.0846 -0.4184
21969SOL    HW168539   0.814   4.444   2.510 -1.7557  0.1856  1.3361
21969SOL    HW268540   0.794   4.334   2.407  0.6577  1.5657 -0.7414
21970SOL     OW68541   7.018   1.037   3.341 -0.9645  0.3843 -0.2543
21970SOL    HW168542   6.973   1.102   3.287 -1.1607  0.7293  0.3130
21970SOL    HW268543   7.044   1.085   3.420  0.2504  0.1447 -0.4968
21971SOL     OW68544   1.044   6.021   7.885 -0.1158 -0.0322  0.0906
21971SOL    HW168545   1.014   6.105   7.921 -0.8758 -0.8607  1.4829
21971SOL    HW268546   0.966   5.984   7.844  0.2136 -0.0871 -0.4997
21972SOL     OW68547  10.249   7.552   1.773 -0.3000 -0.1730  0.0641
21972SOL    HW168548  10.269   7.635   1.731 -0.6993  0.9827  2.0237
21972SOL    HW268549  10.324   7.496   1.752  0.1512  0.7859 -0.9968
21973SOL     OW68550   7.334   7.257   7.028  0.0753 -0.2287  0.1932
21973SOL    HW168551   7.261   7.195   7.031 -0.0803 -0.0304  0.5633
21973SOL    HW268552   7.342   7.280   6.935 -1.9483  1.6142  0.3744
21974SOL     OW68553   5.213   7.237   7.770 -0.4883 -0.4783  0.2835
21974SOL    HW168554   5.134   7.272   7.730 -0.6998  0.1292  1.1881
21974SOL    HW268555   5.182   7.188   7.846  0.0647  1.3587  1.7796
21975SOL     OW68556   4.016   0.015   6.825 -0.4455  0.1134 -0.1344
21975SOL    HW168557   3.955   0.073   6.870  0.8270 -0.1976  2.1335
21975SOL    HW268558   4.090   0.071   6.803  0.7864 -0.5155  2.0615
21976SOL     OW68559   9.634   5.066   8.860 -0.3059 -0.6556 -1.0312
21976SOL    HW168560   9.580   5.102   8.930 -2.7725 -0.8429 -2.7239
21976SOL    HW268561   9.589   4.986   8.833  0.8818 -0.8944 -2.4626
21977SOL     OW68562   1.690   0.238   1.559 -0.4640  0.0892 -0.2871
21977SOL    HW168563   1.625   0.289   1.606  0.2489  0.5397  0.2241
21977SOL    HW268564   1.774   0.273   1.588  0.0410 -1.2956  0.0074
21978SOL     OW68565   7.079   8.463  10.244  0.1859 -0.2383 -0.1512
21978SOL    HW168566   7.002   8.521  10.247  0.2240 -0.1407 -0.9064
21978SOL    HW268567   7.042   8.375  10.235  0.1516 -0.2487  0.0773
21979SOL     OW68568   5.609   4.544   1.281 -0.6708  0.1804 -0.0361
21979SOL    HW168569   5.699   4.521   1.257 -1.4487 -1.4388 -1.6781
21979SOL    HW268570   5.573   4.464   1.320 -1.9840  0.1212 -1.2790
21980SOL     OW68571   7.913   7.569   2.291 -0.4138  0.1622  0.1331
21980SOL    HW168572   7.980   7.560   2.358  0.3882  0.7679 -0.5646
21980SOL    HW268573   7.869   7.484   2.289  0.5827 -0.3755  0.3400
21981SOL     OW68574   5.165   4.932   4.772 -0.1965 -0.2484  0.5983
21981SOL    HW168575   5.194   4.881   4.696 -3.9738  0.2523 -1.4352
21981SOL    HW268576   5.188   5.022   4.751  2.9114 -0.4641  2.3849
21982SOL     OW68577   2.070   1.692   7.616  0.7675  0.3658 -0.0205
21982SOL    HW168578   2.073   1.730   7.528 -0.3052  2.4302  0.7553
21982SOL    HW268579   2.158   1.708   7.651  0.6143  1.3425 -0.0494
21983SOL     OW68580   2.184   3.997   5.163 -0.8649  0.1718  0.1016
21983SOL    HW168581   2.097   3.971   5.135 -0.0273 -1.9387 -0.7460
21983SOL    HW268582   2.227   4.027   5.083 -0.1920 -0.7309  0.1073
21984SOL     OW68583   3.897   2.430   4.933  0.3118 -0.5373 -0.2123
21984SOL    HW168584   3.809   2.402   4.958 -0.0122 -0.2179 -0.9599
21984SOL    HW268585   3.951   2.412   5.010 -0.4578 -0.4767  0.3536
21985SOL     OW68586   8.671   9.492   3.498  0.3614  0.2439  0.6505
21985SOL    HW168587   8.704   9.580   3.479 -2.4922  1.2499 -0.1109
21985SOL    HW268588   8.740   9.452   3.551  2.1901  2.5571  0.2060
21986SOL     OW68589   8.761   0.666   5.804  0.4484  0.4120  0.8309
21986SOL    HW168590   8.696   0.652   5.735 -0.5563 -2.4021  2.1589
21986SOL    HW268591   8.714   0.715   5.872 -0.1994 -1.1104  1.5374
21987SOL     OW68592   8.303   4.345   6.236  0.4089 -0.3665 -0.3240
21987SOL    HW168593   8.394   4.363   6.210  0.5994  0.5458  0.8780
21987SOL    HW268594   8.266   4.431   6.254 -0.3945 -0.8098  0.1595
21988SOL     OW68595   2.772   0.911   1.956 -0.1606  0.0696 -0.5922
21988SOL    HW168596   2.867   0.899   1.960 -0.3328 -2.5639 -2.0644
21988SOL    HW268597   2.742   0.893   2.046  0.6706  0.2536 -0.2666
21989SOL     OW68598   2.052   2.923   3.552  0.0499  0.1994 -1.0085
21989SOL    HW168599   2.074   3.016   3.555  0.0479  0.2483 -1.9944
21989SOL    HW268600   2.134   2.879   3.573 -0.6042  0.3879  2.5263
21990SOL     OW68601   5.343   1.367   5.476 -0.5761 -0.3282 -0.1021
21990SOL    HW168602   5.422   1.313   5.475 -1.3938 -1.5653  0.7195
21990SOL    HW268603   5.316   1.372   5.385 -0.4079 -1.1731 -0.1997
21991SOL     OW68604   9.273   3.892   5.823 -0.3689  0.2058  0.2979
21991SOL    HW168605   9.192   3.942   5.825  0.5707  1.7856  0.4209
21991SOL    HW268606   9.297   3.881   5.915 -0.7842 -0.8599  0.2892
21992SOL     OW68607   7.392   7.504   5.362 -0.0764 -0.0813 -0.2186
21992SOL    HW168608   7.384   7.444   5.288 -3.3418 -0.3275  0.1807
21992SOL    HW268609   7.434   7.582   5.326 -1.3615 -0.2899 -2.3141
21993SOL     OW68610   3.117   7.612   2.934 -0.0281  0.0431 -0.6146
21993SOL    HW168611   3.059   7.682   2.904 -1.6476 -1.1861 -0.4747
21993SOL    HW268612   3.061   7.557   2.989  0.4098 -2.8682 -2.8579
21994SOL     OW68613   8.181   3.508   2.757  0.2400  0.5967 -0.2828
21994SOL    HW168614   8.089   3.520   2.780 -0.2138 -1.5658 -0.7695
21994SOL    HW268615   8.224   3.483   2.839  0.4723  1.8862  0.0024
21995SOL     OW68616   6.649   1.979   4.457  0.2832  0.0115 -0.2988
21995SOL    HW168617   6.588   1.948   4.525  0.9402 -1.7348 -0.4611
21995SOL    HW268618   6.628   1.926   4.380  0.3983  1.0981 -1.0995
21996SOL     OW68619   0.383   0.649   9.393 -0.7592 -0.2373 -0.6261
21996SOL    HW168620   0.404   0.742   9.406  0.0307 -0.7888  3.4399
21996SOL    HW268621   0.300   0.637   9.439  0.3330 -1.9475  0.9864
21997SOL     OW68622   7.549   6.487   6.660 -0.1917 -0.3044 -0.5795
21997SOL    HW168623   7.625   6.545   6.654 -0.5516  0.5668  1.9780
21997SOL    HW268624   7.587   6.399   6.667  0.5537  0.0337 -0.2347
21998SOL     OW68625   4.189   1.668  10.226  0.5773  0.8474 -0.3327
21998SOL    HW168626   4.100   1.668  10.260  0.6950 -0.0674  0.0066
21998SOL    HW268627   4.216   1.576  10.231  0.7562  0.7387 -2.4893
21999SOL     OW68628   0.645   3.843   9.490 -0.2590 -0.2356  0.0397
21999SOL    HW168629   0.707   3.907   9.454 -0.7136 -0.7929 -1.8446
21999SOL    HW268630   0.691   3.759   9.481  0.0205 -0.2925  1.7676
22000SOL     OW68631   8.722   9.146   8.712  0.7740 -0.0181 -0.3403
22000SOL    HW168632   8.746   9.120   8.623 -0.2551  0.2561 -0.7018
22000SOL    HW268633   8.673   9.072   8.746  0.2734  0.2944 -0.3735
22001SOL     OW68634   4.786   8.993   2.819 -0.6358  0.2166  0.5905
22001SOL    HW168635   4.834   8.911   2.804 -0.7348  0.4987 -1.7287
22001SOL    HW268636   4.848   9.061   2.793 -1.4665  0.7010 -0.1826
22002SOL     OW68637   2.446   7.020  10.206 -0.0065 -0.2330 -0.3228
22002SOL    HW168638   2.381   7.084  10.178 -1.5661 -1.1581  1.0491
22002SOL    HW268639   2.437   7.017  10.301  1.6533 -0.8313 -0.1549
22003SOL     OW68640   8.543   6.293   4.356  0.0508 -0.1690  0.7218
22003SOL    HW168641   8.451   6.269   4.368 -0.6829  1.3647 -1.1301
22003SOL    HW268642   8.555   6.292   4.261  1.3612  1.6637  0.8227
22004SOL     OW68643   7.596   4.680   8.948  0.6073 -0.1690 -0.1727
22004SOL    HW168644   7.672   4.704   9.000  1.3535 -1.8061 -0.4683
22004SOL    HW268645   7.631   4.635   8.872 -0.6366 -0.6601 -0.4911
22005SOL     OW68646   2.572   6.050   3.892 -0.0434 -0.4121  0.4524
22005SOL    HW168647   2.657   6.091   3.873 -0.9410  1.0666 -0.5682
22005SOL    HW268648   2.594   5.961   3.919  1.7812 -0.4203 -0.8625
22006SOL     OW68649   4.505   3.320   9.182  0.0718  0.1904 -0.8198
22006SOL    HW168650   4.415   3.344   9.204 -1.2924 -4.1635 -0.7799
22006SOL    HW268651   4.553   3.403   9.184 -3.9750  2.8151 -1.4224
22007SOL     OW68652   4.552   7.967   0.174  0.0925 -0.5134 -0.0051
22007SOL    HW168653   4.590   7.882   0.193  1.1974 -0.2375 -0.8701
22007SOL    HW268654   4.607   8.029   0.222 -0.2483 -0.2368  0.0269
22008SOL     OW68655   7.609   3.191   4.557  0.4062 -0.1841 -0.3063
22008SOL    HW168656   7.551   3.193   4.482  0.1764 -0.9436 -0.1654
22008SOL    HW268657   7.552   3.171   4.631  0.6343  0.5216  0.0624
22009SOL     OW68658   9.188   3.047   1.798  0.0950 -0.3410  0.0222
22009SOL    HW168659   9.163   2.967   1.751  2.2348 -0.7800 -0.4644
22009SOL    HW268660   9.276   3.067   1.766  1.4688 -0.3406  3.3794
22010SOL     OW68661   8.755   1.273   8.284 -0.0950 -0.2601 -0.0234
22010SOL    HW168662   8.782   1.241   8.369  1.0017 -2.6865 -1.1777
22010SOL    HW268663   8.817   1.233   8.222 -0.5403  1.7802 -1.9247
22011SOL     OW68664   4.694   3.023   5.759 -0.6297 -0.1589 -0.3310
22011SOL    HW168665   4.636   2.979   5.821 -1.2601  0.0165 -0.7874
22011SOL    HW268666   4.771   3.046   5.811 -1.2235  0.1447  0.4374
22012SOL     OW68667   7.839   3.027   9.754  0.7271 -0.3756  0.0222
22012SOL    HW168668   7.921   3.056   9.715  0.8443  1.4859  1.5380
22012SOL    HW268669   7.836   3.069   9.840 -1.0581 -1.7008  0.6852
22013SOL     OW68670   4.975   8.819   3.089 -0.0146 -0.4277 -0.1167
22013SOL    HW168671   4.925   8.797   3.010 -0.5368  0.7735 -0.1415
22013SOL    HW268672   5.062   8.781   3.073  0.1144  0.4225 -1.6090
22014SOL     OW68673   7.961   4.759   5.643  0.0389  0.1059 -0.1195
22014SOL    HW168674   8.038   4.805   5.611  1.2180 -1.9602 -0.3894
22014SOL    HW268675   7.888   4.798   5.594  0.7909  2.3332  0.3911
22015SOL     OW68676   1.298   2.707   0.801  0.2297 -0.7008 -0.0120
22015SOL    HW168677   1.288   2.614   0.817  1.0422 -0.8444 -0.2897
22015SOL    HW268678   1.392   2.721   0.797  0.1181 -0.0904 -1.2243
22016SOL     OW68679   1.665   8.357   3.242 -0.6042 -0.1482 -0.3225
22016SOL    HW168680   1.685   8.320   3.156 -1.0940  0.1343 -0.5630
22016SOL    HW268681   1.687   8.450   3.233  0.2219 -0.2897  0.1469
22017SOL     OW68682   1.600   6.836   2.925  0.2100  0.0552  0.1090
22017SOL    HW168683   1.672   6.819   2.865 -0.6016  0.5396 -1.0428
22017SOL    HW268684   1.528   6.864   2.869 -0.6273  0.3878  1.3019
22018SOL     OW68685   6.884   1.560   0.151 -0.1151  0.3727  0.5363
22018SOL    HW168686   6.790   1.543   0.163 -0.4543  1.7235  0.0097
22018SOL    HW268687   6.924   1.536   0.235 -0.8628 -0.5547  0.6491
22019SOL     OW68688   0.804   9.786   3.516  0.0007 -0.1667 -0.0163
22019SOL    HW168689   0.734   9.778   3.580  0.2148 -2.2342  0.0336
22019SOL    HW268690   0.822   9.696   3.488  2.6410  0.2500  0.0042
22020SOL     OW68691   9.329   2.632   6.113  0.5073 -0.1929  0.6747
22020SOL    HW168692   9.398   2.663   6.054 -0.3410  0.9146  0.2499
22020SOL    HW268693   9.250   2.677   6.084 -0.2716 -0.9419  1.5808
22021SOL     OW68694   1.195   9.639   3.888  0.3731 -0.7959 -0.0300
22021SOL    HW168695   1.171   9.647   3.980 -1.0637 -0.9323 -0.3627
22021SOL    HW268696   1.136   9.571   3.854  2.5037 -2.5287 -0.5199
22022SOL     OW68697   4.359   4.400   0.754 -0.0078  0.4650 -0.3480
22022SOL    HW168698   4.414   4.351   0.815 -1.2610 -1.6224 -0.7971
22022SOL    HW268699   4.311   4.462   0.810 -1.6690 -1.8806  1.0223
22023SOL     OW68700   1.466   1.053   8.312 -0.0982 -0.8054 -0.2258
22023SOL    HW168701   1.507   1.109   8.247  1.4319 -0.8045  0.6957
22023SOL    HW268702   1.457   0.968   8.269  0.4597 -0.6802 -0.5963
22024SOL     OW68703   3.768   3.341   5.745  0.5081  0.2977 -0.2142
22024SOL    HW168704   3.792   3.340   5.652  2.3175  0.3244  0.2175
22024SOL    HW268705   3.848   3.315   5.791 -0.7372 -1.1817  1.2792
22025SOL     OW68706   8.413   8.029   7.596 -0.8384 -0.1367 -0.6174
22025SOL    HW168707   8.319   8.011   7.600 -0.7830 -0.2237  0.9638
22025SOL    HW268708   8.454   7.942   7.594 -0.7763 -0.0994 -1.3861
22026SOL     OW68709   2.338   0.409   5.842 -0.6898 -0.1747 -0.4864
22026SOL    HW168710   2.255   0.377   5.807 -1.0229  0.6726 -0.4905
22026SOL    HW268711   2.314   0.450   5.925 -0.0144 -1.4972  0.4025
22027SOL     OW68712   5.335   5.009   1.962 -0.4490  0.2041  0.1614
22027SOL    HW168713   5.301   4.928   1.999  0.2214 -0.6044 -0.9364
22027SOL    HW268714   5.426   4.989   1.940 -0.1717  1.3624  0.1846
22028SOL     OW68715   5.459   9.387   2.755  0.3298  0.6667 -0.4962
22028SOL    HW168716   5.475   9.387   2.660 -0.0389 -2.2310 -0.6614
22028SOL    HW268717   5.518   9.320   2.789 -0.6208  0.5781  1.0773
22029SOL     OW68718   7.935   9.444   9.870 -0.1908  0.1995  0.1486
22029SOL    HW168719   8.004   9.471   9.810  1.4096 -1.1007  1.3315
22029SOL    HW268720   7.928   9.350   9.858 -0.0431 -0.0459  1.7559
22030SOL     OW68721   1.341   6.586   9.666  0.3154 -0.7018 -0.5990
22030SOL    HW168722   1.310   6.541   9.745 -0.2170 -0.4074 -0.6316
22030SOL    HW268723   1.273   6.652   9.648  1.4590  0.6765 -0.0701
22031SOL     OW68724   4.836   1.650   9.659 -0.1952 -0.3858 -0.0975
22031SOL    HW168725   4.745   1.626   9.672 -0.1127 -0.2617  0.7730
22031SOL    HW268726   4.874   1.575   9.613 -0.8456 -0.2201 -0.9129
22032SOL     OW68727   8.481   7.063   4.707  0.0975 -0.0408  0.1066
22032SOL    HW168728   8.479   7.102   4.794  2.3159  2.6716 -0.9159
22032SOL    HW268729   8.569   7.025   4.700  0.5548  1.1896 -1.4369
22033SOL     OW68730   4.238   6.371   9.804  0.0433 -0.2940 -0.5191
22033SOL    HW168731   4.189   6.407   9.879  1.3148 -0.1892  0.2894
22033SOL    HW268732   4.301   6.439   9.781  0.2916 -0.7045 -1.0794
22034SOL     OW68733   3.292   1.663   7.615  0.4474 -0.4429  0.1365
22034SOL    HW168734   3.341   1.687   7.536 -0.1927 -1.6342 -0.6536
22034SOL    HW268735   3.211   1.624   7.582 -0.5935  0.5441  1.4095
22035SOL     OW68736   9.233   0.307   2.975 -0.0531 -0.3905  0.1327
22035SOL    HW168737   9.225   0.235   3.039  3.0012 -1.8843 -0.9762
22035SOL    HW268738   9.278   0.376   3.024 -0.7246 -0.2149  0.5098
22036SOL     OW68739   3.977   4.228   0.198 -0.2032 -0.1499 -0.5904
22036SOL    HW168740   4.021   4.162   0.144  2.6173  0.6908  0.5294
22036SOL    HW268741   3.885   4.201   0.198  0.3296 -2.2987 -2.6740
22037SOL     OW68742   1.844   6.027   0.340 -0.6515 -0.0964 -0.5903
22037SOL    HW168743   1.824   5.938   0.369  2.7109 -0.6825  0.3148
22037SOL    HW268744   1.837   6.080   0.419 -0.0821 -0.0666 -0.5548
22038SOL     OW68745   0.599   9.474   3.192  0.1959 -0.0864 -0.1543
22038SOL    HW168746   0.601   9.380   3.211 -0.1204  0.0104  0.3700
22038SOL    HW268747   0.589   9.515   3.277  3.3305  0.5761  0.0295
22039SOL     OW68748  10.152   5.606   9.599  0.3971 -0.0762 -0.2874
22039SOL    HW168749  10.104   5.535   9.556  2.3732 -0.2448 -2.4196
22039SOL    HW268750  10.131   5.684   9.548  0.2659  0.3863  0.4507
22040SOL     OW68751   6.680   0.673   6.964 -0.2390 -0.2560 -0.2176
22040SOL    HW168752   6.682   0.640   6.875  0.2565  1.0120 -0.7043
22040SOL    HW268753   6.769   0.661   6.997 -0.8424 -2.4043  0.7884
22041SOL     OW68754   2.727   7.488   2.292  0.6052  0.2044  0.3041
22041SOL    HW168755   2.646   7.539   2.289  0.4414 -0.0830 -0.9836
22041SOL    HW268756   2.767   7.510   2.376 -0.6501  0.5956  0.8148
22042SOL     OW68757   4.788   0.105   8.435 -0.1580  0.4647 -0.1190
22042SOL    HW168758   4.792   0.027   8.491 -2.2392  1.8058  2.1143
22042SOL    HW268759   4.842   0.169   8.481 -0.4386  1.0740 -0.6298
22043SOL     OW68760   9.254   9.815   2.130  0.3826  0.0691 -0.4922
22043SOL    HW168761   9.346   9.841   2.116  0.5323 -0.3036 -0.2131
22043SOL    HW268762   9.260   9.731   2.175 -0.0922 -0.8234 -2.0108
22044SOL     OW68763   7.409   2.582   6.177 -0.5189  0.0370  0.2103
22044SOL    HW168764   7.461   2.512   6.216 -0.7948  1.0122  2.4795
22044SOL    HW268765   7.464   2.615   6.106 -1.0488 -3.4406 -2.0731
22045SOL     OW68766   6.911   5.225   2.858 -0.3952  0.5279  0.3575
22045SOL    HW168767   6.857   5.163   2.907  1.0212  0.2530  1.6279
22045SOL    HW268768   6.996   5.182   2.850 -0.0673  1.3352 -0.8133
22046SOL     OW68769   1.992   3.814   8.951 -0.1825 -0.2312  0.1063
22046SOL    HW168770   2.031   3.730   8.929  0.8117  0.3034 -0.2057
22046SOL    HW268771   1.903   3.792   8.979  1.0130 -1.7598  3.1549
22047SOL     OW68772   3.412   6.089   1.767 -0.3199  0.3505  0.7924
22047SOL    HW168773   3.466   6.012   1.749 -0.3175  0.0480  2.0183
22047SOL    HW268774   3.475   6.157   1.789 -0.4013  0.2503  1.3276
22048SOL     OW68775   2.257   6.027   6.843  0.6496  0.5528  0.1304
22048SOL    HW168776   2.325   5.969   6.877  0.0363 -0.3135 -0.0925
22048SOL    HW268777   2.211   5.975   6.777  0.7396  1.6347 -0.8352
22049SOL     OW68778   2.189   1.293   8.896  0.0867 -0.3088  0.3078
22049SOL    HW168779   2.099   1.264   8.882  0.5255 -1.1130 -0.9723
22049SOL    HW268780   2.225   1.303   8.808  0.9079  1.1306  0.7775
22050SOL     OW68781   3.452   2.224   3.962  0.4500 -0.9055 -0.3383
22050SOL    HW168782   3.360   2.222   3.937 -0.2381  0.9146  1.7103
22050SOL    HW268783   3.499   2.248   3.882 -0.8596 -1.6342 -1.3598
22051SOL     OW68784   1.685   8.029  10.304 -0.2507 -0.1587  0.3363
22051SOL    HW168785   1.615   8.002  10.363 -1.3554 -1.3405 -1.3909
22051SOL    HW268786   1.677   7.969  10.229  1.3873  0.9308 -0.7780
22052SOL     OW68787   9.052   0.473   3.171 -0.3586 -0.3954 -0.6491
22052SOL    HW168788   9.074   0.402   3.110  1.4836 -1.1133  0.7733
22052SOL    HW268789   8.978   0.437   3.222 -1.6456  0.0573 -2.1072
22053SOL     OW68790   5.583   7.143   8.577  0.5688  0.1882 -0.1887
22053SOL    HW168791   5.562   7.050   8.572 -1.4924  0.6956 -2.6720
22053SOL    HW268792   5.611   7.156   8.668 -0.1552 -2.6126  0.5337
22054SOL     OW68793   8.591   4.895   2.871 -0.0363 -0.0328  0.5401
22054SOL    HW168794   8.512   4.946   2.888  0.9836  1.0015  2.6424
22054SOL    HW268795   8.645   4.951   2.816 -1.9452 -2.0366 -3.8077
22055SOL     OW68796   4.127   1.467   6.565  0.0661 -0.4734 -0.0217
22055SOL    HW168797   4.065   1.435   6.630 -1.7179  1.6351 -0.5453
22055SOL    HW268798   4.074   1.483   6.487  1.4518  0.4572 -0.8219
22056SOL     OW68799   8.784   1.251   0.802 -0.4421  0.7800 -0.1100
22056SOL    HW168800   8.692   1.270   0.820 -0.9241 -1.4484  0.0730
22056SOL    HW268801   8.823   1.236   0.888 -0.3184  0.0451 -0.2903
22057SOL     OW68802   7.413   5.382   9.080 -0.1468  0.4592  0.1682
22057SOL    HW168803   7.384   5.449   9.142 -0.5745  2.4695 -2.0480
22057SOL    HW268804   7.506   5.401   9.066  0.1654 -0.5280  0.7825
22058SOL     OW68805   3.818   2.691   7.452 -0.9780 -0.2209  0.0755
22058SOL    HW168806   3.725   2.670   7.459 -1.0903  0.1535 -0.2452
22058SOL    HW268807   3.838   2.683   7.359 -0.8988  0.5371  0.0213
22059SOL     OW68808   9.205   2.889   7.963  0.1039 -0.6470  0.0457
22059SOL    HW168809   9.155   2.936   7.896  1.4826  0.8419 -0.0142
22059SOL    HW268810   9.165   2.915   8.045  0.3335  0.0206 -0.0429
22060SOL     OW68811   8.859   5.149   5.712 -0.2913 -0.2902 -0.7979
22060SOL    HW168812   8.867   5.235   5.672  3.6611 -0.4266 -0.6453
22060SOL    HW268813   8.836   5.091   5.640  1.1497  0.3102 -1.7709
22061SOL     OW68814   4.091  10.229   9.007  0.0914  0.2120 -0.5048
22061SOL    HW168815   4.123  10.310   9.046  1.5838 -0.6509  0.1609
22061SOL    HW268816   4.146  10.160   9.044 -1.4549 -1.1927 -0.6472
22062SOL     OW68817   9.059   3.692   1.324  0.5604 -0.5397  0.1005
22062SOL    HW168818   9.024   3.781   1.324 -3.6710 -1.9674  1.2422
22062SOL    HW268819   9.152   3.703   1.303  0.7329  4.2528  2.0446
22063SOL     OW68820   2.358   1.577   6.123  0.0877 -0.2037 -0.1026
22063SOL    HW168821   2.443   1.601   6.085  0.3984 -0.2477  0.5470
22063SOL    HW268822   2.295   1.630   6.075  0.1534 -2.0776 -2.4385
22064SOL     OW68823   8.772   7.924   0.063  0.1644  0.0542  0.3135
22064SOL    HW168824   8.691   7.939   0.014  0.4305 -0.3535 -0.2594
22064SOL    HW268825   8.834   7.890  -0.002  0.7637  0.2638  0.7683
22065SOL     OW68826   0.157   5.499   0.211  0.2539 -0.3537 -0.2595
22065SOL    HW168827   0.204   5.420   0.184 -0.2017  0.1454 -2.7091
22065SOL    HW268828   0.206   5.571   0.170 -1.2975  0.3552 -0.9216
22066SOL     OW68829   9.721   5.735   5.207 -0.3971  0.6188 -0.5813
22066SOL    HW168830   9.708   5.826   5.179 -1.3607  0.8424  0.5094
22066SOL    HW268831   9.646   5.717   5.264  0.2407 -0.5795 -0.0906
22067SOL     OW68832   7.404   0.743   0.582 -0.5334 -0.0182 -0.4460
22067SOL    HW168833   7.347   0.685   0.632 -0.7031  0.0844 -0.5197
22067SOL    HW268834   7.370   0.739   0.493 -1.3622  1.2100 -0.2033
22068SOL     OW68835   2.679   5.510  10.227  0.3153  0.3191 -0.4173
22068SOL    HW168836   2.608   5.566  10.259 -0.2923  0.0761 -1.2963
22068SOL    HW268837   2.692   5.446  10.297  1.6239  2.0203  1.0124
22069SOL     OW68838  10.348   5.316   9.438  0.3140 -0.1182 -0.5055
22069SOL    HW168839  10.370   5.406   9.460  1.0078 -0.2637 -0.5723
22069SOL    HW268840  10.272   5.323   9.380  1.4838  0.5349 -2.0206
22070SOL     OW68841   5.399   3.500   0.759 -0.1121 -0.7061 -0.1295
22070SOL    HW168842   5.324   3.442   0.775  0.0691 -0.3565  2.3582
22070SOL    HW268843   5.373   3.584   0.795  1.4395 -0.5775  0.7936
22071SOL     OW68844   6.015   1.295   5.838 -0.0370  0.1306  0.3148
22071SOL    HW168845   6.023   1.390   5.847  0.2193  0.2290 -0.7808
22071SOL    HW268846   6.078   1.260   5.901  0.0872  0.6884  0.5105
22072SOL     OW68847   4.941   9.879   7.896 -0.5529 -0.5589  0.2511
22072SOL    HW168848   4.907   9.966   7.918 -0.8784 -0.4612 -0.6199
22072SOL    HW268849   5.036   9.890   7.890 -0.4371 -0.6045  1.6410
22073SOL     OW68850   3.166   9.306   5.842  0.2934 -0.2242  0.2998
22073SOL    HW168851   3.250   9.352   5.835 -0.0002  0.1705 -0.9209
22073SOL    HW268852   3.119   9.350   5.912  0.7409  0.1495  0.3684
22074SOL     OW68853   0.021   6.021   2.154 -0.1800 -0.4970 -0.6008
22074SOL    HW168854  -0.071   6.035   2.130 -0.8506 -1.5043  1.1505
22074SOL    HW268855   0.034   6.075   2.232  0.8438 -0.0946 -1.0316
22075SOL     OW68856   5.319   8.984   6.091  0.3479 -0.2400 -0.0217
22075SOL    HW168857   5.313   8.969   6.185 -1.5342 -1.9766 -0.3364
22075SOL    HW268858   5.403   8.947   6.065 -0.4414 -2.5972  0.5746
22076SOL     OW68859   3.745   4.658   3.761 -0.3012 -0.0313 -0.0677
22076SOL    HW168860   3.792   4.703   3.832  0.4215  0.5790 -0.9127
22076SOL    HW268861   3.672   4.614   3.805  0.7933 -0.6207  1.2116
22077SOL     OW68862   7.714   5.651   9.433 -0.0448 -0.1670 -0.2738
22077SOL    HW168863   7.692   5.558   9.426  2.3467 -0.7590 -0.6304
22077SOL    HW268864   7.766   5.670   9.355 -0.4008  1.4651 -0.1583
22078SOL     OW68865   2.297   8.981   3.882  0.1273  0.1978  0.0469
22078SOL    HW168866   2.363   8.958   3.817 -0.7793 -0.0262 -0.8068
22078SOL    HW268867   2.235   8.908   3.880  0.9508 -0.7029  2.4066
22079SOL     OW68868   8.117   2.394   3.376 -0.1952 -0.5998  0.1054
22079SOL    HW168869   8.033   2.349   3.386 -0.6692  0.0670 -0.7106
22079SOL    HW268870   8.102   2.457   3.305  0.9573 -0.3762  0.0400
22080SOL     OW68871   5.577   2.745   7.491 -0.3501  0.5704  0.1412
22080SOL    HW168872   5.617   2.806   7.552  0.1439  2.8096 -2.2229
22080SOL    HW268873   5.489   2.780   7.476 -0.4617  0.0631 -0.4259
22081SOL     OW68874   7.806   4.355   9.177  0.0990  0.7785 -0.0966
22081SOL    HW168875   7.789   4.383   9.087  0.4407 -0.3411 -0.5169
22081SOL    HW268876   7.721   4.362   9.220 -0.2508  0.5266 -0.7295
22082SOL     OW68877   5.086   3.009   9.439 -0.3870  0.2343  0.5912
22082SOL    HW168878   5.028   2.972   9.506 -1.0920  2.6185  1.3898
22082SOL    HW268879   5.034   3.007   9.359  0.0149 -1.4962  0.3313
22083SOL     OW68880   9.777   7.189   0.867  0.1269  0.4224  0.1442
22083SOL    HW168881   9.691   7.230   0.856  0.5473  0.6960 -3.0162
22083SOL    HW268882   9.762   7.097   0.848  0.1560  0.0003  1.9918
22084SOL     OW68883   0.701   9.755   0.123  0.9067  0.3953 -0.2062
22084SOL    HW168884   0.747   9.793   0.048 -0.0542  0.5298 -0.7475
22084SOL    HW268885   0.765   9.696   0.163  1.6003  0.7103 -0.8298
22085SOL     OW68886   1.313   7.143   5.525 -0.3521  0.2207 -0.1147
22085SOL    HW168887   1.309   7.116   5.617 -2.2346  2.3796  0.5594
22085SOL    HW268888   1.240   7.097   5.483  0.1489 -0.3181 -0.4041
22086SOL     OW68889  10.132   6.089   6.574 -0.0307  0.2436 -0.4766
22086SOL    HW168890  10.207   6.067   6.629 -0.3108 -0.9606 -0.5321
22086SOL    HW268891  10.170   6.138   6.501  0.3755  1.6614  0.6308
22087SOL     OW68892   3.811   5.555   2.445  0.8061 -0.1506  0.5804
22087SOL    HW168893   3.876   5.625   2.452  0.2995  0.2701  1.3146
22087SOL    HW268894   3.861   5.477   2.421  1.2765  0.6254 -1.1135
22088SOL     OW68895  10.131   3.875   8.648 -0.1278  0.2383 -0.0176
22088SOL    HW168896  10.181   3.804   8.688 -1.2307 -0.4439  0.1895
22088SOL    HW268897  10.179   3.954   8.672  0.4021 -0.3230  0.8526
22089SOL     OW68898   1.526   6.706   5.761  0.1320 -0.0565  0.2981
22089SOL    HW168899   1.591   6.764   5.722  1.9373 -2.0540  0.1427
22089SOL    HW268900   1.449   6.762   5.776  1.4058  2.0876 -0.7277
22090SOL     OW68901   6.916   6.456   3.055  0.4343  0.2473 -0.3764
22090SOL    HW168902   6.865   6.439   2.976  0.0788  2.2049 -0.6051
22090SOL    HW268903   6.888   6.387   3.117 -0.7459 -0.1084 -1.2707
22091SOL     OW68904   5.178   0.575   0.354  0.4926  0.0674 -0.1822
22091SOL    HW168905   5.089   0.566   0.387  0.8196  2.3637  1.5641
22091SOL    HW268906   5.234   0.541   0.424  1.0655  0.9480 -0.2037
22092SOL     OW68907   1.951   7.524   1.157 -0.1450  0.2649  0.6640
22092SOL    HW168908   1.885   7.501   1.223 -0.0288  0.7265  0.9483
22092SOL    HW268909   2.010   7.448   1.154 -1.5195 -0.7964 -0.6792
22093SOL     OW68910   8.674   2.698   4.349 -0.2743  0.0272 -0.1116
22093SOL    HW168911   8.733   2.773   4.362 -0.3869 -0.1800  2.0032
22093SOL    HW268912   8.662   2.662   4.437 -2.8157 -0.5099 -0.6092
22094SOL     OW68913   8.533   1.568   3.320  0.1086 -0.2919 -0.0870
22094SOL    HW168914   8.542   1.561   3.225 -1.3032  0.7554 -0.3259
22094SOL    HW268915   8.555   1.659   3.339 -2.5978  0.3760  0.1585
22095SOL     OW68916   4.369  10.139   2.430 -0.7929 -0.4101 -0.0133
22095SOL    HW168917   4.396  10.112   2.342 -3.5252  0.4762 -1.2319
22095SOL    HW268918   4.375  10.059   2.483 -0.5050 -1.3072 -1.3649
22096SOL     OW68919   9.497   7.870   9.639 -0.0827  0.1541 -0.1338
22096SOL    HW168920   9.417   7.821   9.620 -0.7077  1.5175 -1.1515
22096SOL    HW268921   9.526   7.837   9.724 -1.3588 -0.8265 -0.0618
22097SOL     OW68922   8.487   3.844   4.241 -0.1978  0.6322  0.1270
22097SOL    HW168923   8.528   3.758   4.251  1.7670  1.5053 -0.0661
22097SOL    HW268924   8.483   3.858   4.146 -0.3034  0.8578  0.1637
22098SOL     OW68925   3.028   0.021   5.915 -0.5965  0.2483  0.0130
22098SOL    HW168926   3.117   0.043   5.888 -1.0341  0.5898 -1.2512
22098SOL    HW268927   2.976   0.027   5.834 -1.6600 -0.5249  0.6031
22099SOL     OW68928   5.377   2.194   6.074  0.2918 -0.1840 -0.4850
22099SOL    HW168929   5.385   2.286   6.101  1.6102 -0.0266 -1.2973
22099SOL    HW268930   5.411   2.192   5.984 -2.3740 -0.9932 -1.5615
22100SOL     OW68931   6.803   0.657   2.769 -0.5953  0.3739 -0.0001
22100SOL    HW168932   6.795   0.617   2.682 -1.3151 -0.0175  0.2391
22100SOL    HW268933   6.768   0.745   2.759 -2.2104 -0.2080  0.2545
22101SOL     OW68934   6.919   3.558   1.510  0.8829 -0.3354 -1.1004
22101SOL    HW168935   6.994   3.584   1.564  0.5320 -0.0563 -0.7440
22101SOL    HW268936   6.897   3.636   1.459  0.6858 -0.3451 -1.0310
22102SOL     OW68937   5.549   0.397   0.705  0.1801  0.0211  0.1972
22102SOL    HW168938   5.536   0.458   0.778 -0.9161  1.7454 -1.3478
22102SOL    HW268939   5.625   0.432   0.658 -0.7132  0.4776 -0.9387
22103SOL     OW68940   6.769  10.183   9.508 -0.0746  0.0923 -0.2428
22103SOL    HW168941   6.822  10.106   9.526  1.5562  1.1076 -0.4212
22103SOL    HW268942   6.827  10.240   9.457 -2.1435  0.3023 -2.5224
22104SOL     OW68943   7.536   6.630   3.470 -0.3587  0.1675 -0.0316
22104SOL    HW168944   7.508   6.551   3.516 -0.2360 -0.7930 -1.5583
22104SOL    HW268945   7.616   6.657   3.516  0.1170 -1.1338 -0.0671
22105SOL     OW68946   1.820   2.541   3.133 -0.1986  0.0048  0.1914
22105SOL    HW168947   1.787   2.625   3.100 -0.9383  0.1731  1.3155
22105SOL    HW268948   1.747   2.506   3.184  0.1628 -1.2574 -0.1300
22106SOL     OW68949   0.075   5.976   2.615  0.7112 -0.3456 -0.0746
22106SOL    HW168950  -0.009   5.989   2.658  0.6847  2.1285 -0.7307
22106SOL    HW268951   0.080   6.046   2.550  1.1532 -3.2425 -3.5474
22107SOL     OW68952   6.475   5.375   0.585 -0.0740 -0.1816  0.0155
22107SOL    HW168953   6.463   5.284   0.559  1.8470 -0.3610 -0.3643
22107SOL    HW268954   6.434   5.426   0.515 -0.2147 -0.7319 -0.3065
22108SOL     OW68955   0.313   8.783   3.884 -0.8754 -0.2745  0.1343
22108SOL    HW168956   0.332   8.795   3.977  0.3346  1.2330 -0.2692
22108SOL    HW268957   0.217   8.778   3.880 -0.8983 -1.9876  1.5957
22109SOL     OW68958   5.585   5.873   1.027 -0.3964  0.2897 -0.1515
22109SOL    HW168959   5.498   5.853   0.991 -0.3479  1.0052 -0.6908
22109SOL    HW268960   5.571   5.875   1.122 -0.3437 -2.4305 -0.0252
22110SOL     OW68961   4.859   2.350   9.164  0.3623 -0.5220 -0.6036
22110SOL    HW168962   4.799   2.420   9.138 -0.3642 -1.3014 -1.0859
22110SOL    HW268963   4.845   2.340   9.258  0.9524  0.4220 -0.4137
22111SOL     OW68964  10.235   4.534   5.298  0.1222 -0.5188 -0.4244
22111SOL    HW168965  10.285   4.614   5.316  0.6948 -0.5855 -1.6193
22111SOL    HW268966  10.209   4.543   5.206  0.1394 -1.6923 -0.5507
22112SOL     OW68967   6.929   1.805   5.429  0.3096  0.0729  0.1864
22112SOL    HW168968   6.863   1.779   5.494 -0.0784 -1.5302 -0.8031
22112SOL    HW268969   6.880   1.858   5.366  0.3199  0.2103  0.2931
22113SOL     OW68970   3.952   8.337   1.955 -0.5885 -0.3197  0.2365
22113SOL    HW168971   4.045   8.350   1.971 -0.6260 -2.0350  2.2544
22113SOL    HW268972   3.948   8.253   1.908 -1.1396 -0.3198  0.2780
22114SOL     OW68973   6.195   8.244   5.129 -0.2590  0.3556  0.4974
22114SOL    HW168974   6.285   8.243   5.097 -0.4358 -0.7671 -0.0139
22114SOL    HW268975   6.203   8.252   5.224  0.4376 -1.1173  0.5880
22115SOL     OW68976   6.535   0.919   3.028 -0.0148 -0.2584  0.3017
22115SOL    HW168977   6.627   0.947   3.030 -0.8111  2.8746 -0.4242
22115SOL    HW268978   6.505   0.929   3.118 -0.1163  0.8282  0.1714
22116SOL     OW68979   5.020   2.643   2.423 -0.6598  1.0123  0.0095
22116SOL    HW168980   5.096   2.694   2.453 -1.5501  0.7439  3.0937
22116SOL    HW268981   5.052   2.553   2.421 -0.1828  1.1891 -1.4872
22117SOL     OW68982   0.623   4.755  10.222  0.1193  0.2720 -0.0570
22117SOL    HW168983   0.688   4.799  10.277 -0.4382  0.5208  0.4244
22117SOL    HW268984   0.557   4.823  10.204 -0.6321 -0.2876  0.4939
22118SOL     OW68985   7.806   7.749   7.336 -0.1001  0.0628 -0.2117
22118SOL    HW168986   7.730   7.694   7.317 -0.9048  0.1428  2.3919
22118SOL    HW268987   7.879   7.703   7.294 -1.0367 -2.0096  0.2726
22119SOL     OW68988   2.236   8.851   2.197 -0.3294  0.1812  0.2579
22119SOL    HW168989   2.252   8.939   2.232  2.5646 -0.7866  1.6622
22119SOL    HW268990   2.193   8.804   2.268  2.4986 -0.8163  1.4464
22120SOL     OW68991   9.254   9.424   3.496  0.0918  0.0478  0.0245
22120SOL    HW168992   9.347   9.434   3.479 -0.1085 -1.1936 -2.2648
22120SOL    HW268993   9.216   9.509   3.474  0.4260 -0.1925 -1.6795
22121SOL     OW68994   5.912   0.114   2.492 -0.5782  0.2592 -0.4268
22121SOL    HW168995   5.833   0.061   2.487 -0.0701 -0.3776 -2.7596
22121SOL    HW268996   5.929   0.140   2.402  2.0164  0.1716 -0.0245
22122SOL     OW68997   8.132   5.868  10.282  0.1801 -0.1351 -0.4312
22122SOL    HW168998   8.119   5.924  10.206 -1.7464 -1.9553 -1.5626
22122SOL    HW268999   8.224   5.842  10.276  1.4944  3.5869  0.7695
22123SOL     OW69000   6.352   6.701   9.687 -0.4167  0.9103  0.1683
22123SOL    HW169001   6.437   6.730   9.720  0.0879  0.0126 -0.3221
22123SOL    HW269002   6.349   6.608   9.707 -0.9545  0.7697 -0.5353
22124SOL     OW69003   7.409   8.819   4.681  0.0949 -0.1863 -0.6737
22124SOL    HW169004   7.373   8.897   4.723 -1.1128 -1.1120  0.0596
22124SOL    HW269005   7.342   8.793   4.617 -0.1874 -1.4399  0.0997
22125SOL     OW69006  10.100   4.992   7.079  0.5512 -0.5993 -0.0720
22125SOL    HW169007  10.027   5.024   7.132  0.5577  0.7142 -0.8108
22125SOL    HW269008  10.175   4.995   7.138  0.6857  1.4569 -0.2763
22126SOL     OW69009   0.658   5.302  10.120  0.2922  0.1966  0.0406
22126SOL    HW169010   0.753   5.307  10.131  0.6733 -1.8455 -1.6965
22126SOL    HW269011   0.623   5.312  10.208  2.1942 -0.1939  0.8897
22127SOL     OW69012   8.046   0.913   5.655  0.6375  0.3159 -0.3624
22127SOL    HW169013   8.021   1.005   5.655  1.4504  0.5570  0.7733
22127SOL    HW269014   8.141   0.913   5.646  0.6848 -0.3834  0.0071
22128SOL     OW69015   7.021   2.653   0.065  0.3065  0.0034  0.1609
22128SOL    HW169016   6.968   2.725   0.099 -0.1289  0.1568 -0.8260
22128SOL    HW269017   6.991   2.576   0.114  2.0194  0.7193  2.5542
22129SOL     OW69018   6.074   6.575   9.087 -0.3150 -0.3966  0.2031
22129SOL    HW169019   6.077   6.652   9.031 -0.3166 -0.3562  0.2591
22129SOL    HW269020   6.136   6.514   9.047 -1.4224 -0.9563 -0.7087
22130SOL     OW69021   9.603   7.238   5.409  0.3862  0.0882  0.9668
22130SOL    HW169022   9.507   7.238   5.417  0.1298 -0.7722 -1.3537
22130SOL    HW269023   9.627   7.145   5.417  0.5846 -0.1994 -1.8744
22131SOL     OW69024   5.106   1.750   2.855 -0.5323 -0.4086  0.0864
22131SOL    HW169025   5.192   1.775   2.889 -0.8541  0.2642  0.4325
22131SOL    HW269026   5.110   1.771   2.762 -1.0584  1.7624  0.5044
22132SOL     OW69027   0.037   3.611   3.108  0.3620  0.0883 -0.4000
22132SOL    HW169028  -0.051   3.603   3.069  0.1965  0.7996 -0.1930
22132SOL    HW269029   0.058   3.523   3.137 -0.5975  0.0352  0.1938
22133SOL     OW69030   4.042   4.918   5.577  0.5720  0.2775 -0.2416
22133SOL    HW169031   4.023   4.937   5.669 -0.0529  2.2928 -0.7411
22133SOL    HW269032   4.108   4.849   5.580 -0.5761 -0.8398  1.6766
22134SOL     OW69033   6.588   2.749   3.207 -0.1532 -0.0626 -0.0657
22134SOL    HW169034   6.656   2.708   3.153 -1.5194  0.3257 -2.2005
22134SOL    HW269035   6.565   2.682   3.271  1.8257 -0.3851  0.3854
22135SOL     OW69036   9.346   2.043   1.029  0.3646  0.1795  0.0681
22135SOL    HW169037   9.341   1.982   1.103  0.0188 -0.1879 -0.2536
22135SOL    HW269038   9.275   2.106   1.045  0.7214  0.5027  0.3987
22136SOL     OW69039   7.366   4.906   0.213 -0.2171  0.6528  0.0079
22136SOL    HW169040   7.311   4.843   0.168  0.7800  0.2852 -0.7260
22136SOL    HW269041   7.425   4.939   0.146 -0.0488  1.6150  0.6071
22137SOL     OW69042   4.333   0.974   0.835 -0.5916  0.4908 -0.1672
22137SOL    HW169043   4.289   1.044   0.882  0.6238  1.4692 -0.4523
22137SOL    HW269044   4.420   1.008   0.815 -0.4085 -0.6105 -1.4415
22138SOL     OW69045   6.004   5.266   3.226 -0.0644 -0.0093  0.2491
22138SOL    HW169046   5.966   5.191   3.181 -1.1076  0.1897  0.7737
22138SOL    HW269047   6.098   5.261   3.206  0.0100 -1.8541  0.8539
22139SOL     OW69048   9.982   0.086   0.039  0.7278  0.0610 -0.0964
22139SOL    HW169049  10.036   0.131   0.105 -0.5136 -0.1139  1.0696
22139SOL    HW269050  10.038   0.014   0.008  1.9749  1.1647 -0.5350
22140SOL     OW69051   6.738   5.381   0.633 -0.0409  0.1352 -0.7379
22140SOL    HW169052   6.649   5.387   0.598  0.2263  0.0773 -1.4492
22140SOL    HW269053   6.729   5.402   0.726 -1.1486 -2.0939 -0.2694
22141SOL     OW69054   9.940   6.763   5.605  0.0938 -0.0326 -0.5617
22141SOL    HW169055   9.994   6.717   5.541  0.0566  2.1283 -2.2220
22141SOL    HW269056   9.978   6.738   5.690  0.6474 -2.3234 -1.4121
22142SOL     OW69057   1.855   1.593   9.175  0.4099 -0.4340  0.5617
22142SOL    HW169058   1.821   1.666   9.227 -1.5588 -1.7515  1.2477
22142SOL    HW269059   1.784   1.573   9.113  1.2700 -1.2163 -0.1986
22143SOL     OW69060   9.945   2.166   4.665 -1.4816 -0.1987  0.7066
22143SOL    HW169061   9.948   2.219   4.585 -1.7070 -0.3588  0.5914
22143SOL    HW269062   9.893   2.218   4.727  0.1626  0.7508  1.3634
22144SOL     OW69063   3.948   7.338   2.273  0.3210  0.7386  0.3703
22144SOL    HW169064   3.929   7.304   2.361  2.6747  1.1563  1.0997
22144SOL    HW269065   3.890   7.414   2.264  0.7074  1.2624  1.9619
22145SOL     OW69066   4.273   1.019   7.410  0.3276  0.4580  0.0731
22145SOL    HW169067   4.275   1.111   7.384 -1.3297  0.6336  0.4881
22145SOL    HW269068   4.189   1.007   7.454  0.5040 -1.2599  0.0410
22146SOL     OW69069   8.676   4.130   4.575  0.4779  0.2442 -0.0289
22146SOL    HW169070   8.736   4.156   4.505  1.4620 -1.4592  0.1021
22146SOL    HW269071   8.687   4.196   4.643  0.9381  0.8915 -0.7223
22147SOL     OW69072   0.889   4.759   8.868  0.0547  0.3338 -0.3955
22147SOL    HW169073   0.845   4.705   8.802  0.3949 -0.4804  0.0309
22147SOL    HW269074   0.946   4.698   8.915  0.1191  0.9795  0.3877
22148SOL     OW69075   3.696   7.548   2.609  0.2291  0.2037 -0.0372
22148SOL    HW169076   3.720   7.632   2.570  0.1986  1.3911  2.3536
22148SOL    HW269077   3.602   7.540   2.593  0.2739  0.5130 -0.4728
22149SOL     OW69078   9.015   8.193   6.988  0.3947 -0.3471 -0.1828
22149SOL    HW169079   9.019   8.252   6.913 -1.3718 -0.0405 -0.0609
22149SOL    HW269080   8.997   8.107   6.951 -1.8424  0.0258 -0.0702
22150SOL     OW69081   1.951   7.135   0.968 -0.5169  0.2180  0.3028
22150SOL    HW169082   2.004   7.059   0.945 -2.4252 -0.9613 -0.3986
22150SOL    HW269083   1.905   7.109   1.048 -1.4572  0.4734 -0.1449
22151SOL     OW69084   6.236   9.908   2.627  0.2190  0.3186 -0.1507
22151SOL    HW169085   6.203   9.832   2.579 -0.8699 -0.2539  1.4164
22151SOL    HW269086   6.331   9.903   2.620  0.1128  0.3486 -2.3144
22152SOL     OW69087   3.149   7.044   1.800 -0.2654 -0.1894  0.1585
22152SOL    HW169088   3.054   7.054   1.799 -0.1309  1.4611  0.5283
22152SOL    HW269089   3.164   6.956   1.766 -1.8810 -0.1412 -0.8078
22153SOL     OW69090   4.244   4.942   0.398  0.1870 -0.2243  0.5524
22153SOL    HW169091   4.312   4.999   0.361 -0.3218 -0.9277 -1.6021
22153SOL    HW269092   4.174   5.002   0.423  0.1688  0.2304 -0.5237
22154SOL     OW69093   0.536   0.078   5.888 -0.1451 -0.5062  0.5826
22154SOL    HW169094   0.461   0.138   5.891  0.4698  0.2287  2.1525
22154SOL    HW269095   0.563   0.079   5.796 -0.9270  0.6549  0.3347
22155SOL     OW69096   0.594   5.918   1.785  0.0895  0.6523 -0.5080
22155SOL    HW169097   0.593   5.825   1.764  0.6510  0.1208  1.6046
22155SOL    HW269098   0.616   5.961   1.703  0.6797 -1.1435 -1.3351
22156SOL     OW69099   3.367   0.705   9.478 -0.0684 -0.0430 -0.1181
22156SOL    HW169100   3.307   0.780   9.472 -1.0982 -0.7227  1.1640
22156SOL    HW269101   3.375   0.674   9.388  0.1523  1.4271 -0.6328
22157SOL     OW69102   5.797   7.506   7.683 -0.1423 -0.1558  0.2791
22157SOL    HW169103   5.817   7.469   7.769  0.1461 -1.8985 -0.4997
22157SOL    HW269104   5.741   7.582   7.702  0.7606  0.1090  2.0383
22158SOL     OW69105   6.574   7.470   2.642 -0.1485  0.4705  0.4277
22158SOL    HW169106   6.506   7.516   2.594  0.8037  1.3471 -0.1210
22158SOL    HW269107   6.543   7.380   2.648 -0.1115  0.2202 -2.2232
22159SOL     OW69108   7.075   0.227   4.660 -0.5349  0.0746 -0.4083
22159SOL    HW169109   7.027   0.221   4.578  0.1803 -2.6343 -0.7100
22159SOL    HW269110   7.022   0.177   4.723  0.4543 -0.5227 -0.0292
22160SOL     OW69111   0.751   9.980   9.084 -0.0191 -0.1469  0.1563
22160SOL    HW169112   0.834   9.935   9.075  0.9548  1.2907  1.4123
22160SOL    HW269113   0.769  10.069   9.055 -1.5330 -0.1735 -0.9760
22161SOL     OW69114   5.716   4.047   7.250  0.6405 -0.4145 -0.1825
22161SOL    HW169115   5.789   3.998   7.287  2.0878 -0.5152 -2.9069
22161SOL    HW269116   5.754   4.095   7.176 -0.9737  3.7616  1.3706
22162SOL     OW69117   5.078   5.387   7.659  0.5251 -0.2767 -0.0940
22162SOL    HW169118   5.115   5.465   7.701 -0.2889  0.1174 -0.0911
22162SOL    HW269119   5.114   5.314   7.708 -1.3965  0.1922  2.1877
22163SOL     OW69120   6.458   6.522   1.510  0.9343  0.6780 -0.4072
22163SOL    HW169121   6.538   6.470   1.506 -0.8401 -2.3549  0.0247
22163SOL    HW269122   6.428   6.526   1.419 -0.0330 -1.0811 -0.2104
22164SOL     OW69123   9.033   8.332   1.098 -0.8226  0.2625 -0.4100
22164SOL    HW169124   9.029   8.407   1.038 -0.7853  0.6123  0.0221
22164SOL    HW269125   9.123   8.301   1.091 -0.9844 -0.1022 -1.0171
22165SOL     OW69126   8.338   8.141   9.495 -0.8471 -0.4604 -0.3521
22165SOL    HW169127   8.295   8.198   9.431 -0.7943 -0.6970 -0.5984
22165SOL    HW269128   8.385   8.076   9.443  0.7665  0.4653 -0.1098
22166SOL     OW69129   9.153   8.226   5.161  0.3556 -0.5445 -0.2497
22166SOL    HW169130   9.234   8.223   5.110  0.2995 -0.1630 -0.3661
22166SOL    HW269131   9.117   8.137   5.155  1.9118 -1.3862  1.7008
22167SOL     OW69132   1.890   5.207   1.135 -0.9483 -0.4798  0.6940
22167SOL    HW169133   1.936   5.289   1.149 -1.5661 -0.0949  0.4905
22167SOL    HW269134   1.934   5.145   1.193 -0.6863  0.0707  1.0896
22168SOL     OW69135   5.208  10.231   7.195 -0.1380  0.2538  0.1448
22168SOL    HW169136   5.294  10.272   7.190  0.6543 -1.2365  0.8497
22168SOL    HW269137   5.189  10.204   7.105  2.0064 -2.9060  0.4537
22169SOL     OW69138   5.800   3.570   9.407 -0.6331 -0.0693  0.3088
22169SOL    HW169139   5.756   3.488   9.429 -3.1323  0.8750 -0.8426
22169SOL    HW269140   5.729   3.634   9.398  1.1681  2.0466  0.3463
22170SOL     OW69141   1.216   1.559   5.078 -0.2398  0.0534  0.3492
22170SOL    HW169142   1.271   1.485   5.054 -2.4415 -0.3631 -4.8927
22170SOL    HW269143   1.265   1.636   5.049 -0.6052  0.0036 -0.4501
22171SOL     OW69144   2.203   4.935  10.141  0.7003 -0.4999 -0.4357
22171SOL    HW169145   2.210   5.005  10.205 -0.8960 -1.7272  1.1866
22171SOL    HW269146   2.263   4.867  10.173  0.4337 -0.8352 -0.6391
22172SOL     OW69147   2.823   6.327   6.203 -0.3816  0.5785 -0.2302
22172SOL    HW169148   2.731   6.321   6.179 -0.2292  1.4808 -1.1191
22172SOL    HW269149   2.838   6.252   6.262 -1.0640 -1.1225 -2.0980
22173SOL     OW69150   4.079   2.704   5.304 -0.4213  0.1491 -0.2035
22173SOL    HW169151   4.000   2.664   5.339  0.5911 -1.1778  0.6646
22173SOL    HW269152   4.143   2.696   5.375  0.7604  0.3145 -1.2192
22174SOL     OW69153   7.833   3.118   6.756 -0.0860  0.2371  0.4133
22174SOL    HW169154   7.806   3.190   6.700 -0.8233 -0.6274 -0.3941
22174SOL    HW269155   7.755   3.098   6.808 -0.4148 -0.9664 -0.4887
22175SOL     OW69156   8.267   1.534   0.340 -0.1183 -0.3821 -0.3294
22175SOL    HW169157   8.215   1.522   0.419 -0.9784 -0.0283 -0.8224
22175SOL    HW269158   8.338   1.593   0.366  0.3119 -1.2366  0.4619
22176SOL     OW69159   8.083   0.094   9.201  0.6010 -0.0909  0.2027
22176SOL    HW169160   8.038   0.012   9.182 -0.6696  0.6399 -0.0048
22176SOL    HW269161   8.052   0.118   9.288  0.8865  0.2235  0.2171
22177SOL     OW69162   1.029   9.288   5.489 -0.1234  0.5350  0.3110
22177SOL    HW169163   1.080   9.275   5.570 -2.1742 -0.3296  1.5423
22177SOL    HW269164   1.037   9.204   5.443 -1.0761  0.0720  0.9399
22178SOL     OW69165   7.344   7.079   2.991 -0.3522 -0.3103 -0.0497
22178SOL    HW169166   7.303   7.099   2.907 -0.6046  0.2800  0.2113
22178SOL    HW269167   7.409   7.011   2.970 -0.7423 -0.5139 -0.6356
22179SOL     OW69168   7.677   2.627   2.102  0.3767  0.3444 -0.1682
22179SOL    HW169169   7.721   2.549   2.134  0.3095  0.5782  0.5120
22179SOL    HW269170   7.695   2.694   2.168 -3.1325 -0.1973  1.6016
22180SOL     OW69171   5.217   1.626   4.212 -0.0933  0.1153  0.3093
22180SOL    HW169172   5.177   1.685   4.275  1.3975 -0.1443  1.5746
22180SOL    HW269173   5.298   1.669   4.186  0.7170 -1.0556  0.7875
22181SOL     OW69174   0.606   0.523   8.920  0.1581 -0.6494  0.0690
22181SOL    HW169175   0.632   0.596   8.975  1.0606 -0.4454 -0.6039
22181SOL    HW269176   0.552   0.468   8.976  1.3268 -0.6247  1.2429
22182SOL     OW69177   7.060   0.722   2.855 -0.4143 -0.1183  0.1351
22182SOL    HW169178   7.101   0.647   2.898 -0.7488 -0.5197 -0.2387
22182SOL    HW269179   6.972   0.692   2.832 -1.4547  1.1701  2.1526
22183SOL     OW69180   8.461   3.285   5.853  0.1061  0.2198 -0.7819
22183SOL    HW169181   8.535   3.321   5.804 -0.5278  0.7139 -1.3984
22183SOL    HW269182   8.434   3.356   5.912  0.2391 -0.0292 -0.4135
22184SOL     OW69183   4.243   3.393   4.361  1.0239  0.9003 -0.6607
22184SOL    HW169184   4.153   3.407   4.330  0.6081  1.0085  0.5271
22184SOL    HW269185   4.267   3.476   4.403  0.2827 -0.2307  2.2547
22185SOL     OW69186   4.512   4.143   9.537 -0.4108  0.4608 -0.7716
22185SOL    HW169187   4.542   4.127   9.448  0.8827 -0.1675 -0.2524
22185SOL    HW269188   4.586   4.183   9.581 -0.6189 -0.3025  0.3279
22186SOL     OW69189   8.240   8.961   6.835 -0.2420  0.0707  0.0317
22186SOL    HW169190   8.256   9.053   6.857  2.4047 -0.3860  0.3245
22186SOL    HW269191   8.238   8.959   6.739 -0.5425  0.4469  0.0271
22187SOL     OW69192   1.207   1.145   5.136  0.1613 -0.0043  0.4448
22187SOL    HW169193   1.248   1.219   5.092  1.6087 -0.6781  0.6130
22187SOL    HW269194   1.232   1.068   5.084  1.3761 -0.7376  2.0307
22188SOL     OW69195   2.906   5.715   0.726  0.3001 -0.0969  0.1944
22188SOL    HW169196   2.997   5.737   0.707  0.1259  0.4133 -0.0749
22188SOL    HW269197   2.908   5.679   0.815  0.7917 -0.2941  0.1048
22189SOL     OW69198   5.790   4.269   9.057 -0.7600 -1.1451  0.8629
22189SOL    HW169199   5.765   4.242   9.145 -0.3940 -0.3165  1.2319
22189SOL    HW269200   5.755   4.201   9.000 -1.0978 -1.6321  1.6375
22190SOL     OW69201   5.561   7.523   1.541  0.4230  0.2192 -0.2032
22190SOL    HW169202   5.611   7.575   1.604  0.5591 -1.4126  1.0815
22190SOL    HW269203   5.583   7.432   1.562 -0.3915 -0.4110 -1.9030
22191SOL     OW69204   8.003   1.220   3.610 -0.5230 -0.3608  0.0910
22191SOL    HW169205   8.076   1.178   3.566 -0.7245  0.0190 -0.6327
22191SOL    HW269206   7.996   1.306   3.567 -0.2124  0.3488  1.4274
22192SOL     OW69207   5.916   1.029   7.690 -0.0003 -0.5202 -0.2586
22192SOL    HW169208   5.856   1.063   7.756  1.0317 -1.0147  0.9869
22192SOL    HW269209   5.868   0.958   7.648 -0.7217 -0.1074 -0.1445
22193SOL     OW69210   6.023   4.442   7.461  0.6000  0.2098  0.2161
22193SOL    HW169211   5.950   4.450   7.399  0.4687 -1.4629  0.1192
22193SOL    HW269212   5.980   4.434   7.546  0.6673 -0.3254  0.2053
22194SOL     OW69213   8.461   5.059   0.340  0.3159  0.4229  0.2171
22194SOL    HW169214   8.427   5.141   0.304  0.8001  0.0170 -1.2360
22194SOL    HW269215   8.409   5.044   0.420 -1.5315  0.8494 -0.8395
22195SOL     OW69216   2.176   1.735   6.000 -0.0549  0.0822  0.5202
22195SOL    HW169217   2.152   1.823   6.027 -2.1193 -0.9750  2.4841
22195SOL    HW269218   2.104   1.707   5.943 -0.2596 -0.8738  1.2209
22196SOL     OW69219   4.611   6.625   7.158  0.0895  0.0427  0.1056
22196SOL    HW169220   4.693   6.631   7.208  1.2349  0.3973 -1.7144
22196SOL    HW269221   4.624   6.551   7.099 -0.5877  0.5677 -0.7379
22197SOL     OW69222   2.122   9.073   3.130 -0.4281 -0.2814  0.2826
22197SOL    HW169223   2.210   9.036   3.142  0.9368  1.7746 -2.1907
22197SOL    HW269224   2.092   9.038   3.046 -0.4942  1.4935 -0.4896
22198SOL     OW69225   7.717   6.721   5.655 -0.3926  0.1609 -0.3898
22198SOL    HW169226   7.626   6.749   5.664 -0.4926  0.3409 -1.7364
22198SOL    HW269227   7.762   6.797   5.617  0.5413  0.4112  1.1137
22199SOL     OW69228   5.980   0.690   1.302  0.1773 -0.3622  0.0664
22199SOL    HW169229   5.977   0.698   1.397 -1.2065 -1.0626  0.1104
22199SOL    HW269230   5.910   0.749   1.271  1.3399  0.7127 -0.6007
22200SOL     OW69231   6.464   3.969   4.112  0.4961 -0.1726  0.1981
22200SOL    HW169232   6.515   3.906   4.062  0.9277  0.4881 -0.2175
22200SOL    HW269233   6.493   3.957   4.202  2.4835  1.1559 -0.1962
22201SOL     OW69234   7.471   1.904   5.879 -0.3716  0.5072 -0.1017
22201SOL    HW169235   7.463   1.999   5.874  0.3114  0.5535 -0.4101
22201SOL    HW269236   7.563   1.888   5.899 -0.6594 -0.0661  0.8381
22202SOL     OW69237   2.261   9.941   1.714  0.1064 -0.4340  0.0839
22202SOL    HW169238   2.242   9.849   1.734 -0.6929 -0.2999 -0.0318
22202SOL    HW269239   2.294   9.977   1.796  0.3637 -0.8001  0.1482
22203SOL     OW69240   3.669   2.327   7.822  0.1113  0.7702 -0.5759
22203SOL    HW169241   3.742   2.293   7.874 -0.6451 -1.6052 -0.9878
22203SOL    HW269242   3.707   2.341   7.735  0.5653  1.6561 -0.2595
22204SOL     OW69243   4.240   4.836   8.830 -0.1284 -0.0439  0.5541
22204SOL    HW169244   4.152   4.854   8.796 -0.0613 -1.1843 -0.2752
22204SOL    HW269245   4.299   4.866   8.762  0.0844 -0.3286  0.6092
22205SOL     OW69246   6.101   8.155   2.763  0.1593  0.1824 -0.7239
22205SOL    HW169247   6.108   8.211   2.840 -1.1449  0.3957 -0.7428
22205SOL    HW269248   6.187   8.159   2.722  0.6015  0.7669  0.2382
22206SOL     OW69249   2.330   2.061   6.828  0.9403 -0.3372 -0.6606
22206SOL    HW169250   2.266   2.029   6.765  1.6093 -0.5643 -1.2320
22206SOL    HW269251   2.296   2.031   6.913 -1.1734  1.9225 -0.6171
22207SOL     OW69252   3.907   8.159   5.279 -0.0888  0.3106 -0.3164
22207SOL    HW169253   3.959   8.201   5.347  0.8337 -0.9089 -0.2435
22207SOL    HW269254   3.857   8.092   5.325  0.5763 -0.5589 -0.8366
22208SOL     OW69255   7.635   0.462   7.667 -0.1088  0.4320 -0.3989
22208SOL    HW169256   7.641   0.372   7.701  0.4114  0.4335 -0.4872
22208SOL    HW269257   7.674   0.516   7.735 -2.3979  0.8647  0.6821
22209SOL     OW69258   7.738   3.111   7.853 -0.0488  0.1227  0.4343
22209SOL    HW169259   7.643   3.116   7.865 -0.1332  1.5550 -0.6531
22209SOL    HW269260   7.757   3.017   7.857 -1.4716 -0.1736  0.8843
22210SOL     OW69261   1.898   7.804   7.544  0.5668  0.3239  0.2737
22210SOL    HW169262   1.871   7.739   7.609 -0.8437  2.3529  1.8670
22210SOL    HW269263   1.991   7.785   7.529  0.0462 -2.5072  0.0159
22211SOL     OW69264   2.044   8.903   8.103  0.1269 -0.4193 -0.1081
22211SOL    HW169265   2.049   8.952   8.185 -3.7799 -0.1753  0.1625
22211SOL    HW269266   2.072   8.965   8.036 -0.9508  0.9260  0.6362
22212SOL     OW69267   2.567   4.723   8.808  0.0907 -0.1529 -0.0861
22212SOL    HW169268   2.644   4.743   8.755  0.8885 -0.2380  1.0290
22212SOL    HW269269   2.581   4.635   8.841 -0.5245 -0.1989  0.0779
22213SOL     OW69270   7.510   7.987   1.255 -0.1839  0.8610 -0.0705
22213SOL    HW169271   7.438   7.935   1.289  0.2748  0.3613  0.1430
22213SOL    HW269272   7.571   7.996   1.328  0.6546  0.0479 -0.6375
22214SOL     OW69273   7.804   5.136   7.767  0.0032  0.2404  0.2953
22214SOL    HW169274   7.848   5.183   7.695 -0.6988 -1.2645 -1.1855
22214SOL    HW269275   7.723   5.185   7.780  0.0586  0.4372 -0.0529
22215SOL     OW69276  10.019   1.138   4.966 -0.3824 -0.1715  0.4721
22215SOL    HW169277  10.066   1.196   4.906 -1.3985  1.7804  1.4914
22215SOL    HW269278   9.931   1.131   4.927 -0.1954 -1.2769  0.2202
22216SOL     OW69279   9.902   4.053   1.368  0.7340 -0.0692  0.2994
22216SOL    HW169280   9.994   4.056   1.341  1.0728  1.1812  1.4697
22216SOL    HW269281   9.902   4.000   1.447  0.6095  0.7159  0.8360
22217SOL     OW69282   3.950   7.443   5.217 -0.1909  0.5223  0.6209
22217SOL    HW169283   3.958   7.409   5.306  3.4926 -0.8601 -0.0520
22217SOL    HW269284   3.872   7.399   5.181  0.1084 -1.4014  2.1696
22218SOL     OW69285   5.202   2.331   0.377 -0.6620 -0.6791  0.2006
22218SOL    HW169286   5.290   2.346   0.343  0.1011 -1.9007  1.5397
22218SOL    HW269287   5.165   2.264   0.319 -1.1549  0.5814 -1.0090
22219SOL     OW69288   4.787   6.576   6.321  0.1123  0.3751  0.0578
22219SOL    HW169289   4.815   6.667   6.306  0.8181  0.2144  0.3511
22219SOL    HW269290   4.781   6.568   6.416  1.8021 -0.3695  0.1394
22220SOL     OW69291   1.038   3.292   9.095  0.0861 -0.1790  0.3758
22220SOL    HW169292   1.032   3.354   9.168  0.7301 -1.9629  2.0285
22220SOL    HW269293   0.949   3.287   9.060 -0.2175  0.7629  0.9877
22221SOL     OW69294   3.183   2.213   5.915 -0.4232 -0.4515  0.2209
22221SOL    HW169295   3.178   2.164   5.833 -0.4492 -0.8243  0.4436
22221SOL    HW269296   3.255   2.275   5.902 -0.0502 -0.9057  0.1300
22222SOL     OW69297   4.413   0.054   9.502  0.5198 -0.1610 -0.0182
22222SOL    HW169298   4.497   0.075   9.460  1.2114  1.4458  1.9843
22222SOL    HW269299   4.347   0.080   9.438  1.5075  2.7336 -0.0159
22223SOL     OW69300  10.329   9.694   0.348 -0.8955  0.2776 -0.3358
22223SOL    HW169301  10.365   9.606   0.349 -0.0180  0.6276 -0.0136
22223SOL    HW269302  10.252   9.688   0.292 -0.2891 -0.4742 -1.1201
22224SOL     OW69303   9.996   8.725   7.386 -0.0844  0.2228  0.5002
22224SOL    HW169304  10.070   8.782   7.365 -1.1253  2.7192  2.8976
22224SOL    HW269305   9.933   8.739   7.315  1.3830 -1.4135 -1.2073
22225SOL     OW69306   2.407   8.493   9.614 -0.4543 -0.1120  0.5221
22225SOL    HW169307   2.408   8.540   9.531  2.2378 -0.4031  0.3037
22225SOL    HW269308   2.419   8.401   9.590 -1.0207 -0.3705  1.1787
22226SOL     OW69309   6.062   7.342   9.934 -0.3834 -0.1506 -0.0892
22226SOL    HW169310   6.001   7.357  10.006 -0.7870  0.4358 -0.5431
22226SOL    HW269311   6.027   7.393   9.861 -0.7266 -1.7675 -1.1222
22227SOL     OW69312   0.325   5.980   7.077  0.3508 -0.5307 -0.2632
22227SOL    HW169313   0.398   5.929   7.113 -0.0644 -1.0106 -0.0944
22227SOL    HW269314   0.357   6.010   6.991  0.4473 -1.4382 -0.5574
22228SOL     OW69315   1.075   9.159   0.016 -0.6709  0.2830  0.8690
22228SOL    HW169316   1.034   9.157   0.103 -1.4988 -0.2479  0.4786
22228SOL    HW269317   1.013   9.113  -0.041  0.0340  0.2997  0.0664
22229SOL     OW69318   8.336   2.692   9.267 -0.4221  0.1503 -0.5678
22229SOL    HW169319   8.259   2.741   9.237 -0.6854  0.1473  0.0969
22229SOL    HW269320   8.310   2.600   9.259 -0.0155  0.1066 -1.5798
22230SOL     OW69321  10.029   7.351  10.033  0.0683  0.0871  0.4260
22230SOL    HW169322  10.100   7.411  10.008  1.3622 -1.3028  0.6112
22230SOL    HW269323   9.967   7.406  10.082  0.7312  1.4586 -0.2155
22231SOL     OW69324   8.801   6.058   2.930 -0.0900  0.2143 -0.1609
22231SOL    HW169325   8.821   6.036   3.021  2.2501 -2.7912 -1.2043
22231SOL    HW269326   8.855   6.135   2.912  2.6797 -1.5560  0.0107
22232SOL     OW69327   6.740   8.091   9.162 -0.3369 -0.3065  0.2264
22232SOL    HW169328   6.649   8.066   9.145 -0.8329  1.2659  0.4159
22232SOL    HW269329   6.742   8.110   9.256 -0.1124  0.7783  0.0135
22233SOL     OW69330   3.951   3.138   1.694  0.1498  0.2568  0.5139
22233SOL    HW169331   4.037   3.124   1.735  1.3231 -1.3325 -2.2522
22233SOL    HW269332   3.941   3.066   1.632 -2.3667  1.4567 -0.6292
22234SOL     OW69333   4.794   3.563   6.007 -0.4816  0.0346 -0.2524
22234SOL    HW169334   4.842   3.491   6.048 -0.3940  0.6020  0.6890
22234SOL    HW269335   4.711   3.567   6.055 -0.6601  0.2904 -0.5777
22235SOL     OW69336   8.523   3.142   8.453 -0.1725  0.0148 -0.7709
22235SOL    HW169337   8.505   3.145   8.359 -1.1603 -1.2874 -0.6528
22235SOL    HW269338   8.474   3.216   8.490 -2.1529 -1.1427 -0.9562
22236SOL     OW69339   9.138   7.504   7.518  0.2741  0.3468  0.6070
22236SOL    HW169340   9.095   7.428   7.557 -0.0064  1.2646  2.2078
22236SOL    HW269341   9.201   7.468   7.456 -0.7243 -1.1206  0.4096
22237SOL     OW69342  10.170   2.549   3.544 -0.2089  0.7615 -0.8144
22237SOL    HW169343  10.080   2.549   3.575 -0.0089  0.8383 -0.2246
22237SOL    HW269344  10.213   2.619   3.594  0.5400 -0.2421 -0.0058
22238SOL     OW69345   4.810   7.165   8.744 -0.6836 -0.3791  0.5841
22238SOL    HW169346   4.792   7.111   8.821 -0.6708  0.2871  1.0645
22238SOL    HW269347   4.725   7.177   8.702 -0.7244 -0.5709  0.6113
22239SOL     OW69348   5.852  10.273   1.467  0.3515  0.7981 -0.4903
22239SOL    HW169349   5.847  10.329   1.544  1.6586  1.1494 -0.6352
22239SOL    HW269350   5.819  10.328   1.396  3.3293  2.1401 -0.9799
22240SOL     OW69351   2.650   9.320   0.657  0.3510 -0.0888  0.3595
22240SOL    HW169352   2.594   9.243   0.643  0.1957 -0.1805  1.3857
22240SOL    HW269353   2.599   9.393   0.621  1.1554 -0.6278 -2.0282
22241SOL     OW69354   9.150   8.287   3.934 -0.2718  0.0082  0.0387
22241SOL    HW169355   9.220   8.266   3.995 -0.6015  0.8045  0.7208
22241SOL    HW269356   9.195   8.319   3.855  0.1926 -2.2094 -0.6435
22242SOL     OW69357   7.785   4.650   5.939 -0.2636 -0.3964  0.1138
22242SOL    HW169358   7.760   4.571   5.890  0.7712 -0.0016 -1.1222
22242SOL    HW269359   7.881   4.645   5.945 -0.2716  0.2535  0.9347
22243SOL     OW69360   8.717   8.264   6.773 -0.1525 -0.1632 -0.7975
22243SOL    HW169361   8.667   8.201   6.823 -0.5086 -1.2508 -2.4535
22243SOL    HW269362   8.709   8.346   6.823 -2.6813 -0.5385 -0.4438
22244SOL     OW69363   6.360   8.046   4.736 -0.0260 -0.0024 -0.2921
22244SOL    HW169364   6.302   8.022   4.809 -0.9822  2.7488 -0.0346
22244SOL    HW269365   6.300   8.059   4.662  0.6093  0.0174 -0.8043
22245SOL     OW69366   0.358  10.112   0.631 -0.2512  0.4182 -0.1499
22245SOL    HW169367   0.293  10.086   0.697  0.8662 -0.9552  0.4489
22245SOL    HW269368   0.315  10.184   0.583 -2.0913 -0.2430  0.4020
22246SOL     OW69369   0.720   2.852   9.597  0.7334 -0.2234 -0.6805
22246SOL    HW169370   0.801   2.831   9.550  2.2592  0.8688  1.3026
22246SOL    HW269371   0.723   2.800   9.676 -0.1165  0.4197 -0.2016
22247SOL     OW69372   4.815   0.988   0.182  0.0421 -0.1825  0.0910
22247SOL    HW169373   4.800   0.938   0.263  0.4575 -1.8648 -0.8148
22247SOL    HW269374   4.753   1.060   0.186  1.4673  1.0310  2.8769
22248SOL     OW69375   2.136   4.413   6.252  0.0106  0.5208  0.0922
22248SOL    HW169376   2.169   4.494   6.212  0.5932  1.2558  1.9674
22248SOL    HW269377   2.206   4.349   6.236 -0.6393  0.2029 -1.7831
22249SOL     OW69378   3.561   0.312   1.414  0.1874  0.0206 -0.0176
22249SOL    HW169379   3.526   0.242   1.468  0.5788 -0.9546 -0.9868
22249SOL    HW269380   3.550   0.391   1.467 -2.1525 -0.4270  0.2757
22250SOL     OW69381   1.432   2.757   4.184 -0.5137 -0.2173  0.4041
22250SOL    HW169382   1.378   2.768   4.106  0.6430 -3.3076 -1.0013
22250SOL    HW269383   1.388   2.688   4.235 -0.6688  0.9931  2.0013
22251SOL     OW69384   3.000   6.829   9.935  0.1143  0.4442  0.2397
22251SOL    HW169385   3.014   6.737   9.958  3.4241  0.8007  0.1823
22251SOL    HW269386   3.005   6.876  10.019 -0.6606  0.6596  0.1701
22252SOL     OW69387   7.068   6.588   0.528 -0.0165  0.2895  0.0689
22252SOL    HW169388   7.143   6.538   0.498 -0.1156 -0.8857  1.6396
22252SOL    HW269389   7.026   6.619   0.448  1.3786 -0.1520 -0.8688
22253SOL     OW69390   0.952   0.833   2.676 -0.2849 -0.1893  0.8532
22253SOL    HW169391   0.911   0.918   2.663 -0.7198 -0.3955  0.8505
22253SOL    HW269392   1.043   0.853   2.698  0.1380  0.2383 -1.0479
22254SOL     OW69393   3.128   1.764   1.126 -0.1821  1.0833 -0.4386
22254SOL    HW169394   3.185   1.691   1.152 -0.4781  0.5778 -1.1947
22254SOL    HW269395   3.164   1.839   1.173 -0.1973  0.3587  0.7670
22255SOL     OW69396   2.877   3.975   4.874 -0.0921  0.0106 -0.4215
22255SOL    HW169397   2.904   3.980   4.783  1.6836 -1.1522 -0.0096
22255SOL    HW269398   2.884   3.882   4.897 -0.2822  0.3045  0.9451
22256SOL     OW69399   2.748   0.622   9.178 -0.1007  0.3588  0.0020
22256SOL    HW169400   2.755   0.528   9.164 -0.8728  0.4993 -1.5405
22256SOL    HW269401   2.653   0.639   9.180  0.0242  1.1845 -0.4647
22257SOL     OW69402   2.299   0.543   6.077 -0.7637 -0.2076  0.0694
22257SOL    HW169403   2.334   0.611   6.135 -0.3132  0.8945 -1.4154
22257SOL    HW269404   2.279   0.470   6.135 -0.1648  0.7626  1.5763
22258SOL     OW69405   0.081   7.346   1.732 -0.3288  0.0294  0.5019
22258SOL    HW169406   0.038   7.262   1.720 -0.2594 -0.1208  1.2459
22258SOL    HW269407   0.142   7.332   1.804  0.5961  0.3820 -0.1963
22259SOL     OW69408   2.509   3.812   7.902 -0.8123  0.2354 -0.2310
22259SOL    HW169409   2.486   3.882   7.841  1.2383 -1.5160 -3.2470
22259SOL    HW269410   2.602   3.825   7.920 -0.9720 -0.3522  1.1470
22260SOL     OW69411   4.140   4.375   6.980  0.9289  0.7434  0.0405
22260SOL    HW169412   4.150   4.323   6.899 -0.4675  2.5632 -1.3908
22260SOL    HW269413   4.227   4.412   6.995  1.7751 -1.3359  0.6959
22261SOL     OW69414   7.471   6.822   1.601  0.3837 -0.5030 -0.1993
22261SOL    HW169415   7.390   6.823   1.653  1.3103  1.1215  1.3077
22261SOL    HW269416   7.445   6.859   1.517 -0.8612 -1.9656 -0.5215
22262SOL     OW69417   9.491   9.229   5.258 -0.2552  0.6451 -0.3595
22262SOL    HW169418   9.412   9.219   5.204 -0.7405  0.5171  0.3715
22262SOL    HW269419   9.464   9.288   5.328  1.4313  4.1618 -2.3684
22263SOL     OW69420   3.400   5.123   7.883  0.8888 -0.2394  0.7416
22263SOL    HW169421   3.323   5.088   7.839  1.6540 -1.7078  0.5283
22263SOL    HW269422   3.472   5.069   7.852  2.0379  1.1948  0.8284
22264SOL     OW69423   3.830   3.958   6.510  0.2331  0.3082  0.0650
22264SOL    HW169424   3.823   4.033   6.451 -1.9731 -1.8243 -2.6810
22264SOL    HW269425   3.739   3.937   6.532  0.5745 -2.6669 -0.9358
22265SOL     OW69426   5.236   7.094   9.528  0.0734 -0.0316  0.8327
22265SOL    HW169427   5.317   7.103   9.477  0.1308  2.6533  1.2874
22265SOL    HW269428   5.263   7.108   9.619 -0.5201 -1.7849  1.3181
22266SOL     OW69429   5.455   6.915   9.718  0.2414 -0.1642  0.3031
22266SOL    HW169430   5.429   7.007   9.723 -0.3228 -0.0588 -2.6288
22266SOL    HW269431   5.387   6.868   9.765  0.4064  0.8618  1.6374
22267SOL     OW69432   5.922   7.650   6.788  0.6723 -0.2936  0.7716
22267SOL    HW169433   5.882   7.698   6.861  0.2153  1.7203 -0.7055
22267SOL    HW269434   5.851   7.595   6.754 -0.6894  2.3476 -1.0644
22268SOL     OW69435   2.589  10.014   8.178 -0.3087  0.3016 -0.3519
22268SOL    HW169436   2.508  10.065   8.177 -0.5328 -0.0459 -1.8754
22268SOL    HW269437   2.598   9.987   8.269 -1.2873  1.3059  0.0744
22269SOL     OW69438   3.158  10.185   5.286 -0.2454 -0.4647 -0.0940
22269SOL    HW169439   3.083  10.225   5.241  0.1444  0.2943 -0.0874
22269SOL    HW269440   3.169  10.238   5.365  1.2842  0.4537 -0.8771
22270SOL     OW69441   3.791   6.073   4.058  0.6964  0.6962 -0.5300
22270SOL    HW169442   3.787   6.057   3.963 -0.7993  1.7878 -0.6850
22270SOL    HW269443   3.732   6.007   4.095  0.7185  0.7320 -0.4333
22271SOL     OW69444   9.446   3.524   5.787 -0.1819 -0.2358 -0.3687
22271SOL    HW169445   9.501   3.448   5.802 -0.4572 -0.5506 -0.9311
22271SOL    HW269446   9.502   3.599   5.809 -0.0053 -0.6009  0.4672
22272SOL     OW69447   5.038  10.051   6.720  0.6808 -0.0811  0.0759
22272SOL    HW169448   4.970   9.991   6.690 -0.1156 -0.7468  2.9044
22272SOL    HW269449   5.105  10.047   6.653 -1.3993 -0.5228 -2.1213
22273SOL     OW69450   3.069   7.357   8.336 -0.2731 -0.4433 -0.1008
22273SOL    HW169451   3.085   7.407   8.417 -0.9264  0.0006 -0.2419
22273SOL    HW269452   3.157   7.340   8.301  0.0516 -1.1243  0.9894
22274SOL     OW69453   3.851   3.227   8.938 -0.6312 -0.2379 -0.0373
22274SOL    HW169454   3.802   3.292   8.886 -1.1735 -0.5238  0.1141
22274SOL    HW269455   3.879   3.276   9.016 -1.4189 -0.2996  0.2881
22275SOL     OW69456   5.461   8.768   3.224 -0.3098  0.1908  0.7553
22275SOL    HW169457   5.438   8.832   3.157 -1.9806 -0.8832  0.2295
22275SOL    HW269458   5.481   8.688   3.175  0.8708  0.0563  1.4368
22276SOL     OW69459   6.639   5.370   1.808  0.3701 -0.3344 -0.6337
22276SOL    HW169460   6.656   5.276   1.801 -1.3094 -0.5543 -2.9854
22276SOL    HW269461   6.546   5.379   1.790  0.2567  1.7131  0.7317
22277SOL     OW69462   7.388   5.041   0.941 -0.2450  0.4473  0.8196
22277SOL    HW169463   7.324   5.018   0.874 -0.1669  2.4619 -0.0206
22277SOL    HW269464   7.336   5.077   1.013 -0.4515 -2.8844  2.5269
22278SOL     OW69465   0.221   0.609   0.784 -0.1592  0.5050 -0.6465
22278SOL    HW169466   0.212   0.514   0.794  0.4004  0.1272 -3.1307
22278SOL    HW269467   0.139   0.637   0.744 -0.8323  1.3266  1.1904
22279SOL     OW69468   6.172   6.089   2.785 -0.0054 -0.0744  0.0529
22279SOL    HW169469   6.263   6.077   2.760  0.5574 -0.1158  1.9604
22279SOL    HW269470   6.154   6.181   2.764  0.3759 -0.1366 -0.5783
22280SOL     OW69471   3.242   6.415   7.507  0.3796  0.4223  0.6037
22280SOL    HW169472   3.232   6.331   7.552  1.5180  0.0361  0.1770
22280SOL    HW269473   3.311   6.460   7.556  1.4644  0.0960 -0.5717
22281SOL     OW69474   7.988   8.350   6.245 -0.0340 -0.1119 -0.1695
22281SOL    HW169475   7.947   8.347   6.331 -0.2951  1.0318 -0.2368
22281SOL    HW269476   7.917   8.333   6.184 -0.3853  1.6052 -0.2726
22282SOL     OW69477   2.028   3.576   5.359  0.3016  0.1511 -0.5851
22282SOL    HW169478   1.940   3.610   5.378  0.8051  1.2602 -0.2099
22282SOL    HW269479   2.087   3.648   5.381  1.3358 -0.7024 -0.5202
22283SOL     OW69480   1.646   8.490   5.118  0.2040 -0.3074 -0.5131
22283SOL    HW169481   1.697   8.416   5.084 -0.4634 -0.0873 -2.0922
22283SOL    HW269482   1.557   8.457   5.128  0.1877 -0.0904  0.1198
22284SOL     OW69483   6.815   5.567   4.186 -0.5128 -0.2232  0.5610
22284SOL    HW169484   6.778   5.505   4.123 -0.9227  0.3843  0.1962
22284SOL    HW269485   6.809   5.521   4.270  0.3527 -1.1731  0.1249
22285SOL     OW69486   8.811   0.228   7.784  0.1538 -0.0861  0.2554
22285SOL    HW169487   8.786   0.186   7.702 -0.7092 -0.3321  0.6375
22285SOL    HW269488   8.820   0.321   7.762 -2.4471  0.2626  0.3580
22286SOL     OW69489   2.301   2.365   8.455  0.1891 -0.1769 -0.2733
22286SOL    HW169490   2.230   2.337   8.397 -1.3360  0.6096  1.1383
22286SOL    HW269491   2.341   2.283   8.484 -0.4656 -0.6674 -0.7040
22287SOL     OW69492   8.481   4.757   4.187  0.3075  0.4211 -0.0453
22287SOL    HW169493   8.482   4.667   4.155  0.7732  0.7989 -1.1615
22287SOL    HW269494   8.532   4.755   4.268  2.1548  0.0316 -1.1629
22288SOL     OW69495   9.532   5.801   8.648 -0.0207  0.0893  0.1552
22288SOL    HW169496   9.546   5.847   8.566 -1.4052 -0.9059 -0.6838
22288SOL    HW269497   9.603   5.831   8.705  0.5490  1.3350 -1.1563
22289SOL     OW69498   1.212   7.603   5.169 -0.1827  0.4032 -0.0236
22289SOL    HW169499   1.286   7.643   5.215 -0.2956  1.3846 -0.6822
22289SOL    HW269500   1.135   7.635   5.215 -0.2129 -1.0727  1.0253
22290SOL     OW69501   7.498   4.183   9.720  0.3252  0.5556  0.1308
22290SOL    HW169502   7.526   4.112   9.662 -0.4168  0.2083  0.1895
22290SOL    HW269503   7.429   4.145   9.773 -0.2005  1.3722  0.0512
22291SOL     OW69504   7.734   9.293   0.799  0.5220  0.4694  0.2659
22291SOL    HW169505   7.795   9.220   0.807 -0.6281 -0.3683  1.9659
22291SOL    HW269506   7.763   9.357   0.864 -0.0708  0.3101  0.6940
22292SOL     OW69507   0.550   0.558  10.191 -0.7129  0.6679  0.1935
22292SOL    HW169508   0.569   0.464  10.193  0.0063  0.7609 -1.3564
22292SOL    HW269509   0.519   0.577  10.280 -0.0488 -0.8539  0.7981
22293SOL     OW69510  10.067   2.489   6.526  1.0454 -0.9073 -0.1857
22293SOL    HW169511  10.143   2.547   6.530 -1.1683  2.2780 -0.1945
22293SOL    HW269512  10.022   2.514   6.446 -0.8335 -1.5253  0.6096
22294SOL     OW69513   3.490   2.003   1.148 -0.6182  0.2181  0.1554
22294SOL    HW169514   3.541   2.081   1.124  0.6681  0.3934  3.0957
22294SOL    HW269515   3.554   1.933   1.153 -1.1495 -0.2293  0.9772
22295SOL     OW69516   6.405   8.368   8.480  0.6933  0.3716 -0.1588
22295SOL    HW169517   6.339   8.359   8.411  0.8158 -0.2147 -0.2025
22295SOL    HW269518   6.472   8.303   8.458  0.9978  0.5565  0.2131
22296SOL     OW69519   5.695   0.902   3.816 -0.0260 -0.0924  0.2883
22296SOL    HW169520   5.702   0.817   3.773 -0.7810  1.2197 -2.7049
22296SOL    HW269521   5.779   0.914   3.860 -0.1067 -2.5672  1.2576
22297SOL     OW69522   6.607   4.117   3.795 -0.5911 -0.0291 -0.2670
22297SOL    HW169523   6.588   4.162   3.878 -0.7415  0.7165 -0.6969
22297SOL    HW269524   6.536   4.055   3.785 -0.8258  0.2008 -0.0599
22298SOL     OW69525  10.326   1.187   2.301  0.2309  0.5621  0.3463
22298SOL    HW169526  10.316   1.260   2.361  1.6909  0.9765  0.1306
22298SOL    HW269527  10.393   1.132   2.342 -0.1469 -0.1499  0.0259
22299SOL     OW69528   0.276   8.385   9.245  0.0108 -0.0769  0.2492
22299SOL    HW169529   0.183   8.408   9.235  0.3744  1.1800 -0.4477
22299SOL    HW269530   0.306   8.440   9.318  0.3229 -0.1402  0.1670
22300SOL     OW69531   9.794   3.274   4.870  0.8575 -0.5045  0.4136
22300SOL    HW169532   9.734   3.241   4.937 -1.6553 -3.4384 -2.8599
22300SOL    HW269533   9.852   3.200   4.851  1.8106  0.3924 -0.3135
22301SOL     OW69534   7.869   7.474   6.223  0.1040  0.4805  0.3307
22301SOL    HW169535   7.889   7.440   6.136 -1.5651 -1.3865  0.6052
22301SOL    HW269536   7.954   7.491   6.262  0.9968 -1.3147 -0.6795
22302SOL     OW69537   5.815   9.749   0.747 -0.3384  0.0989 -0.8411
22302SOL    HW169538   5.841   9.693   0.673 -1.1609 -1.5499  0.0482
22302SOL    HW269539   5.742   9.702   0.787  0.3388  0.7536  1.2663
22303SOL     OW69540   1.077   7.884   8.958  0.2224  0.5316 -0.1534
22303SOL    HW169541   1.081   7.820   9.029  0.0533  1.3824  0.6220
22303SOL    HW269542   1.115   7.837   8.883  1.0226 -0.1479  0.6472
22304SOL     OW69543   3.743   0.498   1.823 -0.8549  0.4984 -0.0062
22304SOL    HW169544   3.729   0.449   1.904  0.4517 -3.4042 -1.8793
22304SOL    HW269545   3.838   0.501   1.813 -0.9853  0.9245 -1.3464
22305SOL     OW69546   0.673   3.732   2.265 -0.3573 -0.3348 -0.0268
22305SOL    HW169547   0.588   3.772   2.282  0.8548  2.3765  0.1484
22305SOL    HW269548   0.725   3.754   2.342  1.2511  0.3272 -1.2597
22306SOL     OW69549   9.095   9.589   9.962 -0.2297 -0.0870 -0.9943
22306SOL    HW169550   9.048   9.506   9.959  2.0441 -1.5057  0.0335
22306SOL    HW269551   9.145   9.592   9.881  1.4788 -0.8929 -0.0095
22307SOL     OW69552   2.819   4.995   6.453 -0.4586 -0.5271 -0.0282
22307SOL    HW169553   2.914   4.994   6.445 -0.3121 -3.1590  0.8835
22307SOL    HW269554   2.797   5.083   6.481  1.6967  0.1305 -0.2617
22308SOL     OW69555   8.047   9.021   9.713  0.0721  0.1344 -0.3497
22308SOL    HW169556   8.001   9.078   9.774  0.3830  2.8433 -2.4317
22308SOL    HW269557   8.001   8.937   9.719 -0.4114  0.5188  2.8795
22309SOL     OW69558   4.620   8.496   9.359  0.5238  0.1128 -0.1288
22309SOL    HW169559   4.597   8.577   9.404  0.7220  0.5872 -0.8755
22309SOL    HW269560   4.712   8.481   9.382  0.7095  0.5102 -0.6103
22310SOL     OW69561   5.796   6.158   7.802  0.7071 -0.4589  0.1909
22310SOL    HW169562   5.701   6.161   7.796  0.8110  0.3374 -1.5467
22310SOL    HW269563   5.813   6.113   7.885 -1.1696 -1.3558  0.1439
22311SOL     OW69564   0.948   5.880   4.789 -0.3960 -0.6997 -0.5582
22311SOL    HW169565   0.950   5.894   4.694 -3.5659  0.2945 -0.5810
22311SOL    HW269566   1.010   5.943   4.824  0.2788 -0.5836 -1.9070
22312SOL     OW69567   4.056  10.249   1.953  0.1959 -0.4059  0.2047
22312SOL    HW169568   4.146  10.240   1.920  0.4855  1.9104  0.1799
22312SOL    HW269569   4.067  10.262   2.048  0.1535  2.1296 -0.0619
22313SOL     OW69570   5.582   3.987   5.246  0.1283  0.4738  0.6112
22313SOL    HW169571   5.562   4.077   5.219 -1.1805  0.9064  2.8056
22313SOL    HW269572   5.609   3.995   5.338  0.3847 -1.3396  0.7327
22314SOL     OW69573   5.575   5.320  10.306  0.6359  0.0331 -0.0713
22314SOL    HW169574   5.668   5.302  10.290  0.5746  1.5654 -2.8066
22314SOL    HW269575   5.559   5.405  10.265 -2.1239 -0.4779 -0.2884
22315SOL     OW69576   1.217   7.490   1.940 -0.4084  0.3316  0.5125
22315SOL    HW169577   1.172   7.413   1.976 -1.4332  0.6263 -0.1223
22315SOL    HW269578   1.154   7.530   1.881 -0.1859  2.1239  1.4094
22316SOL     OW69579   7.806   3.354   3.762  0.2888 -0.4279 -0.4204
22316SOL    HW169580   7.896   3.377   3.786 -0.1620  0.1099  0.8518
22316SOL    HW269581   7.792   3.268   3.800 -0.0222 -0.1079  0.2148
22317SOL     OW69582   9.645   0.312   9.345  0.1968  0.1249  0.8372
22317SOL    HW169583   9.590   0.234   9.350  0.5976 -0.2227  0.0519
22317SOL    HW269584   9.628   0.359   9.427  2.9119 -2.7416  3.3371
22318SOL     OW69585   7.283   1.024   7.445  0.0575  0.5936  0.0833
22318SOL    HW169586   7.353   0.985   7.392  1.4792 -1.0036  2.9024
22318SOL    HW269587   7.255   0.953   7.503 -1.5553  2.1704  1.3257
22319SOL     OW69588   0.878   4.857   8.170  0.1060  0.1898  0.0086
22319SOL    HW169589   0.905   4.781   8.220  0.3285  1.0397  1.2231
22319SOL    HW269590   0.835   4.914   8.234  2.1341  2.2002 -0.2870
22320SOL     OW69591   0.574   3.249   9.226  0.3051  0.3916  0.1100
22320SOL    HW169592   0.624   3.266   9.146 -0.8304  0.9007 -0.5204
22320SOL    HW269593   0.591   3.157   9.246  2.1805  0.7681  0.4282
22321SOL     OW69594  10.325   4.480   4.259  0.4609  0.0910  0.1304
22321SOL    HW169595  10.244   4.478   4.310  0.2202 -0.6772 -0.2548
22321SOL    HW269596  10.296   4.468   4.169  0.8793  1.4894 -0.2018
22322SOL     OW69597   4.977   7.675   7.840 -0.7158 -0.3477  0.2316
22322SOL    HW169598   5.068   7.646   7.831  0.2323  1.7035  1.9753
22322SOL    HW269599   4.955   7.714   7.756  0.2992 -0.2627 -0.0077
22323SOL     OW69600   0.782   0.783   6.179  0.7196  0.3829 -0.1401
22323SOL    HW169601   0.802   0.853   6.242  0.9556  0.1872  0.0054
22323SOL    HW269602   0.794   0.702   6.229  1.9680  0.1823 -0.7327
22324SOL     OW69603   3.297   1.082   2.278  0.4692 -0.4144 -0.1693
22324SOL    HW169604   3.282   1.095   2.184  0.0481 -1.1855 -0.2168
22324SOL    HW269605   3.312   0.988   2.287 -1.5025 -0.6855  0.7865
22325SOL     OW69606   0.002   8.114   6.298 -0.2263 -0.2495  0.0062
22325SOL    HW169607  -0.005   8.131   6.391 -0.6257 -0.4885  0.0218
22325SOL    HW269608   0.005   8.201   6.258 -0.2820 -0.1458  0.2258
22326SOL     OW69609   3.654   9.440   2.333  0.4828  0.6839 -0.4875
22326SOL    HW169610   3.595   9.482   2.271  0.2128  0.1712 -0.5859
22326SOL    HW269611   3.741   9.467   2.305  0.3080  1.2444 -0.4915
22327SOL     OW69612   3.832  10.094   5.246  0.3839 -0.2106 -0.2535
22327SOL    HW169613   3.821  10.178   5.201  0.8895  0.2561  0.4925
22327SOL    HW269614   3.749  10.049   5.231 -1.0298  1.5547  1.7059
22328SOL     OW69615   8.738   9.352   4.578 -0.0683  0.2459  0.1969
22328SOL    HW169616   8.677   9.323   4.510 -0.1230 -0.0932  0.3832
22328SOL    HW269617   8.770   9.436   4.548 -1.2549  0.8221  0.4862
22329SOL     OW69618   5.964   9.954   6.847  0.2578 -0.0394  0.2408
22329SOL    HW169619   5.974   9.861   6.828 -1.7060  0.0833 -1.7587
22329SOL    HW269620   5.953   9.957   6.942  0.4881 -1.8193  0.3649
22330SOL     OW69621   5.113   2.572   1.081 -0.5271  0.5508 -0.2719
22330SOL    HW169622   5.124   2.581   0.987  0.9797  0.6238 -0.1245
22330SOL    HW269623   5.200   2.591   1.117 -0.7875 -0.5507  1.0449
22331SOL     OW69624   0.700   7.979   6.013  0.2854 -0.3923 -0.1777
22331SOL    HW169625   0.740   7.952   5.930  0.4080 -1.2895  0.1586
22331SOL    HW269626   0.643   7.906   6.036 -0.9501  0.5151 -0.2410
22332SOL     OW69627   4.909   8.736   2.839 -0.0097 -0.2439 -0.6104
22332SOL    HW169628   4.881   8.671   2.775 -0.7080 -1.0157  0.4481
22332SOL    HW269629   5.003   8.722   2.847  0.0014 -0.4824 -1.0878
22333SOL     OW69630   7.500   8.671   1.027  0.1852 -0.6439  0.4177
22333SOL    HW169631   7.576   8.728   1.021 -1.2743  1.3833  0.1840
22333SOL    HW269632   7.489   8.637   0.938  0.5261 -0.5448  0.3354
22334SOL     OW69633   0.082   1.049   6.622  0.1079  0.5398  0.0239
22334SOL    HW169634   0.124   1.047   6.536 -0.7413  2.9656 -0.5163
22334SOL    HW269635  -0.009   1.070   6.604 -0.2851  0.1914  1.4756
22335SOL     OW69636   4.302   2.429   2.803 -0.4832 -0.0150  0.6930
22335SOL    HW169637   4.216   2.462   2.777 -0.3837 -0.2454  0.0612
22335SOL    HW269638   4.358   2.507   2.806 -0.2490 -0.1082 -0.7888
22336SOL     OW69639   4.654   6.371   6.558  0.3313 -0.4724  0.0840
22336SOL    HW169640   4.664   6.276   6.559  1.5195 -0.3676 -0.3570
22336SOL    HW269641   4.577   6.387   6.503 -0.2604 -1.1964  0.6892
22337SOL     OW69642   6.403   4.192   0.090  0.2196 -0.5136  0.2915
22337SOL    HW169643   6.318   4.209   0.050  1.2015  2.0391 -0.9338
22337SOL    HW269644   6.402   4.241   0.172  1.0768  0.9708 -0.5510
22338SOL     OW69645   1.003   7.043   0.365  0.2961  0.2071 -0.0008
22338SOL    HW169646   1.005   7.129   0.406 -0.7656  0.0606  0.3750
22338SOL    HW269647   1.071   6.993   0.410  0.1944  0.5227  0.5025
22339SOL     OW69648   2.060  10.329   7.055  0.6914  0.0394  0.2045
22339SOL    HW169649   2.136  10.297   7.006  0.6201  0.0934  0.0577
22339SOL    HW269650   2.078  10.305   7.146  0.4034 -0.8746  0.0269
22340SOL     OW69651   1.752   3.283   2.816  0.0125 -0.4621 -0.1103
22340SOL    HW169652   1.794   3.288   2.730  1.1539  1.0799  0.4806
22340SOL    HW269653   1.672   3.335   2.807 -0.2741 -0.9549 -0.4432
22341SOL     OW69654   9.300   2.092   8.394 -0.4356 -0.0214 -0.0782
22341SOL    HW169655   9.238   2.046   8.451 -1.3293  0.9495 -0.2425
22341SOL    HW269656   9.333   2.164   8.448  0.4502 -0.4423 -0.0436
22342SOL     OW69657   4.000   6.905   4.685 -0.2279  0.3374  0.3166
22342SOL    HW169658   3.967   6.865   4.765  0.1915  0.3590  0.5024
22342SOL    HW269659   3.921   6.935   4.639 -0.4313  1.1144  1.1401
22343SOL     OW69660   2.665  10.219   1.918  0.4041 -0.2660  0.1033
22343SOL    HW169661   2.730  10.189   1.981 -0.5094 -1.5638  0.4742
22343SOL    HW269662   2.708  10.209   1.833  2.1883  2.8824  0.4837
22344SOL     OW69663   5.703  10.136   7.873  0.1393 -0.5235 -0.1330
22344SOL    HW169664   5.689  10.231   7.875 -1.2133 -0.7085  0.9064
22344SOL    HW269665   5.761  10.122   7.799 -0.4835  1.0235 -0.9616
22345SOL     OW69666   4.115   9.941   7.396  0.1365  0.6807 -0.0435
22345SOL    HW169667   4.056   9.964   7.468  0.4475  1.0438  0.1004
22345SOL    HW269668   4.078   9.861   7.359  0.5871 -0.1449  1.2156
22346SOL     OW69669   7.278   2.419   2.717 -0.3922 -0.3634 -0.1488
22346SOL    HW169670   7.367   2.390   2.733 -0.0364 -0.2056 -1.7052
22346SOL    HW269671   7.232   2.341   2.686 -1.2478 -0.8314  2.0947
22347SOL     OW69672   0.198   4.267   9.296  0.9106 -0.4528 -0.4624
22347SOL    HW169673   0.281   4.312   9.308  1.0011 -0.6424 -0.3801
22347SOL    HW269674   0.177   4.232   9.382  0.5410 -0.0585 -0.3842
22348SOL     OW69675   7.268   0.749   3.912  0.5928 -0.4876  0.1827
22348SOL    HW169676   7.190   0.799   3.885  0.3142 -1.0355 -0.0494
22348SOL    HW269677   7.315   0.808   3.971  1.4098  0.8860 -1.7603
22349SOL     OW69678   1.537   2.387   6.251 -0.0292  0.3790  0.1892
22349SOL    HW169679   1.623   2.363   6.284  1.6483  3.3156 -1.5416
22349SOL    HW269680   1.534   2.482   6.258 -3.7059  0.3362  1.2944
22350SOL     OW69681   2.898   7.255   0.250 -0.6093  0.5213  0.1820
22350SOL    HW169682   2.860   7.186   0.304  0.0649 -0.0196 -0.0122
22350SOL    HW269683   2.963   7.297   0.308  1.2014 -1.0311 -0.6000
22351SOL     OW69684   0.062   3.929   4.553 -0.2138 -0.1829  0.0293
22351SOL    HW169685   0.132   3.941   4.617  1.4768 -1.3992 -1.4492
22351SOL    HW269686   0.009   4.008   4.559  2.6816  1.9704 -0.3449
22352SOL     OW69687   6.408   8.635   7.955 -0.0685 -0.5588  0.2018
22352SOL    HW169688   6.333   8.687   7.928  0.7261  0.6286  0.2015
22352SOL    HW269689   6.420   8.655   8.048  0.4661 -0.4266  0.1134
22353SOL     OW69690   0.670   2.519   3.831  0.9130 -0.0240  0.5103
22353SOL    HW169691   0.606   2.454   3.860  1.8680 -0.7754  1.0206
22353SOL    HW269692   0.639   2.602   3.868  0.3820 -0.4273  0.9758
22354SOL     OW69693   8.444   4.092   4.437  0.2216  0.0411 -0.1783
22354SOL    HW169694   8.498   4.077   4.359  0.4715 -2.1838  0.3397
22354SOL    HW269695   8.507   4.106   4.507  0.1677 -1.7642  0.2802
22355SOL     OW69696   1.773   3.009   3.557  0.0522 -0.3051  0.0934
22355SOL    HW169697   1.816   2.951   3.620 -0.0608  0.0923  0.5455
22355SOL    HW269698   1.715   2.952   3.508 -0.2358 -0.5396  0.6953
22356SOL     OW69699   2.803   5.833   7.336  0.1321  0.3356  0.4292
22356SOL    HW169700   2.814   5.743   7.365 -2.1673  0.4061  1.7636
22356SOL    HW269701   2.892   5.863   7.316  1.4319 -1.0687  3.5169
22357SOL     OW69702   7.223   2.656   0.953 -0.0790 -0.6815 -0.2387
22357SOL    HW169703   7.178   2.581   0.915  1.4781 -1.0414 -1.4996
22357SOL    HW269704   7.277   2.618   1.022 -1.4101 -0.2955  1.0571
22358SOL     OW69705   1.444   7.636   5.537 -0.0129  0.0807 -0.3313
22358SOL    HW169706   1.445   7.657   5.631  0.6585 -0.5986 -0.1787
22358SOL    HW269707   1.416   7.544   5.533  1.7043 -0.4595 -0.6641
22359SOL     OW69708   1.272   7.910   1.149 -0.7621  0.1456 -0.4042
22359SOL    HW169709   1.335   7.918   1.221 -0.3259  3.3133 -1.0181
22359SOL    HW269710   1.216   7.986   1.158 -1.9401 -0.4307 -2.3164
22360SOL     OW69711   7.272  10.208   9.396 -0.5268 -0.0012  0.0038
22360SOL    HW169712   7.296  10.132   9.344 -0.4394 -0.6458  0.9589
22360SOL    HW269713   7.243  10.172   9.480 -1.4261  0.9612  0.1359
22361SOL     OW69714   8.706   7.009   3.312 -0.4701  0.9380 -0.3803
22361SOL    HW169715   8.742   7.097   3.326  0.7516  0.5958 -1.2130
22361SOL    HW269716   8.670   6.985   3.397  1.0765  1.4211  0.4651
22362SOL     OW69717   5.252   4.553   8.258 -0.1597  0.3590  0.1563
22362SOL    HW169718   5.323   4.499   8.294  0.3612  1.1414  0.3345
22362SOL    HW269719   5.173   4.504   8.277  0.1168  0.5905  2.1509
22363SOL     OW69720   4.325   5.068   3.891  0.1586 -0.4625  0.2810
22363SOL    HW169721   4.332   5.142   3.830  1.6450 -0.6932  0.1203
22363SOL    HW269722   4.276   5.103   3.965 -0.0487  0.3822 -0.2345
22364SOL     OW69723   4.483   0.152   8.214 -0.2007  0.0441 -0.0192
22364SOL    HW169724   4.520   0.144   8.302  0.8100  0.8226 -0.3540
22364SOL    HW269725   4.388   0.159   8.228 -0.1181 -0.6728  0.9452
22365SOL     OW69726   7.546   9.119   7.870  0.1437 -0.2623  0.5008
22365SOL    HW169727   7.599   9.140   7.793 -1.4913 -0.8731 -0.8515
22365SOL    HW269728   7.567   9.188   7.933 -0.5147  1.9088 -1.5283
22366SOL     OW69729   7.146   4.582   1.330 -0.0552 -0.1549  0.4567
22366SOL    HW169730   7.136   4.622   1.417 -0.0006 -2.6170  1.7034
22366SOL    HW269731   7.233   4.542   1.332 -0.5026 -1.2048 -0.2795
22367SOL     OW69732   1.349   1.343   2.721  0.2232 -0.0060  0.0469
22367SOL    HW169733   1.263   1.367   2.756  0.4039  0.3477  0.2573
22367SOL    HW269734   1.347   1.248   2.717  0.9429 -0.2406  3.0440
22368SOL     OW69735   0.179   3.405   1.294  0.5906 -0.2134 -0.2136
22368SOL    HW169736   0.195   3.344   1.366  1.0914  1.4144  1.1398
22368SOL    HW269737   0.106   3.459   1.324  0.1280 -0.1669 -1.3869
22369SOL     OW69738   7.726   6.834   6.658  0.2935  0.0917 -0.6252
22369SOL    HW169739   7.758   6.903   6.600  0.2887  0.7946  0.1937
22369SOL    HW269740   7.800   6.812   6.714 -0.3110  0.9807  0.5717
22370SOL     OW69741   1.923   2.414   0.644 -0.0749  0.2575  0.6585
22370SOL    HW169742   1.886   2.455   0.566  1.9136 -0.2289 -0.6273
22370SOL    HW269743   1.920   2.320   0.625 -1.2923 -0.0149  2.0210
22371SOL     OW69744   9.375   4.676   8.251 -0.1617 -0.1998 -0.0059
22371SOL    HW169745   9.321   4.647   8.324 -0.0236 -0.0551  0.1559
22371SOL    HW269746   9.323   4.744   8.208 -0.1073 -0.0583  0.1515
22372SOL     OW69747   9.529   0.009   8.778  0.0261 -0.0546  0.4182
22372SOL    HW169748   9.533   0.062   8.698  0.4397 -0.7592 -0.0291
22372SOL    HW269749   9.436  -0.012   8.787  0.0722 -0.6328 -0.3252
22373SOL     OW69750   4.854   6.943   7.270  0.1755 -0.4156 -0.0323
22373SOL    HW169751   4.905   6.862   7.278 -2.3018 -2.0431  0.1712
22373SOL    HW269752   4.845   6.956   7.175 -0.3365 -0.9946 -0.0660
22374SOL     OW69753   1.144   3.852   0.252  0.0375 -0.0887 -0.0659
22374SOL    HW169754   1.165   3.945   0.238 -1.8799  0.1352 -1.8329
22374SOL    HW269755   1.158   3.839   0.346  0.0680  2.0825  0.2830
22375SOL     OW69756   3.697   0.631   2.503 -0.2303  0.2016 -0.1411
22375SOL    HW169757   3.788   0.633   2.534 -0.5411  0.7689  0.7754
22375SOL    HW269758   3.699   0.678   2.420  0.1287  1.2494  0.4368
22376SOL     OW69759   8.838   7.794   1.281  0.2467 -0.1399  0.6577
22376SOL    HW169760   8.846   7.706   1.318 -0.4140 -0.4097  0.1746
22376SOL    HW269761   8.765   7.833   1.328  0.0718 -0.1131  0.3684
22377SOL     OW69762   9.911   1.217   0.628 -0.0966  0.0312 -0.3008
22377SOL    HW169763   9.867   1.262   0.556  1.3086  0.6780 -0.7925
22377SOL    HW269764   9.978   1.163   0.585  2.6747  2.5276  0.5250
22378SOL     OW69765   7.698   3.505   7.822 -0.1522 -0.0915  0.5924
22378SOL    HW169766   7.679   3.592   7.858 -0.6882 -0.5592  1.4913
22378SOL    HW269767   7.774   3.518   7.766 -0.1118  0.9220  0.8579
22379SOL     OW69768   6.635   8.758   6.127 -0.4196  0.5294 -0.4293
22379SOL    HW169769   6.581   8.693   6.082 -0.3143  0.1435 -0.0141
22379SOL    HW269770   6.577   8.832   6.142 -0.6525  0.3749 -0.5602
22380SOL     OW69771   6.397   3.561   3.745  0.4874  0.0964  0.0790
22380SOL    HW169772   6.421   3.627   3.679  0.3012  0.1732  0.0881
22380SOL    HW269773   6.306   3.539   3.725  0.1884  0.6800  0.7853
22381SOL     OW69774   3.459   7.453   0.453 -0.1023 -0.6871 -0.4918
22381SOL    HW169775   3.512   7.445   0.532 -0.9578 -1.7037 -0.0074
22381SOL    HW269776   3.400   7.525   0.472 -1.2223 -1.7942  0.3606
22382SOL     OW69777   4.734   4.291   1.291  0.0640 -0.0536 -0.0469
22382SOL    HW169778   4.685   4.350   1.234 -1.1541 -1.0771 -0.0909
22382SOL    HW269779   4.803   4.256   1.235 -0.9275 -0.8061 -0.8322
22383SOL     OW69780   3.109   5.084   0.288 -0.7364  0.0534  0.5825
22383SOL    HW169781   3.151   5.169   0.273  0.3066 -0.7083 -1.1325
22383SOL    HW269782   3.177   5.030   0.327 -1.4063 -0.0073  1.7066
22384SOL     OW69783   9.181   4.798   6.837  0.1436 -0.2583 -0.0089
22384SOL    HW169784   9.113   4.854   6.874 -0.9139 -1.1013 -0.6391
22384SOL    HW269785   9.256   4.857   6.825 -0.4764  0.6955  0.6351
22385SOL     OW69786   7.456   0.971   3.100  0.0784  0.1742  0.2095
22385SOL    HW169787   7.471   0.879   3.076 -3.2167 -0.1132 -1.3467
22385SOL    HW269788   7.406   0.967   3.182  0.2040  0.5997  0.3112
22386SOL     OW69789   6.946   3.707   8.189 -0.3081  0.2691 -0.2069
22386SOL    HW169790   6.989   3.726   8.272 -1.6286  0.0449  0.5474
22386SOL    HW269791   6.948   3.789   8.141 -3.0967  1.6290  1.7049
22387SOL     OW69792   5.166   2.644   3.455  0.2943 -0.8598 -0.0068
22387SOL    HW169793   5.136   2.568   3.404  0.1749 -0.1638 -1.0049
22387SOL    HW269794   5.103   2.651   3.526 -0.9140 -0.4862 -1.0729
22388SOL     OW69795   4.043   0.207   8.407 -0.3281 -0.2312  0.3534
22388SOL    HW169796   4.098   0.148   8.458 -0.7974 -1.0219 -0.0258
22388SOL    HW269797   4.036   0.286   8.460  1.0728 -0.1554  0.4578
22389SOL     OW69798   7.732   0.319   9.460  0.1520  0.3345  0.1411
22389SOL    HW169799   7.725   0.414   9.449 -1.2024  0.1345 -1.0814
22389SOL    HW269800   7.657   0.295   9.515 -0.6280 -0.2178 -1.1142
22390SOL     OW69801   8.391  10.354   6.624  0.4058  0.2800  0.1277
22390SOL    HW169802   8.343  10.398   6.553  0.8189  0.1342 -0.2443
22390SOL    HW269803   8.470  10.406   6.636  0.6588 -0.0734  0.0249
22391SOL     OW69804   5.590   9.130   2.813  0.1817 -0.5840 -0.3037
22391SOL    HW169805   5.644   9.119   2.735  0.8081 -0.2499  0.0781
22391SOL    HW269806   5.524   9.061   2.806  1.0103 -1.3768 -0.4712
22392SOL     OW69807   8.374   1.157   3.740  0.3773  0.4569  0.0944
22392SOL    HW169808   8.418   1.176   3.823  0.7908 -0.3229  0.0534
22392SOL    HW269809   8.444   1.136   3.679 -0.0215 -0.4437 -0.0636
22393SOL     OW69810   7.653   2.750   9.092 -0.6189 -0.1461  0.3293
22393SOL    HW169811   7.608   2.727   9.174 -0.4247 -0.5503  0.3235
22393SOL    HW269812   7.706   2.673   9.071 -0.8680 -0.1479 -0.3162
22394SOL     OW69813   2.695   4.113   1.045 -0.0415 -0.4470  0.0467
22394SOL    HW169814   2.678   4.206   1.061  0.9989 -0.3251  0.5607
22394SOL    HW269815   2.649   4.093   0.964 -1.2029  0.2346  0.5137
22395SOL     OW69816   5.370   0.901  10.121 -0.3240 -0.2837 -0.1314
22395SOL    HW169817   5.451   0.929  10.079  0.3130 -1.2316  0.4197
22395SOL    HW269818   5.333   0.981  10.159  1.0263 -0.0459  0.7315
22396SOL     OW69819   9.824   3.064   9.529 -0.2063  0.1895 -0.2251
22396SOL    HW169820   9.822   3.159   9.530 -1.6825  0.1832  0.6253
22396SOL    HW269821   9.733   3.038   9.545  0.2872 -1.3549  0.2696
22397SOL     OW69822   2.226   6.998   4.557 -0.0165 -0.4802  0.2763
22397SOL    HW169823   2.232   6.906   4.530 -0.3669 -0.2256 -0.7343
22397SOL    HW269824   2.138   7.007   4.592  0.0264 -0.5339  0.3987
22398SOL     OW69825   4.403   5.847   7.836 -0.2372 -0.3019  0.1474
22398SOL    HW169826   4.437   5.806   7.916 -1.5612 -1.0869  0.3563
22398SOL    HW269827   4.398   5.775   7.773  3.1853  0.7579 -1.5728
22399SOL     OW69828   5.325   6.143   8.961  0.5692  0.4568 -0.6760
22399SOL    HW169829   5.389   6.137   9.031 -0.5738  1.0872  0.4660
22399SOL    HW269830   5.243   6.168   9.004 -0.1591  0.9457 -2.2323
22400SOL     OW69831   9.530   8.904   5.931 -0.1509  0.7836  0.3340
22400SOL    HW169832   9.442   8.929   5.958 -0.7876 -1.0282  0.0743
22400SOL    HW269833   9.536   8.933   5.840 -0.9332 -0.0895 -0.0169
22401SOL     OW69834   1.610   1.427   2.869  0.2330 -0.3179  0.5565
22401SOL    HW169835   1.676   1.413   2.801  0.5873 -1.7325  1.1818
22401SOL    HW269836   1.537   1.371   2.843 -0.8288  1.2985 -0.1826
22402SOL     OW69837   3.156   2.674   2.151  0.2014  0.3778  0.0135
22402SOL    HW169838   3.244   2.694   2.119  0.1444  0.6881  0.0505
22402SOL    HW269839   3.171   2.618   2.228  0.3275 -0.6264 -0.7248
22403SOL     OW69840   7.090  10.040   2.206 -0.0500 -0.0060 -0.3709
22403SOL    HW169841   7.137   9.964   2.240  2.2997  0.8316 -1.4980
22403SOL    HW269842   7.019  10.055   2.269  0.2489 -2.2806  0.5968
22404SOL     OW69843   6.142   8.806   1.700  0.2553 -0.0964  0.0330
22404SOL    HW169844   6.144   8.727   1.645  0.4763  0.0363 -0.1481
22404SOL    HW269845   6.085   8.782   1.773  1.9781 -1.1590  1.0888
22405SOL     OW69846   6.871   9.472   8.430 -0.2712 -0.2601  0.1348
22405SOL    HW169847   6.930   9.481   8.505 -0.7652 -1.8502  0.7564
22405SOL    HW269848   6.874   9.557   8.387  0.2155  0.6222  1.8219
22406SOL     OW69849   7.663   1.136   2.909 -0.2608 -0.5535  0.3382
22406SOL    HW169850   7.687   1.087   2.830 -2.8437 -0.8275 -0.3546
22406SOL    HW269851   7.601   1.080   2.955 -0.1097  0.3475  1.6983
22407SOL     OW69852   1.734   6.963   4.078 -0.5172 -0.3248  0.0881
22407SOL    HW169853   1.671   7.031   4.055 -1.5670 -1.2997  0.0194
22407SOL    HW269854   1.721   6.949   4.172 -0.3891 -0.5255  0.0750
22408SOL     OW69855   5.578   2.285   9.629 -0.0571 -0.4223 -0.1644
22408SOL    HW169856   5.499   2.304   9.680  0.0693  0.1557 -0.1813
22408SOL    HW269857   5.633   2.233   9.687 -0.2698 -0.4770 -0.0096
22409SOL     OW69858  10.059   5.918   0.884 -0.3308  0.3707 -0.4438
22409SOL    HW169859   9.971   5.881   0.880  0.2166 -1.1704  0.7018
22409SOL    HW269860  10.110   5.854   0.934  1.4887  1.1414 -1.2126
22410SOL     OW69861   4.294   7.785   3.479 -0.0098  0.3943 -0.1783
22410SOL    HW169862   4.266   7.749   3.563 -2.7330 -2.2578 -1.9820
22410SOL    HW269863   4.231   7.854   3.460  1.2334  1.7141  0.3545
22411SOL     OW69864   9.573   9.870   7.178 -0.4870  0.2541  0.4933
22411SOL    HW169865   9.504   9.909   7.232 -2.4654 -0.6300 -1.2862
22411SOL    HW269866   9.610   9.801   7.233 -0.0521  1.6085  1.9701
22412SOL     OW69867   3.598   5.737   9.868  0.2102  0.4303 -0.2719
22412SOL    HW169868   3.549   5.658   9.891  0.7737  0.2177  0.2292
22412SOL    HW269869   3.540   5.810   9.892  0.2081  0.1851  0.4750
22413SOL     OW69870   4.368   5.225   4.546 -0.3468 -0.4801  0.3913
22413SOL    HW169871   4.384   5.252   4.455 -1.3618  1.2721  0.6918
22413SOL    HW269872   4.427   5.279   4.598 -0.0132 -1.2433  0.8174
22414SOL     OW69873   3.812   3.511   0.386 -0.0762 -0.1540  0.3828
22414SOL    HW169874   3.845   3.561   0.311 -1.6857 -1.5660 -1.3651
22414SOL    HW269875   3.849   3.423   0.375  0.1457 -0.2395  1.6119
22415SOL     OW69876   8.617   3.052   9.549  0.0179  1.1682 -0.2231
22415SOL    HW169877   8.677   3.126   9.534  0.1897  0.7422 -1.9422
22415SOL    HW269878   8.534   3.080   9.510 -0.2975  0.9542  0.2890
22416SOL     OW69879   3.176   4.945   5.575  0.0162 -1.1305  0.0496
22416SOL    HW169880   3.088   4.982   5.568  0.7789  0.7214 -0.5052
22416SOL    HW269881   3.180   4.879   5.506 -0.0028  0.9279 -2.0709
22417SOL     OW69882   0.975   7.250   1.581 -0.4098 -0.3961 -0.0589
22417SOL    HW169883   0.931   7.165   1.574 -0.1401 -0.4460 -1.4830
22417SOL    HW269884   0.958   7.279   1.671  0.8402 -2.6937  0.9983
22418SOL     OW69885   3.176   4.373   6.552  0.5949 -0.0759 -0.4022
22418SOL    HW169886   3.139   4.393   6.467  0.5408 -1.7239 -0.8137
22418SOL    HW269887   3.205   4.281   6.545  3.1245  0.5522  0.4654
22419SOL     OW69888   1.250   9.018  10.182  0.0494 -0.1643 -0.0277
22419SOL    HW169889   1.342   9.045  10.181 -0.2789  1.1586 -2.1888
22419SOL    HW269890   1.206   9.089  10.229  0.1141 -0.9003  1.1910
22420SOL     OW69891   5.202   3.573   4.620 -0.2866 -0.8107 -0.2518
22420SOL    HW169892   5.272   3.631   4.650 -0.6781  0.2341 -1.2663
22420SOL    HW269893   5.155   3.549   4.700 -1.0617  1.5680  0.1053
22421SOL     OW69894   8.791   6.743   2.589 -0.5626 -0.5042  0.7608
22421SOL    HW169895   8.879   6.706   2.598 -0.4880 -0.6473 -0.3384
22421SOL    HW269896   8.806   6.837   2.578 -0.4318 -0.6581 -0.6115
22422SOL     OW69897   9.706   7.559   8.748  0.0734 -0.4584 -0.0230
22422SOL    HW169898   9.620   7.527   8.774  0.3653 -0.4762  0.9623
22422SOL    HW269899   9.705   7.652   8.768 -0.5386  0.0702 -2.2716
22423SOL     OW69900   9.765   8.627   6.348 -0.0678 -0.0641  0.4972
22423SOL    HW169901   9.745   8.574   6.426 -1.7587 -1.9244 -1.0828
22423SOL    HW269902   9.679   8.658   6.318  0.5544  0.6581 -0.5874
22424SOL     OW69903   3.774   7.177   4.745 -0.3993 -0.7335 -0.2142
22424SOL    HW169904   3.715   7.233   4.694  1.1912  0.1055 -1.2179
22424SOL    HW269905   3.862   7.205   4.719  0.4755 -1.1527  2.0816
22425SOL     OW69906   7.732   3.089   0.036 -0.4844  0.6965  0.0548
22425SOL    HW169907   7.822   3.114   0.015 -0.0154  1.0409  2.2498
22425SOL    HW269908   7.688   3.086  -0.049  1.3906  1.2828 -1.0008
22426SOL     OW69909   4.531   7.961   0.813  0.0677 -0.0229  1.0325
22426SOL    HW169910   4.609   8.014   0.826 -0.1163  0.7565 -0.7409
22426SOL    HW269911   4.557   7.895   0.748 -0.3343 -0.7243  1.5643
22427SOL     OW69912   1.083   5.159   6.910  0.1219 -0.1489 -0.3786
22427SOL    HW169913   1.011   5.175   6.972  1.3236  0.5856  0.9015
22427SOL    HW269914   1.161   5.187   6.958  1.1729 -0.1485 -2.0363
22428SOL     OW69915   5.228   6.979   6.111  0.3341 -0.1803  0.1130
22428SOL    HW169916   5.256   6.890   6.092  0.4182  0.2314 -1.9892
22428SOL    HW269917   5.309   7.029   6.122  0.3364 -0.0301 -0.5385
22429SOL     OW69918   5.231   0.199   1.379  0.1895 -0.0826 -0.1011
22429SOL    HW169919   5.265   0.114   1.351 -1.2318 -0.4152 -0.8966
22429SOL    HW269920   5.143   0.204   1.340  0.7048  2.2894 -1.1489
22430SOL     OW69921   0.671   9.051   7.268  0.5858  0.0114  0.0390
22430SOL    HW169922   0.632   9.045   7.181  1.2811  2.0173 -0.4721
22430SOL    HW269923   0.760   9.081   7.252  1.3480 -1.3989  1.3710
22431SOL     OW69924   8.517   3.112   1.189 -0.6421 -0.1051 -0.4729
22431SOL    HW169925   8.459   3.139   1.260  0.5066 -0.7556  0.7413
22431SOL    HW269926   8.593   3.170   1.196  0.7409 -1.9487  0.6376
22432SOL     OW69927   0.289   4.126   1.618  0.3016  0.1518  0.5163
22432SOL    HW169928   0.228   4.184   1.573 -1.6713 -0.7236  1.9015
22432SOL    HW269929   0.240   4.043   1.627  1.4928 -0.4070  2.1656
22433SOL     OW69930   0.777   3.156   1.056 -0.5844 -0.1633  0.0532
22433SOL    HW169931   0.847   3.219   1.037 -1.2018  1.5531  2.9494
22433SOL    HW269932   0.788   3.088   0.989  2.7508  0.8810 -0.6534
22434SOL     OW69933   1.800   1.819   9.346 -0.0812  0.0298 -0.1854
22434SOL    HW169934   1.884   1.814   9.392  0.7691  1.0862 -1.5623
22434SOL    HW269935   1.737   1.780   9.408  1.2580 -0.0341  1.2074
22435SOL     OW69936   2.569   2.912   8.610 -0.0680 -0.0482 -0.1186
22435SOL    HW169937   2.591   2.856   8.685 -2.4044  0.8346  1.3234
22435SOL    HW269938   2.577   3.001   8.643 -3.0280  0.3455 -0.2285
22436SOL     OW69939   4.953   6.877   4.325 -0.0095 -0.6723  0.1230
22436SOL    HW169940   4.898   6.860   4.401 -1.1494  2.4738  0.1186
22436SOL    HW269941   4.899   6.850   4.250 -1.5295  1.9253  0.1506
22437SOL     OW69942   1.390   6.654   4.756  0.8328  0.5987  0.2415
22437SOL    HW169943   1.415   6.594   4.686 -0.6929  1.0782 -0.7724
22437SOL    HW269944   1.377   6.598   4.832  0.0053 -0.3113 -0.5412
22438SOL     OW69945  10.133   7.612   4.049  0.8323 -0.3444 -0.0804
22438SOL    HW169946  10.087   7.595   3.966 -0.0523 -0.8900  0.5089
22438SOL    HW269947  10.218   7.647   4.022 -0.2561  1.6450 -1.2057
22439SOL     OW69948   9.759   1.546   3.966 -0.3470  0.1212 -0.3101
22439SOL    HW169949   9.782   1.567   4.056 -2.7337 -0.3330  0.4937
22439SOL    HW269950   9.709   1.465   3.972 -0.2440 -0.1188 -2.0939
22440SOL     OW69951   6.999   5.304   0.745  0.0691 -0.5058 -0.5681
22440SOL    HW169952   7.049   5.384   0.761 -0.3172 -0.3366 -0.1570
22440SOL    HW269953   6.929   5.330   0.686  0.2968 -0.6774 -0.9159
22441SOL     OW69954   6.577   3.234   7.531  0.6328 -0.3559  0.1359
22441SOL    HW169955   6.663   3.268   7.555  0.1068  0.6716  0.6180
22441SOL    HW269956   6.541   3.201   7.614 -0.4084  1.4440  0.4318
22442SOL     OW69957   5.594   6.910   8.760  0.2206  0.0222  0.2137
22442SOL    HW169958   5.649   6.944   8.832 -0.3915  2.8581 -0.5286
22442SOL    HW269959   5.516   6.876   8.804  0.1501  1.0997  0.9676
22443SOL     OW69960   0.007   8.481   8.033 -0.2862 -0.1307  0.9485
22443SOL    HW169961   0.052   8.399   8.015  1.5757  0.7783  1.2502
22443SOL    HW269962   0.013   8.531   7.951  1.0033  0.7541  1.5449
22444SOL     OW69963   0.190   1.853   8.291  0.2500 -0.4631  0.2860
22444SOL    HW169964   0.283   1.871   8.302  0.2128  0.4807 -0.7045
22444SOL    HW269965   0.186   1.765   8.256  0.8606 -0.0798 -0.7948
22445SOL     OW69966   9.248   0.623   9.320  0.1317  0.1483 -0.0379
22445SOL    HW169967   9.263   0.663   9.406  1.6585 -0.0916 -0.1531
22445SOL    HW269968   9.160   0.586   9.325  0.1366  0.2861  1.3693
22446SOL     OW69969   6.847   9.828   7.302 -0.0426  0.1931  0.7456
22446SOL    HW169970   6.782   9.771   7.262 -0.6941  0.5066  1.3263
22446SOL    HW269971   6.923   9.771   7.317  0.8139  0.3888 -2.2327
22447SOL     OW69972   5.310   1.049   5.934 -0.6728 -0.0820 -0.4713
22447SOL    HW169973   5.295   1.114   5.866  1.3226 -0.5847 -1.4599
22447SOL    HW269974   5.262   0.971   5.905  0.7925 -0.5519 -1.7715
22448SOL     OW69975   5.536   3.769  10.347 -0.1482 -0.6641 -0.1092
22448SOL    HW169976   5.601   3.706  10.379 -0.4986 -0.9720  0.0043
22448SOL    HW269977   5.517   3.823  10.423  0.5560 -0.0642 -0.3472
22449SOL     OW69978   2.228   0.358   1.907 -0.5166 -0.2940 -0.1256
22449SOL    HW169979   2.311   0.397   1.937 -0.8649 -0.2799  0.8840
22449SOL    HW269980   2.175   0.352   1.987 -1.9103  0.7363 -0.9115
22450SOL     OW69981   3.619   7.205   0.893  0.0929  0.2549 -0.3021
22450SOL    HW169982   3.637   7.292   0.858  0.1415 -0.1493 -1.3066
22450SOL    HW269983   3.668   7.202   0.975  0.9888  0.7732 -0.8036
22451SOL     OW69984   8.826   1.627   8.042  0.5571 -0.0314 -0.4214
22451SOL    HW169985   8.893   1.571   8.002  1.9103  1.7841 -0.8650
22451SOL    HW269986   8.812   1.696   7.978 -0.3013  0.6947  0.5209
22452SOL     OW69987   4.555   1.311   5.499  0.3782 -0.6060  0.1621
22452SOL    HW169988   4.605   1.307   5.417  2.0774  0.0315  1.1060
22452SOL    HW269989   4.506   1.393   5.493  0.7937 -0.3706 -0.0657
22453SOL     OW69990   3.129   1.071   3.299  0.2764  0.8462  0.4159
22453SOL    HW169991   3.083   1.035   3.223  0.4699  2.7225 -0.6520
22453SOL    HW269992   3.089   1.027   3.374 -0.0268 -0.9562 -0.7325
22454SOL     OW69993   3.642   5.523   6.790  0.1815  0.6007  0.5054
22454SOL    HW169994   3.627   5.582   6.864 -0.8114  0.5821  0.3313
22454SOL    HW269995   3.557   5.517   6.746  0.3829 -0.5838  0.2375
22455SOL     OW69996   5.841   3.269   1.266  0.0513  0.0159 -0.1005
22455SOL    HW169997   5.916   3.227   1.308 -1.6162 -0.4652  2.5616
22455SOL    HW269998   5.780   3.198   1.248 -0.2890  0.5609 -1.2138
22456SOL     OW69999   6.128   0.819   6.294 -0.5244 -0.7594  0.0926
22456SOL    HW170000   6.182   0.816   6.373  0.2337 -0.1534 -0.3895
22456SOL    HW270001   6.103   0.911   6.286 -0.4455 -0.7843 -0.4710
22457SOL     OW70002   9.357   1.364   8.348  0.7343 -0.0447  0.3087
22457SOL    HW170003   9.425   1.317   8.396 -0.3927 -1.1572  0.8656
22457SOL    HW270004   9.400   1.445   8.321  2.1200 -0.4646  1.1039
22458SOL     OW70005   5.971   6.212   4.288  0.5587 -0.2832  0.3137
22458SOL    HW170006   5.919   6.209   4.369  0.2680  0.9212  0.1860
22458SOL    HW270007   5.943   6.293   4.245  2.2854  0.2201  0.0789
22459SOL     OW70008   7.920  10.144   5.565  0.1533  0.1772 -0.1291
22459SOL    HW170009   7.919  10.092   5.646  3.3062 -1.5350 -1.0044
22459SOL    HW270010   7.873  10.089   5.502  1.5147 -0.6010 -0.4942
22460SOL     OW70011   3.713   2.118   2.802 -0.2866  0.3897 -0.3712
22460SOL    HW170012   3.762   2.070   2.735  0.0618  1.0156 -0.5718
22460SOL    HW270013   3.779   2.170   2.847 -0.5659  0.1992  0.2714
22461SOL     OW70014   0.147   6.284   9.094 -0.1589 -0.4643 -0.1066
22461SOL    HW170015   0.220   6.317   9.147  0.5436 -1.2458 -0.5517
22461SOL    HW270016   0.180   6.284   9.004 -1.4404  1.1154 -0.6143
22462SOL     OW70017   5.535   1.187   3.732  0.2776  0.1107 -0.2741
22462SOL    HW170018   5.458   1.139   3.701  1.0511 -1.6174  0.3233
22462SOL    HW270019   5.502   1.274   3.754 -1.7080 -0.8425  0.8074
22463SOL     OW70020   8.739   0.301   9.061  0.4320  0.0707  0.0094
22463SOL    HW170021   8.753   0.211   9.032  1.7679  0.5131 -0.8211
22463SOL    HW270022   8.828   0.336   9.073 -0.0632  0.7954  1.8910
22464SOL     OW70023   6.798   8.385   9.957 -0.0356  0.0652  0.2924
22464SOL    HW170024   6.734   8.390  10.029  0.4468  2.4962  0.6547
22464SOL    HW270025   6.853   8.462   9.970  0.8947 -0.1673 -1.9540
22465SOL     OW70026   5.717   5.722   9.034  0.4607 -0.6440 -0.2666
22465SOL    HW170027   5.702   5.704   9.127 -0.2475 -0.2513 -0.2932
22465SOL    HW270028   5.684   5.644   8.989  0.2066 -0.5687 -0.2159
22466SOL     OW70029   4.261   3.728   6.783  0.2673  0.6691  0.1590
22466SOL    HW170030   4.279   3.662   6.716 -2.0622 -0.5748  0.6487
22466SOL    HW270031   4.312   3.804   6.756  2.4179 -1.0477 -0.8665
22467SOL     OW70032   8.633   3.467   1.288  0.2010 -0.2606  0.5744
22467SOL    HW170033   8.641   3.535   1.221 -1.3866 -0.0299  0.5781
22467SOL    HW270034   8.671   3.389   1.248 -2.3328 -0.6230 -1.3609
22468SOL     OW70035   4.838   2.354   9.420 -0.3276 -0.3794  0.4698
22468SOL    HW170036   4.919   2.375   9.467  0.0974 -1.0752  0.0686
22468SOL    HW270037   4.777   2.328   9.489 -0.8891  2.0788  0.9948
22469SOL     OW70038   8.876   5.732   6.998  0.4817  0.6827 -0.5342
22469SOL    HW170039   8.877   5.821   7.033 -0.1571  0.8346 -0.8907
22469SOL    HW270040   8.787   5.720   6.964 -0.8468 -1.5244  3.1140
22470SOL     OW70041   8.214   2.111   0.497 -0.4115  0.6078 -0.1097
22470SOL    HW170042   8.193   2.151   0.412 -1.2073  0.5586  0.0570
22470SOL    HW270043   8.234   2.185   0.554 -2.0662  0.8267  0.2508
22471SOL     OW70044   0.034   5.759   4.723 -0.3510  0.4674 -0.3884
22471SOL    HW170045   0.098   5.776   4.792 -1.8403 -0.7329  1.3878
22471SOL    HW270046   0.041   5.665   4.707 -1.0845  0.4757 -0.7673
22472SOL     OW70047   8.466  10.189   8.240 -0.2944  0.2149 -0.3783
22472SOL    HW170048   8.491  10.274   8.275 -1.3183 -0.0107  0.9716
22472SOL    HW270049   8.373  10.181   8.261 -0.7821 -0.3074 -2.4371
22473SOL     OW70050   3.633   1.916   4.366 -0.3117 -0.3731 -0.1671
22473SOL    HW170051   3.562   1.966   4.327 -1.9435 -0.8318  1.9808
22473SOL    HW270052   3.635   1.945   4.458  2.3963 -0.2961 -0.1647
22474SOL     OW70053   9.242  10.010  10.018  0.1910 -0.0771 -0.2682
22474SOL    HW170054   9.221   9.951  10.091 -1.5175 -0.0267 -0.6886
22474SOL    HW270055   9.165  10.007   9.961  0.6625  1.4547 -1.0422
22475SOL     OW70056   9.656   3.391  10.011  0.1490  0.1216 -0.3839
22475SOL    HW170057   9.730   3.411   9.954 -0.1888 -2.4925 -1.8983
22475SOL    HW270058   9.679   3.307  10.051 -1.1476  0.2302  0.6635
22476SOL     OW70059   6.711   4.476   5.459  0.1170 -0.5792 -0.3853
22476SOL    HW170060   6.663   4.520   5.530 -1.1528  0.9183 -2.0813
22476SOL    HW270061   6.643   4.436   5.405  0.9703 -0.7263 -1.3752
22477SOL     OW70062  10.065   4.566   8.638 -0.2185  0.7086 -0.1304
22477SOL    HW170063  10.081   4.608   8.553  1.5100  1.1004  0.3537
22477SOL    HW270064   9.973   4.539   8.634  0.2386 -0.7786 -2.7597
22478SOL     OW70065   4.922   8.080   5.156  0.2567  0.0472  0.2696
22478SOL    HW170066   4.937   8.013   5.223  1.8286 -1.8270 -1.7900
22478SOL    HW270067   4.838   8.056   5.118 -0.7371  1.2344  1.6182
22479SOL     OW70068   7.535   5.454   0.838 -0.3947  0.2863 -0.0306
22479SOL    HW170069   7.552   5.546   0.860 -0.8109  0.4032 -0.1838
22479SOL    HW270070   7.583   5.404   0.904 -0.0830  0.6113 -0.0039
22480SOL     OW70071   7.425   5.141   4.713 -0.1696  0.4076 -0.2450
22480SOL    HW170072   7.434   5.185   4.629 -0.2576 -0.1139 -0.5300
22480SOL    HW270073   7.490   5.070   4.711 -1.8561 -1.2008 -0.9128
22481SOL     OW70074   8.827   1.856   1.413 -0.0681  0.6198  0.0531
22481SOL    HW170075   8.792   1.828   1.328  1.1010 -0.1628 -0.1906
22481SOL    HW270076   8.752   1.849   1.472 -0.5364 -0.2922 -0.6103
22482SOL     OW70077   3.911   8.171   5.820  0.2852  0.8805  0.0082
22482SOL    HW170078   3.827   8.199   5.858 -0.9311 -0.5934 -1.4074
22482SOL    HW270079   3.902   8.192   5.727  0.2705 -1.8347 -0.6867
22483SOL     OW70080   1.770   0.924   6.309  0.2249 -0.1806  0.0669
22483SOL    HW170081   1.686   0.901   6.349 -0.4071  1.1183 -0.4424
22483SOL    HW270082   1.833   0.864   6.348 -0.4351  0.6625  2.5832
22484SOL     OW70083   4.567   2.928   1.253  0.2302 -0.0830 -0.1589
22484SOL    HW170084   4.557   2.963   1.164  0.5000 -0.7093 -0.4435
22484SOL    HW270085   4.656   2.951   1.278  1.4851 -3.0085 -1.4867
22485SOL     OW70086   0.161   1.207   1.682 -0.7733  0.4112  0.1436
22485SOL    HW170087   0.253   1.199   1.656 -0.6951  0.9023  0.2651
22485SOL    HW270088   0.120   1.127   1.648 -0.4895  0.6124 -0.6907
22486SOL     OW70089   0.329   9.275   2.689  0.0503  0.4010  0.0592
22486SOL    HW170090   0.411   9.298   2.645 -0.6880  2.9473 -0.1367
22486SOL    HW270091   0.273   9.242   2.620  0.6262 -0.5832  0.0508
22487SOL     OW70092   8.828   7.531   0.833 -0.0836  0.0603  0.5788
22487SOL    HW170093   8.862   7.552   0.920 -0.4697 -0.0800  0.7650
22487SOL    HW270094   8.900   7.552   0.773  0.0769  0.4367  0.9038
22488SOL     OW70095   5.357   6.977   8.039 -0.4216  0.2963  0.0273
22488SOL    HW170096   5.341   7.044   8.105 -1.6122  1.2551 -1.1732
22488SOL    HW270097   5.338   6.894   8.083 -0.4264  0.8575  1.1014
22489SOL     OW70098   4.936   2.363   8.427  0.2497 -0.0343 -0.1326
22489SOL    HW170099   4.884   2.308   8.486 -0.4101 -0.7918 -1.3652
22489SOL    HW270100   5.001   2.303   8.391  0.8494  0.4942  0.0602
22490SOL     OW70101   0.235   7.998   4.343 -0.2635 -0.4742 -0.3766
22490SOL    HW170102   0.171   7.974   4.410 -1.2387  1.4888 -0.5204
22490SOL    HW270103   0.299   8.053   4.389  0.5272 -1.2460 -0.5343
22491SOL     OW70104   0.276   1.562   9.124 -0.1733 -0.0364 -0.3402
22491SOL    HW170105   0.209   1.494   9.116  0.8449 -0.9559 -1.7274
22491SOL    HW270106   0.283   1.599   9.036 -0.1609  1.3489  0.2250
22492SOL     OW70107   8.917   6.524   1.562  0.9139 -0.9310 -0.4950
22492SOL    HW170108   8.924   6.551   1.471  3.1571 -1.2576 -0.4642
22492SOL    HW270109   8.980   6.580   1.609 -0.4765 -0.4876  0.9513
22493SOL     OW70110   8.513   5.356   6.519 -0.3123 -0.4823 -0.0405
22493SOL    HW170111   8.437   5.346   6.461 -0.7917  1.2733  0.2351
22493SOL    HW270112   8.559   5.272   6.513 -0.9506 -0.7300 -2.0901
22494SOL     OW70113   5.782   6.064   3.440 -0.1221  0.0769 -0.4069
22494SOL    HW170114   5.732   6.074   3.358 -1.2052 -0.3217  0.1885
22494SOL    HW270115   5.848   6.134   3.436 -1.1947  1.0955 -0.8760
22495SOL     OW70116   7.597   4.434   4.607 -0.2723 -0.4590 -0.1589
22495SOL    HW170117   7.601   4.391   4.692 -0.6778 -1.4282 -0.6144
22495SOL    HW270118   7.656   4.383   4.552  1.2985  1.1541 -0.0650
22496SOL     OW70119   0.101   2.801   6.487  0.1758 -0.2405  0.2325
22496SOL    HW170120   0.185   2.785   6.444 -0.6271 -0.7048 -1.2323
22496SOL    HW270121   0.067   2.880   6.445 -0.8437 -0.9782 -0.3641
22497SOL     OW70122   2.129  10.333   5.924 -0.3795 -0.2114 -0.3175
22497SOL    HW170123   2.217  10.335   5.885 -0.9916 -0.3314 -1.7424
22497SOL    HW270124   2.140  10.376   6.009  0.6255  1.8514 -1.4023
22498SOL     OW70125   6.944   6.042   7.377  0.3053  0.2530 -0.3293
22498SOL    HW170126   6.910   6.083   7.298  2.1449  2.9318  0.0979
22498SOL    HW270127   6.871   6.044   7.439 -0.2790  1.0170 -1.0151
22499SOL     OW70128   9.313   6.716   0.335  0.3838  0.0877  0.0724
22499SOL    HW170129   9.243   6.664   0.374  0.7171  0.1283  0.7507
22499SOL    HW270130   9.285   6.806   0.344  0.1334  0.0629 -0.4452
22500SOL     OW70131   9.540   9.260   7.244 -0.4029  0.0373 -0.3602
22500SOL    HW170132   9.501   9.343   7.271 -1.4815 -0.2516 -0.9624
22500SOL    HW270133   9.566   9.275   7.153  1.1007  0.2864  0.0948
22501SOL     OW70134   5.239   8.887   4.262  0.4647 -1.2156 -0.3231
22501SOL    HW170135   5.330   8.877   4.234  0.9261  3.1984 -1.0417
22501SOL    HW270136   5.188   8.851   4.190  1.6440 -1.0173 -1.2874
22502SOL     OW70137   1.597   7.489   5.295 -0.4267 -0.2135  0.1230
22502SOL    HW170138   1.534   7.526   5.357  0.3428 -0.4793  1.0838
22502SOL    HW270139   1.667   7.454   5.350  0.3201 -0.3709 -0.9066
22503SOL     OW70140   3.744   5.997   8.751 -0.2678 -0.0541 -0.4157
22503SOL    HW170141   3.813   6.063   8.752 -0.1080 -0.1781 -1.5530
22503SOL    HW270142   3.788   5.917   8.723 -0.8601 -0.1300 -1.1704
22504SOL     OW70143   5.354   1.152   0.329  0.6770  0.1721 -0.3215
22504SOL    HW170144   5.355   1.095   0.252  1.6564  0.3557 -0.4568
22504SOL    HW270145   5.385   1.096   0.400  0.6143  0.2419 -0.2403
22505SOL     OW70146   5.395   6.096   4.406  0.1627 -0.0184 -0.1232
22505SOL    HW170147   5.465   6.109   4.471 -1.0096  0.7310  1.0305
22505SOL    HW270148   5.439   6.105   4.322  1.5492 -0.0642  0.5601
22506SOL     OW70149   0.020   2.127   1.229  0.1646 -0.2652 -0.2734
22506SOL    HW170150  -0.030   2.208   1.232  0.5889 -0.0136  0.8912
22506SOL    HW270151   0.099   2.150   1.179  1.7171  0.9693  2.4865
22507SOL     OW70152   3.567   1.834   0.006  0.0087  0.3547  0.2582
22507SOL    HW170153   3.630   1.865   0.072  2.6037 -4.1229  0.2529
22507SOL    HW270154   3.483   1.869   0.036  1.6622  2.2083  3.3804
22508SOL     OW70155   4.969   8.267   0.317 -0.0494 -0.4458 -0.8030
22508SOL    HW170156   4.967   8.247   0.224  1.2900 -1.4266 -0.6609
22508SOL    HW270157   5.053   8.311   0.330 -0.2624 -0.2401 -0.0859
22509SOL     OW70158   8.107   5.282   9.323  0.0386 -0.6119  0.2705
22509SOL    HW170159   8.069   5.287   9.411  3.3882 -1.3033  1.9288
22509SOL    HW270160   8.104   5.372   9.290  0.1298 -0.0342  1.7795
22510SOL     OW70161   6.072   6.888   5.702 -0.0076 -0.1663  0.2359
22510SOL    HW170162   6.149   6.943   5.716  0.7650 -1.8212  3.4470
22510SOL    HW270163   6.037   6.917   5.618  2.2117  2.8838  0.1932
22511SOL     OW70164   1.863   4.945   8.632  0.2096 -0.2205  0.3349
22511SOL    HW170165   1.935   4.948   8.695  1.3041  1.4146 -0.8915
22511SOL    HW270166   1.885   5.012   8.568 -2.2279  0.0308 -0.3299
22512SOL     OW70167   0.330   3.241  10.111 -0.3282 -0.4965  0.0111
22512SOL    HW170168   0.261   3.237  10.045 -0.5581  1.5420  0.0461
22512SOL    HW270169   0.291   3.200  10.189 -1.3076  0.0881 -0.1485
22513SOL     OW70170   0.729   7.231   2.555 -0.3899 -0.6869  0.1929
22513SOL    HW170171   0.763   7.312   2.518  1.2271 -1.3499  0.1453
22513SOL    HW270172   0.751   7.235   2.648 -0.4072 -1.0099  0.2138
22514SOL     OW70173   5.087   2.384   4.869  0.4473 -0.1571 -0.1672
22514SOL    HW170174   5.061   2.460   4.921  0.5560  1.0052 -1.7215
22514SOL    HW270175   5.006   2.358   4.824  0.4331 -0.9197  0.2896
22515SOL     OW70176   1.213   9.540   8.719  0.5199 -0.4540 -0.2330
22515SOL    HW170177   1.234   9.540   8.625 -0.2894  1.8550 -0.4819
22515SOL    HW270178   1.118   9.555   8.722  0.7294  0.7991  0.9292
22516SOL     OW70179   0.120   6.659   3.511 -0.4107 -0.5092 -0.0002
22516SOL    HW170180   0.108   6.637   3.419  0.1211 -0.4777 -0.0766
22516SOL    HW270181   0.075   6.589   3.559  0.2914 -1.1501 -0.2601
22517SOL     OW70182   0.149   2.444   5.868  0.2891 -0.1438  0.1195
22517SOL    HW170183   0.093   2.508   5.824  0.3248 -1.0454 -1.3015
22517SOL    HW270184   0.212   2.497   5.916 -1.2444  0.8852  1.0772
22518SOL     OW70185   6.293   5.527   2.907  0.2032  0.1428 -0.1321
22518SOL    HW170186   6.204   5.534   2.943  0.5449  0.7699  0.6086
22518SOL    HW270187   6.326   5.617   2.908  1.1140 -0.1839  0.2901
22519SOL     OW70188   3.914   4.770   3.414 -0.0109 -0.4087  0.3827
22519SOL    HW170189   3.955   4.720   3.343  0.8380  0.4604  0.2339
22519SOL    HW270190   3.975   4.760   3.487 -0.4717 -0.6292  0.7331
22520SOL     OW70191  10.254   9.498   7.688 -0.4077  0.4093  0.2331
22520SOL    HW170192  10.197   9.491   7.764  1.2837 -1.3611  1.4330
22520SOL    HW270193  10.274   9.407   7.664 -0.7495  0.9020 -2.2676
22521SOL     OW70194   0.321  10.045   4.125 -0.2094 -0.5961  0.7306
22521SOL    HW170195   0.261   9.970   4.128 -1.8343  0.5681 -0.5782
22521SOL    HW270196   0.273  10.117   4.166  0.1971  0.3993 -0.4479
22522SOL     OW70197   8.097   8.400   8.610 -0.3157 -0.3017 -0.1642
22522SOL    HW170198   8.115   8.307   8.597 -0.3099 -0.1730 -1.1416
22522SOL    HW270199   8.174   8.435   8.655 -0.4110 -0.8034  0.3985
22523SOL     OW70200   8.172   7.393   2.849 -0.1932  0.4687  0.2581
22523SOL    HW170201   8.231   7.410   2.776  0.4457 -0.2466  0.5878
22523SOL    HW270202   8.229   7.392   2.926  0.2897 -4.4014  0.2045
22524SOL     OW70203  10.050   2.178   6.914 -0.1770 -0.0983 -0.6216
22524SOL    HW170204  10.075   2.086   6.929  0.8950  0.5410  2.1091
22524SOL    HW270205   9.957   2.181   6.940 -0.5009 -0.5794 -1.6718
22525SOL     OW70206   2.453   5.669   9.762  0.0310  0.2489  0.5356
22525SOL    HW170207   2.491   5.678   9.850  3.6425 -0.2222 -0.8147
22525SOL    HW270208   2.437   5.759   9.733  4.1495  0.9545 -0.2579
22526SOL     OW70209   6.454   1.237   7.882  0.1708  0.1995  0.7430
22526SOL    HW170210   6.523   1.175   7.904  0.5702  0.5754  0.5616
22526SOL    HW270211   6.373   1.188   7.895  0.3740  0.3381  2.8566
22527SOL     OW70212   6.324   5.859   7.250 -0.2065  0.1184  0.2619
22527SOL    HW170213   6.264   5.840   7.322 -1.0738 -0.3597 -0.5652
22527SOL    HW270214   6.358   5.773   7.223  1.0534  0.4057  0.8786
22528SOL     OW70215   7.670   4.682   4.929 -0.2387 -0.3984 -0.0029
22528SOL    HW170216   7.762   4.662   4.945  0.1871  1.6310  0.2913
22528SOL    HW270217   7.623   4.640   5.002  0.7834  1.1423  1.6064
22529SOL     OW70218   3.011   2.398   9.141  0.0342  0.3343  0.0009
22529SOL    HW170219   2.979   2.487   9.152 -1.5632 -0.0587 -1.0875
22529SOL    HW270220   2.940   2.352   9.096  0.5113 -1.6952  1.1723
22530SOL     OW70221   1.201   4.760   1.550  0.4584  0.3570 -0.7428
22530SOL    HW170222   1.115   4.749   1.591  0.3673 -0.7108 -1.1816
22530SOL    HW270223   1.197   4.844   1.506 -0.0898  0.6619 -0.1291
22531SOL     OW70224   4.242   8.524   8.994  0.4106 -0.1077  0.6296
22531SOL    HW170225   4.195   8.567   8.923 -0.7980 -1.5448  0.5001
22531SOL    HW270226   4.290   8.595   9.037 -0.8968  1.2401 -0.0099
22532SOL     OW70227   4.343   6.486   6.807 -0.3086  0.0073 -0.6332
22532SOL    HW170228   4.264   6.518   6.851 -0.5109 -0.5162 -0.6067
22532SOL    HW270229   4.369   6.558   6.750  0.1312  0.8157  0.5399
22533SOL     OW70230   5.548   4.451   8.122  0.5486 -1.3521 -0.5156
22533SOL    HW170231   5.639   4.436   8.146  0.0845 -1.3186  1.4169
22533SOL    HW270232   5.499   4.435   8.203 -1.0843 -0.6496 -1.3262
22534SOL     OW70233   6.515   0.030   9.330 -0.5774  0.7887 -0.3958
22534SOL    HW170234   6.519  -0.019   9.248 -1.8208  0.7529 -0.4514
22534SOL    HW270235   6.425   0.019   9.360 -0.8706  2.9275 -0.3392
22535SOL     OW70236   1.941   5.621   6.997 -0.7218 -0.1842 -0.5117
22535SOL    HW170237   1.907   5.638   7.085  0.0302  0.1186 -0.2721
22535SOL    HW270238   1.883   5.554   6.961 -2.4890  1.3829 -0.6875
22536SOL     OW70239   9.070   4.421  10.017  0.3164 -0.2715  0.2190
22536SOL    HW170240   9.128   4.496  10.030 -0.6097  0.4229  0.4633
22536SOL    HW270241   8.987   4.459   9.987 -0.8625 -0.9696  2.3391
22537SOL     OW70242   1.000   3.552   9.299  0.8879  0.2279  0.1911
22537SOL    HW170243   0.913   3.556   9.339 -0.3328  0.4197 -2.2872
22537SOL    HW270244   1.053   3.610   9.352 -0.2793 -0.4276  2.1945
22538SOL     OW70245   9.990   8.370   9.315  0.1998  0.5300 -0.0306
22538SOL    HW170246  10.077   8.350   9.350  0.9370  1.1904 -1.4169
22538SOL    HW270247   9.950   8.285   9.298  0.4212  0.2190  0.9634
22539SOL     OW70248   0.082   2.805   1.750 -0.2849  0.1606  0.2917
22539SOL    HW170249   0.079   2.837   1.840 -1.0054  0.5552  0.1335
22539SOL    HW270250   0.149   2.736   1.751 -0.9649 -0.5151  1.3411
22540SOL     OW70251   2.006   1.583   4.249 -0.2724 -0.3297  0.0276
22540SOL    HW170252   1.921   1.591   4.292 -0.6463 -0.6917 -0.6284
22540SOL    HW270253   1.992   1.620   4.162  0.2843 -0.2534 -0.0304
22541SOL     OW70254   7.478   2.333  10.092 -0.1552  0.3049 -0.2787
22541SOL    HW170255   7.430   2.390  10.032 -1.2611  0.3456  0.6336
22541SOL    HW270256   7.446   2.245  10.072  1.3763 -0.0161 -1.5193
22542SOL     OW70257   9.391   9.043   4.837 -0.5841 -0.1474  0.4858
22542SOL    HW170258   9.315   9.046   4.779 -1.0792 -0.7484  1.0827
22542SOL    HW270259   9.466   9.057   4.780 -0.9984 -1.5582 -0.4482
22543SOL     OW70260   7.035   4.766   6.464 -0.3845  0.0926 -0.3120
22543SOL    HW170261   6.951   4.741   6.501 -0.0981 -0.6716 -0.1606
22543SOL    HW270262   7.022   4.757   6.369 -1.3855  2.8764 -0.5432
22544SOL     OW70263   6.214   0.529   5.087  0.0451  0.0343 -0.7069
22544SOL    HW170264   6.277   0.563   5.150 -0.2459  0.3068 -0.5615
22544SOL    HW270265   6.149   0.483   5.140 -0.1126  0.1256 -0.8197
22545SOL     OW70266   5.658   2.787   2.587 -0.3379  0.2173 -0.4222
22545SOL    HW170267   5.711   2.715   2.554  1.7265  2.2963 -1.9590
22545SOL    HW270268   5.719   2.860   2.596 -2.5697  2.1892 -0.2420
22546SOL     OW70269   2.713   7.038   5.344 -0.6742  0.1458 -0.1808
22546SOL    HW170270   2.760   6.957   5.364  0.3945  0.9413  0.6523
22546SOL    HW270271   2.661   7.018   5.266  1.9900 -0.4533 -1.9208
22547SOL     OW70272   8.477   3.564   7.674 -0.4468 -0.0719 -0.3774
22547SOL    HW170273   8.497   3.636   7.614  0.1648 -0.5652 -0.7736
22547SOL    HW270274   8.528   3.490   7.641  0.5602 -0.1473  1.1975
22548SOL     OW70275   0.728   5.128   3.229 -1.4535 -0.2764 -0.1293
22548SOL    HW170276   0.695   5.090   3.147 -1.0199 -0.8689 -0.0346
22548SOL    HW270277   0.757   5.052   3.280  0.7959  0.2449 -0.5324
22549SOL     OW70278   8.939  10.071   2.116 -0.0072  0.6353  0.0692
22549SOL    HW170279   8.928   9.982   2.082 -1.6549  0.2720  1.4183
22549SOL    HW270280   8.856  10.091   2.158  1.4876  1.4738  2.8456
22550SOL     OW70281   7.047   4.683   9.677  0.2494 -0.2703  0.3418
22550SOL    HW170282   6.999   4.742   9.619 -0.2983  0.2469  1.2922
22550SOL    HW270283   6.985   4.611   9.693 -0.6331  0.8483  2.3095
22551SOL     OW70284   4.231   1.245   4.762 -0.5882 -0.1030  0.2882
22551SOL    HW170285   4.324   1.236   4.781 -0.2492  0.4510 -1.0370
22551SOL    HW270286   4.201   1.156   4.746 -0.3625 -0.3126  0.9857
22552SOL     OW70287   0.350   5.251   1.084  1.3494 -0.3080  0.7987
22552SOL    HW170288   0.423   5.228   1.027  0.2440  0.4435 -1.0110
22552SOL    HW270289   0.372   5.338   1.118  0.9334  0.3194 -0.4659
22553SOL     OW70290   3.098   7.442   7.631 -0.4094 -0.0242  0.3133
22553SOL    HW170291   3.096   7.505   7.559 -0.2320 -0.8653 -0.4391
22553SOL    HW270292   3.085   7.496   7.710 -0.4273  0.9272 -0.3200
22554SOL     OW70293   3.182   2.966   0.582  0.3062 -0.7092 -0.7337
22554SOL    HW170294   3.149   3.051   0.611  0.9262 -0.4003 -0.9142
22554SOL    HW270295   3.184   2.912   0.661 -0.7756 -0.7891 -0.7495
22555SOL     OW70296  10.298   0.110   9.748 -0.3934 -0.3968 -0.6072
22555SOL    HW170297  10.275   0.044   9.814 -0.5209  0.7653  0.5606
22555SOL    HW270298  10.232   0.101   9.680  0.0469 -1.9851 -0.8631
22556SOL     OW70299   8.576   6.574   3.397  0.3284 -0.2055  0.3879
22556SOL    HW170300   8.515   6.556   3.468 -0.3870 -3.7861 -0.9132
22556SOL    HW270301   8.529   6.633   3.339 -1.5455 -1.9122  0.0393
22557SOL     OW70302   7.675   9.930   3.858  0.0703 -0.0020  0.1369
22557SOL    HW170303   7.714  10.017   3.850  2.0633 -0.9728 -1.9920
22557SOL    HW270304   7.749   9.870   3.844 -0.9884 -2.1032  2.7184
22558SOL     OW70305  10.327   8.017   0.920  0.0580 -0.8106  0.4789
22558SOL    HW170306  10.272   8.007   0.998  0.2039 -0.2062  0.6616
22558SOL    HW270307  10.298   8.099   0.880 -2.4481 -2.7374 -2.0591
22559SOL     OW70308   4.633   3.933   0.911  0.4832 -0.1718  0.2107
22559SOL    HW170309   4.624   3.868   0.841  1.6081 -0.3207  0.1739
22559SOL    HW270310   4.629   3.881   0.992  1.0525 -0.2494  0.1917
22560SOL     OW70311  10.233   0.494   8.108  0.1985 -0.0379 -0.0506
22560SOL    HW170312  10.211   0.570   8.055 -1.2765 -0.0304  0.5023
22560SOL    HW270313  10.161   0.432   8.092 -1.2262  0.5835  3.0677
22561SOL     OW70314   7.875   9.234   4.986  0.0481 -0.0115 -0.3083
22561SOL    HW170315   7.808   9.171   4.958  1.8239 -1.5480 -1.3601
22561SOL    HW270316   7.942   9.180   5.028  0.8167  1.4284  0.3846
22562SOL     OW70317   7.754   5.936   9.476  0.7741 -0.2066  0.1458
22562SOL    HW170318   7.712   5.849   9.477  0.7949 -0.2900 -1.7846
22562SOL    HW270319   7.681   5.998   9.470  0.7791 -0.1146  1.0006
22563SOL     OW70320   1.731   9.877   3.201 -0.7975  0.6391  0.1816
22563SOL    HW170321   1.717   9.897   3.293 -0.7342  1.6585 -0.0278
22563SOL    HW270322   1.818   9.836   3.198 -1.5489 -1.1161  0.8017
22564SOL     OW70323   9.915   0.756   5.656  0.4321  0.6373  0.2307
22564SOL    HW170324   9.906   0.820   5.726  0.3772  1.6796 -0.6922
22564SOL    HW270325   9.997   0.711   5.674  1.4497  2.2839 -0.1179
22565SOL     OW70326   0.312   1.562   8.838  0.5663  0.8423  0.1593
22565SOL    HW170327   0.377   1.557   8.767  2.1687 -1.4499  1.6754
22565SOL    HW270328   0.242   1.503   8.810 -0.1390  2.0515 -0.7182
22566SOL     OW70329   1.763   6.000   2.911 -0.1925  0.2531 -0.3062
22566SOL    HW170330   1.700   6.066   2.884  1.6251  1.7093 -1.2187
22566SOL    HW270331   1.747   5.987   3.004 -1.8645  0.5108 -0.5391
22567SOL     OW70332   6.042   1.071   6.231 -0.2917  0.5387 -0.5215
22567SOL    HW170333   5.959   1.087   6.185 -0.5851  0.8529  0.1139
22567SOL    HW270334   6.068   1.156   6.266 -0.0043  0.3279 -0.2087
22568SOL     OW70335   9.515   4.063   4.727 -0.0641  0.8587 -0.2722
22568SOL    HW170336   9.567   4.074   4.807  0.8816  1.3301 -0.9356
22568SOL    HW270337   9.564   4.000   4.675 -0.6079  0.6587 -0.5526
22569SOL     OW70338   4.490   2.314   6.159  0.0674 -0.2045 -0.0439
22569SOL    HW170339   4.561   2.371   6.132 -0.3549  0.3692  0.0365
22569SOL    HW270340   4.413   2.371   6.163  0.0407 -0.2984  2.0842
22570SOL     OW70341   2.515   9.067   8.792 -0.0404  0.2384  0.0095
22570SOL    HW170342   2.446   9.073   8.857  1.0964  0.1226  1.2879
22570SOL    HW270343   2.575   9.138   8.814 -0.7096  1.6114 -2.3109
22571SOL     OW70344   3.574   8.110   0.401  0.2942  0.1624 -0.0491
22571SOL    HW170345   3.570   8.016   0.419  0.0198 -0.0489 -1.1474
22571SOL    HW270346   3.483   8.140   0.404  0.3860  0.4045  0.3560
22572SOL     OW70347   0.484   0.918   8.525  0.5899 -0.1927  0.5356
22572SOL    HW170348   0.443   0.896   8.441  1.4463  0.9517 -0.2080
22572SOL    HW270349   0.496   0.834   8.568 -3.8605 -0.6025  1.5166
22573SOL     OW70350   9.049   1.637   9.172  0.1601 -0.2251 -0.0667
22573SOL    HW170351   9.036   1.566   9.234 -1.2537 -0.9259 -1.1210
22573SOL    HW270352   9.012   1.605   9.090  0.1160  1.4648 -0.7482
22574SOL     OW70353   5.839   1.003   9.223 -0.2463 -0.2000  0.0761
22574SOL    HW170354   5.853   1.069   9.154 -2.3054 -0.4349 -0.6204
22574SOL    HW270355   5.927   0.968   9.239  0.5287  0.9458 -1.3232
22575SOL     OW70356   9.790   8.622   5.167 -0.4201  0.0483 -0.3429
22575SOL    HW170357   9.741   8.541   5.180  1.1119 -1.1213 -1.4834
22575SOL    HW270358   9.765   8.652   5.079  1.2606 -0.8621 -1.1667
22576SOL     OW70359   6.194   7.696   2.304 -0.1910 -0.0652  0.3853
22576SOL    HW170360   6.108   7.680   2.341 -0.3751 -0.8889 -0.3626
22576SOL    HW270361   6.251   7.631   2.347 -0.1234 -0.1044  0.2371
22577SOL     OW70362   1.114   5.974   1.380 -0.0701  0.2192 -0.0055
22577SOL    HW170363   1.146   6.053   1.424  0.3626  0.2394 -0.3441
22577SOL    HW270364   1.153   5.979   1.293  0.9579 -0.9730  0.3579
22578SOL     OW70365   8.041   5.585   5.705  0.0638  0.0038 -0.1097
22578SOL    HW170366   7.956   5.617   5.674  0.5405  1.4348 -0.0301
22578SOL    HW270367   8.102   5.608   5.636  0.3348 -1.5046 -0.4106
22579SOL     OW70368   6.523   1.673   2.791  0.8056 -0.1832 -0.2712
22579SOL    HW170369   6.615   1.669   2.766  1.6374 -0.9453  2.4727
22579SOL    HW270370   6.497   1.764   2.776  2.3713  0.3297 -0.0166
22580SOL     OW70371   0.687   6.621   2.993  0.6416 -0.7028  0.2207
22580SOL    HW170372   0.682   6.527   3.009  0.1575 -0.8897 -0.9157
22580SOL    HW270373   0.731   6.656   3.070 -0.5888 -1.6518  1.4022
22581SOL     OW70374   2.768   1.322   6.572  0.0449  0.3958  0.4561
22581SOL    HW170375   2.775   1.226   6.574  1.6902  0.4956  1.4873
22581SOL    HW270376   2.725   1.341   6.488 -0.3573 -1.2343  0.2547
22582SOL     OW70377   1.047   2.672   3.823 -0.0227 -0.1941 -0.2089
22582SOL    HW170378   1.014   2.582   3.813 -0.2050  0.0330 -1.8320
22582SOL    HW270379   0.976   2.718   3.869 -0.8221 -0.4077 -1.1787
22583SOL     OW70380  10.283   8.621   0.360  0.1164 -0.1521  0.4425
22583SOL    HW170381  10.233   8.702   0.360  0.7297  0.2617  2.0403
22583SOL    HW270382  10.239   8.566   0.296 -1.3688  0.7918  0.5946
22584SOL     OW70383   9.300   5.977   8.253  0.1492 -0.6191  0.4401
22584SOL    HW170384   9.331   5.941   8.170 -0.1628 -0.1276  0.1108
22584SOL    HW270385   9.320   5.908   8.317  0.2833 -1.0505 -0.0565
22585SOL     OW70386   6.477  10.180   0.655  0.3044 -0.2348  0.2759
22585SOL    HW170387   6.385  10.162   0.674  0.4653 -1.1371  0.2502
22585SOL    HW270388   6.481  10.274   0.641 -0.7499 -0.2850 -0.4642
22586SOL     OW70389   4.509   3.579   3.679  0.6463  0.4074 -0.4774
22586SOL    HW170390   4.583   3.532   3.641  3.4340  2.3322  2.1016
22586SOL    HW270391   4.445   3.510   3.700  2.2840 -1.5314 -1.4869
22587SOL     OW70392   4.922   2.235   5.164 -0.3513 -0.2950  0.5090
22587SOL    HW170393   5.016   2.240   5.185 -0.0240  0.3028 -0.9709
22587SOL    HW270394   4.892   2.325   5.168 -0.5061 -0.2944 -0.5131
22588SOL     OW70395   7.494   2.304   0.929  0.0953 -0.2472 -0.3921
22588SOL    HW170396   7.442   2.337   1.002  0.3997 -3.3677  1.4126
22588SOL    HW270397   7.584   2.323   0.953  0.1173  0.0375 -0.6944
22589SOL     OW70398   2.844   2.308   6.353  0.1072 -0.4739  0.3428
22589SOL    HW170399   2.899   2.379   6.318  0.6576 -0.3758  1.3746
22589SOL    HW270400   2.881   2.290   6.439 -1.9788  0.1387  1.4202
22590SOL     OW70401   1.593   5.068   4.972 -0.0356  0.5824  0.5487
22590SOL    HW170402   1.538   5.069   5.050  0.3167  0.5529  0.7976
22590SOL    HW270403   1.609   4.975   4.955  1.9811  0.6259  1.9288
22591SOL     OW70404   5.368   4.056   2.396  0.2773  0.4025  0.0650
22591SOL    HW170405   5.385   4.042   2.489  1.2153  1.5679  0.0886
22591SOL    HW270406   5.275   4.039   2.386  0.5214 -1.7972  0.8072
22592SOL     OW70407   9.434   8.858   2.508 -0.4239  0.1485  0.3892
22592SOL    HW170408   9.467   8.874   2.419  0.6427 -1.6877  0.3983
22592SOL    HW270409   9.395   8.770   2.503 -0.0041 -0.1417  1.8129
22593SOL     OW70410   2.037   2.159   4.126  0.5576  0.1873  0.0642
22593SOL    HW170411   2.120   2.165   4.080 -0.5215 -0.3213 -2.1219
22593SOL    HW270412   2.001   2.248   4.124  0.4096  0.1209 -0.3082
22594SOL     OW70413   9.496   9.607   1.217  0.1428 -0.1321 -0.2481
22594SOL    HW170414   9.490   9.684   1.160  3.5713  0.5761  0.0887
22594SOL    HW270415   9.492   9.532   1.157  1.0852  0.5106 -1.1529
22595SOL     OW70416   2.525   5.173   3.704  0.3426  0.4770  0.1720
22595SOL    HW170417   2.464   5.116   3.656 -1.0028  1.2341  0.9127
22595SOL    HW270418   2.489   5.178   3.792  0.2904  2.5779  0.0940
22596SOL     OW70419   4.273   2.804   5.926 -0.2244 -0.1308 -0.1120
22596SOL    HW170420   4.285   2.710   5.915 -0.4821 -0.2381  0.4993
22596SOL    HW270421   4.241   2.834   5.841  0.0876 -0.5547 -0.3803
22597SOL     OW70422   9.936   8.645   6.671 -0.1329  0.4632 -0.1829
22597SOL    HW170423   9.864   8.667   6.612  0.1215  0.1600 -0.6192
22597SOL    HW270424   9.895   8.598   6.744 -0.2899 -0.4692 -0.8458
22598SOL     OW70425   3.471   9.580   4.778  0.2534  0.1858 -0.2678
22598SOL    HW170426   3.562   9.554   4.766  0.6457  0.9479  0.8694
22598SOL    HW270427   3.420   9.514   4.730  1.2796 -1.6170  0.9840
22599SOL     OW70428   1.786   4.576   8.224  0.2191 -0.2130 -0.5364
22599SOL    HW170429   1.779   4.670   8.204  0.7241 -0.5240 -2.3830
22599SOL    HW270430   1.853   4.571   8.292 -1.7672  0.9516  1.6571
22600SOL     OW70431   3.370  10.218   3.721 -0.4032 -0.0786 -0.3794
22600SOL    HW170432   3.364  10.235   3.627 -0.7467 -0.7673 -0.4889
22600SOL    HW270433   3.462  10.235   3.742 -0.4522  0.6501 -0.7152
22601SOL     OW70434   9.032   1.485   1.769  0.5547 -0.7185 -0.1708
22601SOL    HW170435   8.950   1.522   1.737  0.9949  0.4019 -0.0654
22601SOL    HW270436   9.013   1.393   1.785 -1.8747  0.2303  3.7544
22602SOL     OW70437   6.944   5.792   1.887 -0.2326  0.2386 -0.0203
22602SOL    HW170438   6.895   5.831   1.959  1.4707  2.0700  0.2396
22602SOL    HW270439   6.887   5.799   1.811 -1.4103 -0.2062  0.8043
22603SOL     OW70440   7.659  10.155   8.701  0.0963  0.5598 -0.1555
22603SOL    HW170441   7.568  10.132   8.717 -0.0697 -0.1127 -1.8371
22603SOL    HW270442   7.658  10.249   8.685 -0.4981  0.3697 -1.3140
22604SOL     OW70443   2.165   2.262   8.237  0.0841  0.4621 -0.1867
22604SOL    HW170444   2.085   2.304   8.205  1.1308  0.8822 -2.3797
22604SOL    HW270445   2.233   2.287   8.175  1.8566 -0.2834  1.3408
22605SOL     OW70446   3.719   1.357   9.484  0.7368  0.0180 -0.6612
22605SOL    HW170447   3.647   1.298   9.507  1.3884 -1.6238 -2.5197
22605SOL    HW270448   3.725   1.418   9.557 -1.1982 -1.0756  0.4840
22606SOL     OW70449   1.910   0.897   8.017 -0.3514 -0.1132 -0.3302
22606SOL    HW170450   1.969   0.904   7.942  1.0415 -1.2786  0.5911
22606SOL    HW270451   1.901   0.803   8.032  1.2602  0.0491  2.3005
22607SOL     OW70452   1.436   2.995   9.264  0.5797 -0.1698  0.0769
22607SOL    HW170453   1.459   2.980   9.172  1.5391  0.2431  0.2411
22607SOL    HW270454   1.513   3.036   9.302 -0.2738  0.8476  0.7660
22608SOL     OW70455   9.958   1.172   9.602 -0.2798  0.0532 -0.5043
22608SOL    HW170456   9.913   1.254   9.582 -0.9415  0.1532  1.2231
22608SOL    HW270457   9.887   1.111   9.626  0.2304 -0.9276 -1.3991
22609SOL     OW70458   1.666   3.848   3.842  0.0416  0.7377  0.1104
22609SOL    HW170459   1.760   3.846   3.859 -0.3224  1.3116  2.4591
22609SOL    HW270460   1.650   3.767   3.792  1.7696  0.7058 -0.4728
22610SOL     OW70461   9.523   0.428   0.075  0.0286  0.7244  0.0612
22610SOL    HW170462   9.477   0.423   0.158  1.0985 -0.1384  0.6339
22610SOL    HW270463   9.614   0.408   0.096  0.0710 -1.0806 -1.5291
22611SOL     OW70464   3.231   5.588   4.664 -0.5210 -0.0578 -0.1413
22611SOL    HW170465   3.238   5.540   4.746 -0.7637  1.5571  0.8596
22611SOL    HW270466   3.207   5.677   4.690 -2.3720  0.0748 -2.0558
22612SOL     OW70467   6.878   8.125   0.692  0.3313 -0.3499 -0.3714
22612SOL    HW170468   6.864   8.034   0.717  2.2793 -0.5134  0.2482
22612SOL    HW270469   6.924   8.164   0.767 -0.4237  1.1470 -0.6355
22613SOL     OW70470   2.512   8.534   6.387 -0.0952 -0.5569 -0.0907
22613SOL    HW170471   2.503   8.615   6.438 -1.9898 -1.7407  1.6112
22613SOL    HW270472   2.566   8.559   6.312  0.1419  2.0527  0.8373
22614SOL     OW70473   4.009   3.981   1.933  0.2042 -0.7211  0.4120
22614SOL    HW170474   3.927   3.948   1.895 -1.8110  1.1538  2.8243
22614SOL    HW270475   4.029   4.059   1.882 -1.3268  0.5894  1.7104
22615SOL     OW70476   7.102   7.273   6.246 -0.3811 -0.2573 -0.3178
22615SOL    HW170477   7.149   7.302   6.168 -0.7936  0.7194 -0.2318
22615SOL    HW270478   7.041   7.206   6.215 -2.4611  1.9676 -1.4180
22616SOL     OW70479   3.825   4.423   5.815 -0.2670  0.7740  0.0134
22616SOL    HW170480   3.802   4.349   5.759  0.8729  0.9711 -0.7711
22616SOL    HW270481   3.853   4.491   5.754 -0.0578  1.3920  0.7792
22617SOL     OW70482   3.009   9.555   5.838  0.2391  0.0176  0.3060
22617SOL    HW170483   3.045   9.585   5.754 -1.3766  0.5993 -0.2039
22617SOL    HW270484   2.949   9.484   5.814 -0.2197  0.1790  0.9698
22618SOL     OW70485   0.798   6.741   7.412  0.0451 -0.2306  0.3196
22618SOL    HW170486   0.746   6.821   7.414  0.7428  0.2564 -0.3792
22618SOL    HW270487   0.762   6.691   7.339  0.9056  0.3608 -0.5243
22619SOL     OW70488   2.749   4.671   3.065 -0.2632 -0.0192 -0.2823
22619SOL    HW170489   2.832   4.628   3.044 -0.3753  0.0891 -0.9732
22619SOL    HW270490   2.758   4.759   3.029 -0.0476  0.5517  1.1019
22620SOL     OW70491   8.367   5.045   6.145  0.5805  0.2845  0.1096
22620SOL    HW170492   8.378   4.950   6.155  0.1784  0.1710 -0.4516
22620SOL    HW270493   8.455   5.077   6.125  0.7411  0.0467  0.4293
22621SOL     OW70494  10.292   3.769   8.881 -0.4208 -0.4625  0.2216
22621SOL    HW170495  10.291   3.677   8.908  1.4175 -0.5542  0.1133
22621SOL    HW270496  10.299   3.818   8.963  2.3611 -0.6309  0.1950
22622SOL     OW70497   5.097   9.765   9.266  0.1544 -0.1167  0.3021
22622SOL    HW170498   5.100   9.717   9.183  0.4726  0.4940 -0.0477
22622SOL    HW270499   5.086   9.697   9.333  0.4962 -0.6625 -0.1905
22623SOL     OW70500   1.807   2.087   4.784 -0.4741  0.2386  0.4596
22623SOL    HW170501   1.840   2.130   4.705 -3.0977 -0.7956 -1.3568
22623SOL    HW270502   1.832   1.995   4.774  2.7442  0.6332  3.0007
22624SOL     OW70503   3.558   9.017   2.599 -0.0763  0.3771  0.4351
22624SOL    HW170504   3.562   9.073   2.677  0.5491  0.8037  0.1109
22624SOL    HW270505   3.591   9.072   2.528 -1.0796  0.1439 -0.2301
22625SOL     OW70506   5.477   0.613   5.846  0.0090 -0.4215 -0.1431
22625SOL    HW170507   5.534   0.610   5.923  0.1019 -1.3076 -0.2392
22625SOL    HW270508   5.537   0.609   5.772 -0.0754  0.5012 -0.2776
22626SOL     OW70509   7.163   8.138   3.279 -0.5008 -0.2872  0.3928
22626SOL    HW170510   7.149   8.044   3.266 -0.5176 -0.1828 -0.3549
22626SOL    HW270511   7.258   8.148   3.277 -0.5277 -0.1382 -0.6581
22627SOL     OW70512   4.132   6.597   2.638  0.2084 -0.1814  0.4798
22627SOL    HW170513   4.148   6.639   2.723  2.0333 -0.4292  0.2910
22627SOL    HW270514   4.123   6.504   2.659 -2.6059  0.0653  0.7456
22628SOL     OW70515   3.910   3.206   2.548 -0.0451 -0.2816  0.1718
22628SOL    HW170516   4.004   3.212   2.567  0.1276 -0.2634 -0.6460
22628SOL    HW270517   3.903   3.134   2.485 -0.3221  0.9823 -1.3093
22629SOL     OW70518   2.824   0.989   8.959  0.0544 -0.0094 -0.5061
22629SOL    HW170519   2.844   0.962   8.870  0.7123  0.3460 -0.4750
22629SOL    HW270520   2.872   1.071   8.971 -1.1290  0.6828 -0.2862
22630SOL     OW70521   1.761   8.879   2.360 -0.4639  0.1358  0.1394
22630SOL    HW170522   1.774   8.785   2.370 -0.4855  0.0334 -0.6688
22630SOL    HW270523   1.849   8.915   2.353 -0.4694  0.0415 -0.5380
22631SOL     OW70524   0.216   7.104   1.249 -0.6693  0.1228 -0.0678
22631SOL    HW170525   0.173   7.092   1.333 -0.0190 -1.1279  0.1189
22631SOL    HW270526   0.145   7.110   1.185 -1.1418 -0.8293  0.3576
22632SOL     OW70527   1.429   3.644   3.249  0.2986  0.7289 -0.2920
22632SOL    HW170528   1.509   3.686   3.278  0.6573 -0.0911 -0.0597
22632SOL    HW270529   1.443   3.627   3.156 -0.4937  2.5457 -0.7893
22633SOL     OW70530   4.450  10.154   9.862  0.3011  0.2875  0.0509
22633SOL    HW170531   4.395  10.211   9.808 -1.4594 -1.9283 -0.6766
22633SOL    HW270532   4.513  10.116   9.800  1.9320  1.8978  0.6599
22634SOL     OW70533   6.234   6.438   2.073 -0.1336 -0.1481  0.2643
22634SOL    HW170534   6.255   6.482   2.155 -1.1243  1.1323 -0.1297
22634SOL    HW270535   6.319   6.413   2.036  0.4389  1.0960  0.6996
22635SOL     OW70536   4.300   9.420   4.117 -0.2685 -0.0271 -0.4748
22635SOL    HW170537   4.244   9.467   4.055 -1.0971  2.2909  1.8227
22635SOL    HW270538   4.387   9.455   4.101 -0.3340 -0.0560 -0.8944
22636SOL     OW70539   8.136   0.464   4.711 -0.0452 -0.6657  0.5664
22636SOL    HW170540   8.123   0.542   4.765 -1.0682 -0.3257 -0.1343
22636SOL    HW270541   8.120   0.391   4.770 -1.0439 -0.3032  0.7606
22637SOL     OW70542  10.118   7.510   3.545 -0.0670  0.2114 -0.3643
22637SOL    HW170543  10.025   7.533   3.546 -0.2350 -0.2003 -2.2852
22637SOL    HW270544  10.137   7.491   3.453  2.1647  1.1985 -0.1706
22638SOL     OW70545   2.170   8.241   9.609 -0.1316 -0.1883  0.2200
22638SOL    HW170546   2.080   8.225   9.580 -0.6853  1.5145  0.8769
22638SOL    HW270547   2.217   8.263   9.529 -0.5208 -0.1773 -0.0087
22639SOL     OW70548   8.142   4.497   7.227  0.1132  0.3742 -0.2910
22639SOL    HW170549   8.153   4.504   7.322  1.6737  1.9685 -0.5155
22639SOL    HW270550   8.195   4.421   7.202 -1.3406 -0.8500  0.2074
22640SOL     OW70551   9.331   9.862   9.704  0.1094  0.3749 -0.0011
22640SOL    HW170552   9.306   9.946   9.742  0.7178  1.1009 -1.1360
22640SOL    HW270553   9.320   9.875   9.609 -1.1488 -1.2858 -0.1270
22641SOL     OW70554   2.395   8.542   9.323  0.1810 -0.5242  0.3270
22641SOL    HW170555   2.463   8.486   9.286 -0.6982 -1.4774  0.1110
22641SOL    HW270556   2.326   8.482   9.350  0.1181  0.2813  2.0890
22642SOL     OW70557   3.509   9.739   3.860 -0.2699  0.1853 -0.0968
22642SOL    HW170558   3.519   9.768   3.769  0.2259 -0.2907 -0.1981
22642SOL    HW270559   3.594   9.703   3.883 -0.2022  0.8605  0.7647
22643SOL     OW70560   2.321   4.589   0.026 -0.4216  0.5144 -0.7559
22643SOL    HW170561   2.279   4.627   0.103  0.7026  0.7964 -0.2528
22643SOL    HW270562   2.264   4.517  -0.000 -0.7011  0.2568  0.4901
22644SOL     OW70563   8.684   6.926   3.572  0.6688  0.2351  0.1248
22644SOL    HW170564   8.777   6.945   3.575  0.8103 -0.5318  0.9997
22644SOL    HW270565   8.675   6.840   3.613 -0.3513  0.0151 -0.4973
22645SOL     OW70566  10.022   2.806   5.701  0.4622  0.0392 -0.4721
22645SOL    HW170567   9.948   2.866   5.709  0.9326  0.5921 -0.2019
22645SOL    HW270568   9.983   2.719   5.711 -0.4926  0.1713 -2.6028
22646SOL     OW70569   4.121   6.107   6.640 -0.1636  0.4392 -0.5135
22646SOL    HW170570   4.139   6.167   6.568 -0.0404 -1.0934 -1.7961
22646SOL    HW270571   4.031   6.078   6.625 -0.5132  0.9068  0.5729
22647SOL     OW70572   0.361   8.449   8.103 -0.1513 -0.9864 -0.0523
22647SOL    HW170573   0.368   8.483   8.014  1.0468  0.1076  0.4155
22647SOL    HW270574   0.305   8.373   8.096 -0.8237 -0.3844 -1.5953
22648SOL     OW70575   6.045   8.474   1.548 -0.0048  0.1035  0.0178
22648SOL    HW170576   6.035   8.396   1.493 -0.2217  0.7292 -0.8500
22648SOL    HW270577   5.984   8.538   1.510  0.7203  0.9477  0.2485
22649SOL     OW70578   0.109   2.336   0.962 -0.0427  0.1758 -0.1253
22649SOL    HW170579   0.097   2.431   0.966 -0.3083  0.2163 -1.4338
22649SOL    HW270580   0.163   2.315   1.039  1.2768  1.5874 -0.6056
22650SOL     OW70581   9.566   2.487   8.608 -0.0040  0.8673 -0.0438
22650SOL    HW170582   9.643   2.460   8.558  1.0477  3.1730  0.2221
22650SOL    HW270583   9.527   2.557   8.556 -2.3288 -0.6224 -0.4564
22651SOL     OW70584   5.274   0.115   0.020 -0.1913 -0.3149 -0.0657
22651SOL    HW170585   5.191   0.141   0.058 -0.9505 -1.3886 -0.9242
22651SOL    HW270586   5.261   0.024  -0.007  0.5073  0.1548 -2.2040
22652SOL     OW70587   4.032   7.820   3.116 -0.4721 -0.6514  0.3351
22652SOL    HW170588   4.098   7.890   3.114  0.7386 -1.7469  0.4374
22652SOL    HW270589   3.992   7.823   3.030 -0.3009  0.0316  0.2660
22653SOL     OW70590   3.827   1.779   5.110  0.2155  0.0314  0.0056
22653SOL    HW170591   3.922   1.786   5.099  0.0706  1.7282 -0.4706
22653SOL    HW270592   3.801   1.712   5.047  1.0317  0.0244 -0.3418
22654SOL     OW70593   3.280   5.708   7.621 -0.3903 -0.3672 -0.2830
22654SOL    HW170594   3.361   5.668   7.590 -0.4163 -1.3240  0.7882
22654SOL    HW270595   3.288   5.800   7.599  1.8400 -0.0561  1.4530
22655SOL     OW70596   2.696   5.850   3.994 -0.0668  0.1897 -0.1429
22655SOL    HW170597   2.689   5.778   4.056 -0.3496  0.8641  0.6335
22655SOL    HW270598   2.784   5.843   3.958 -0.3229 -0.9263 -0.5724
22656SOL     OW70599   6.284   4.101   2.137 -0.0390  0.5853 -0.4485
22656SOL    HW170600   6.345   4.074   2.068  0.1709  0.5170 -0.2360
22656SOL    HW270601   6.339   4.141   2.204 -0.1954  0.2910 -0.1376
22657SOL     OW70602   7.330   7.130   3.261  0.2818  0.0007 -0.1192
22657SOL    HW170603   7.350   7.221   3.238  0.2037 -0.2739 -1.3317
22657SOL    HW270604   7.344   7.081   3.180 -0.1573 -0.9958  0.3922
22658SOL     OW70605   0.735   5.698   2.489 -0.6260 -0.4274 -0.0148
22658SOL    HW170606   0.769   5.692   2.400 -0.5888 -3.0717  0.1129
22658SOL    HW270607   0.813   5.688   2.544 -0.6220  1.3770  0.3797
22659SOL     OW70608   2.657   1.085   6.695  0.2762 -0.0528  0.4082
22659SOL    HW170609   2.658   1.000   6.738  2.0958 -0.9950 -1.3748
22659SOL    HW270610   2.583   1.080   6.634  0.1447 -0.2006  0.5798
22660SOL     OW70611   7.888   6.053   9.268  0.6971 -0.3258  0.0182
22660SOL    HW170612   7.910   5.985   9.205 -0.3823 -1.6234  0.9748
22660SOL    HW270613   7.829   6.009   9.330  0.1732  1.4241  0.8046
22661SOL     OW70614   7.191   4.434   6.754 -0.3354  0.3493 -0.0444
22661SOL    HW170615   7.236   4.462   6.834 -1.2354 -1.0633  1.0080
22661SOL    HW270616   7.146   4.354   6.780 -0.2305 -0.4247 -2.1245
22662SOL     OW70617   4.992   4.895   8.872  0.1706  0.3849  0.3253
22662SOL    HW170618   5.004   4.800   8.878 -2.0168 -0.0024 -0.4872
22662SOL    HW270619   5.019   4.917   8.783 -2.1070 -0.0348 -0.5406
22663SOL     OW70620   8.380   3.096   3.489  0.0122 -0.2487 -0.0960
22663SOL    HW170621   8.345   3.102   3.401  0.8461  0.7015 -0.3771
22663SOL    HW270622   8.444   3.025   3.485  2.5824  2.0113 -1.1820
22664SOL     OW70623   9.462   3.302   9.839  0.0582 -0.1144  0.7350
22664SOL    HW170624   9.506   3.334   9.760 -1.4357  0.6809  0.1602
22664SOL    HW270625   9.518   3.329   9.911  0.7222  0.4562  0.0259
22665SOL     OW70626   3.945   1.466   7.777 -0.1963 -0.5971  0.0217
22665SOL    HW170627   3.904   1.528   7.716 -0.7622 -0.5219  0.4753
22665SOL    HW270628   3.932   1.380   7.737 -0.3492 -0.5258 -0.0796
22666SOL     OW70629   0.540   8.035   6.247  0.0503 -0.5805 -0.2409
22666SOL    HW170630   0.498   8.120   6.259 -0.4757 -0.6970 -1.1364
22666SOL    HW270631   0.605   8.050   6.178  0.6855 -0.6713  0.3264
22667SOL     OW70632   0.492   7.512   1.667  0.4288 -0.3635  0.0408
22667SOL    HW170633   0.503   7.607   1.676  0.7588 -0.3548 -0.4036
22667SOL    HW270634   0.447   7.485   1.747 -0.4482  0.2904 -0.2119
22668SOL     OW70635   8.242   7.181   3.973 -0.0817  0.0964  0.1494
22668SOL    HW170636   8.326   7.199   4.016 -0.0165 -2.2451  1.1337
22668SOL    HW270637   8.262   7.186   3.879  0.2410  3.2489  0.2919
22669SOL     OW70638   0.570   8.771   9.893 -0.1436  0.2357 -0.4648
22669SOL    HW170639   0.589   8.864   9.881 -0.2832  0.4712  0.9652
22669SOL    HW270640   0.621   8.746   9.970 -1.5648 -0.3886  0.3041
22670SOL     OW70641   4.609   2.080   4.313  0.5702  0.0290 -0.2285
22670SOL    HW170642   4.535   2.064   4.255  0.5032 -0.4937 -0.0070
22670SOL    HW270643   4.572   2.069   4.401  0.8793 -0.1011 -0.1149
22671SOL     OW70644   3.737   3.775   2.000  0.1465 -0.1715  0.1743
22671SOL    HW170645   3.762   3.808   1.914  0.2975  0.6980  0.5428
22671SOL    HW270646   3.699   3.689   1.982 -0.7771  0.4258 -0.8657
22672SOL     OW70647  10.140   0.842   6.762  0.2462 -0.3088 -0.0659
22672SOL    HW170648  10.056   0.843   6.808  0.7147  0.3783  0.7947
22672SOL    HW270649  10.206   0.852   6.831  1.0999 -1.6929 -0.6286
22673SOL     OW70650   7.923   7.735   4.328  0.2237  0.2254  0.0995
22673SOL    HW170651   7.965   7.649   4.333 -0.7614 -0.2412  0.7472
22673SOL    HW270652   7.990   7.796   4.358  1.2392 -0.1953 -1.2557
22674SOL     OW70653   6.723   8.831   9.761  0.6706 -0.1202 -0.4449
22674SOL    HW170654   6.638   8.854   9.723 -0.0466 -0.2531  1.0093
22674SOL    HW270655   6.781   8.903   9.735 -0.5708  1.3952  0.7680
22675SOL     OW70656   5.465   7.462   1.116  0.2720 -0.1324 -0.0100
22675SOL    HW170657   5.447   7.427   1.028  0.7319 -1.5523  0.4257
22675SOL    HW270658   5.561   7.472   1.118  0.2093  0.4684  0.1318
22676SOL     OW70659   0.269   1.581   8.216  0.1321 -0.4615  0.0881
22676SOL    HW170660   0.235   1.605   8.130 -0.9916 -1.4694  0.2363
22676SOL    HW270661   0.253   1.487   8.224  0.0175 -0.3541  1.4813
22677SOL     OW70662   7.369   5.787   0.734 -0.1292  0.3989  0.3657
22677SOL    HW170663   7.383   5.820   0.822  1.5554 -0.2683  0.3795
22677SOL    HW270664   7.325   5.703   0.747 -2.0328  1.3356  0.4257
22678SOL     OW70665   1.648   4.526   7.277  0.2196  0.1225 -0.2843
22678SOL    HW170666   1.631   4.579   7.355  0.9129  2.3032 -1.5296
22678SOL    HW270667   1.697   4.451   7.309  1.5010  1.5512  1.2636
22679SOL     OW70668   5.512   5.580   6.063 -0.1933 -0.1697  0.3036
22679SOL    HW170669   5.459   5.614   5.990 -0.5240  0.7771  0.9706
22679SOL    HW270670   5.459   5.508   6.098 -0.3156 -0.2332 -0.0036
22680SOL     OW70671   9.795   5.838   5.833  0.6413 -0.1000 -0.6314
22680SOL    HW170672   9.826   5.764   5.781  0.1050 -0.8361  0.0682
22680SOL    HW270673   9.868   5.899   5.835  0.2412  0.6016 -3.3887
22681SOL     OW70674   0.316   7.084   3.790  0.2283 -0.2399 -0.1939
22681SOL    HW170675   0.273   6.999   3.796 -0.8359  0.3200  0.5865
22681SOL    HW270676   0.271   7.129   3.719 -0.9866  0.5806  1.0278
22682SOL     OW70677   5.669  10.217   5.903  0.0145 -0.7519  0.1014
22682SOL    HW170678   5.648  10.244   5.814  1.1999  1.5333  0.4371
22682SOL    HW270679   5.764  10.228   5.909 -0.2285  0.6659  2.0996
22683SOL     OW70680   3.175   7.422   5.990  0.0417  0.7494 -0.3305
22683SOL    HW170681   3.161   7.402   5.897 -0.1732  0.4789 -0.2439
22683SOL    HW270682   3.155   7.340   6.035  2.2666  0.2150 -0.2070
22684SOL     OW70683   7.831   0.277   7.512  0.9358  0.3515 -0.2540
22684SOL    HW170684   7.916   0.298   7.551  0.2673  1.0939  0.8439
22684SOL    HW270685   7.779   0.244   7.585  0.1473  0.2951 -0.8312
22685SOL     OW70686   9.048   2.030   9.236 -0.2684  0.4305 -0.1094
22685SOL    HW170687   9.034   2.000   9.146  1.1991 -3.0885  0.6275
22685SOL    HW270688   9.142   2.044   9.242 -0.1479 -0.6205  1.1085
22686SOL     OW70689   6.313   3.104   5.397 -0.2976 -0.2390  0.2589
22686SOL    HW170690   6.253   3.048   5.349  0.0574  0.7125 -1.3932
22686SOL    HW270691   6.390   3.112   5.339  0.0975  1.0496  0.9123
22687SOL     OW70692   9.837   8.372   7.770 -0.2788  0.0907 -0.2428
22687SOL    HW170693   9.866   8.289   7.733 -1.0914 -0.2218 -0.1939
22687SOL    HW270694   9.917   8.413   7.803  0.1205 -0.6767 -0.2409
22688SOL     OW70695   0.908   1.663   6.706 -0.9603 -0.5592  0.0800
22688SOL    HW170696   0.900   1.739   6.763 -0.5493 -0.0783 -0.4893
22688SOL    HW270697   0.902   1.699   6.617  5.0458 -0.2028 -0.6029
22689SOL     OW70698   7.786   2.869   7.959  0.4510  0.3728 -0.2539
22689SOL    HW170699   7.716   2.889   8.021 -0.3440 -0.1381 -0.9859
22689SOL    HW270700   7.773   2.778   7.936  0.4569  0.6861 -1.5406
22690SOL     OW70701   5.608   6.243   8.819 -0.1395 -0.4521  0.0862
22690SOL    HW170702   5.514   6.248   8.835 -0.0297  0.1912  0.5819
22690SOL    HW270703   5.648   6.287   8.894  0.5242 -0.0202 -0.5016
22691SOL     OW70704   1.831   9.543   9.724 -0.1316  0.0321  0.2355
22691SOL    HW170705   1.808   9.588   9.643 -2.7111 -0.9339  0.3405
22691SOL    HW270706   1.926   9.532   9.719 -0.2064  0.0059 -2.6502
22692SOL     OW70707   7.201   8.137  10.035  0.3727  1.1434  0.0830
22692SOL    HW170708   7.214   8.042  10.040  1.5410  1.2749 -0.0286
22692SOL    HW270709   7.108   8.150  10.052 -0.1898 -0.1526 -1.7063
22693SOL     OW70710   8.730   8.222   4.667 -0.0506 -0.3578  0.6306
22693SOL    HW170711   8.748   8.314   4.647  0.9895 -0.7210 -0.1900
22693SOL    HW270712   8.733   8.178   4.582 -2.4225 -0.8890  0.7473
22694SOL     OW70713   0.020   3.106   1.592  0.4116  0.7285 -0.4335
22694SOL    HW170714   0.017   3.077   1.683  1.6130  0.0183 -0.6010
22694SOL    HW270715   0.047   3.029   1.543  2.0086  1.6668 -1.1105
22695SOL     OW70716   1.971   3.405   1.710 -0.3138  0.2574  0.1842
22695SOL    HW170717   1.897   3.356   1.744  0.4293 -0.6367  0.5669
22695SOL    HW270718   2.036   3.402   1.780  0.6552 -0.2952 -0.7029
22696SOL     OW70719   5.745   8.954   2.245 -0.3316  0.0959 -0.5520
22696SOL    HW170720   5.824   8.941   2.193 -0.4688 -0.9561 -0.5031
22696SOL    HW270721   5.686   8.883   2.219  0.3582 -1.8062  2.5143
22697SOL     OW70722   4.788   3.457   8.432 -0.7747  0.2025 -0.8042
22697SOL    HW170723   4.806   3.397   8.359  1.6543 -0.3010  0.1189
22697SOL    HW270724   4.863   3.517   8.433  0.2563 -0.9369  2.3162
22698SOL     OW70725   3.018   8.297   5.586 -0.4515  0.4029  0.3365
22698SOL    HW170726   2.931   8.264   5.567 -0.3390  0.0581  0.4223
22698SOL    HW270727   3.077   8.238   5.540 -0.2757  0.8079  0.0353
22699SOL     OW70728   9.624   5.675  10.050  0.4819 -0.2728 -0.0477
22699SOL    HW170729   9.660   5.751  10.004  0.9172 -0.6403 -0.3111
22699SOL    HW270730   9.565   5.714  10.115  0.4992  0.2820 -0.3515
22700SOL     OW70731   8.255   2.145   9.440  0.5178  0.5299 -0.5050
22700SOL    HW170732   8.173   2.173   9.481  0.2722  0.5079 -0.9694
22700SOL    HW270733   8.314   2.128   9.513 -0.8338 -2.5160  0.0624
22701SOL     OW70734   7.825   8.167   6.085 -0.0155  0.1800  0.4600
22701SOL    HW170735   7.734   8.165   6.054 -0.0238  0.6479  0.4553
22701SOL    HW270736   7.825   8.109   6.161  0.1693 -1.6107 -0.8247
22702SOL     OW70737   0.893   0.645   0.028  0.2209 -0.4772 -0.0025
22702SOL    HW170738   0.979   0.606   0.014 -0.6682 -1.9667 -1.7023
22702SOL    HW270739   0.858   0.658  -0.060 -1.8665 -1.2598  0.6566
22703SOL     OW70740   9.939   0.826   2.881  0.2354  0.0084  0.4698
22703SOL    HW170741   9.899   0.751   2.838  0.9209 -0.9758  1.4884
22703SOL    HW270742   9.883   0.900   2.858 -0.5658 -0.8441 -0.3922
22704SOL     OW70743   1.524   6.237  10.164  0.1776 -0.4051  0.2812
22704SOL    HW170744   1.610   6.243  10.206  0.5875 -2.6658 -0.0997
22704SOL    HW270745   1.543   6.234  10.071 -0.5268  1.5267  0.0416
22705SOL     OW70746   8.519   6.874  10.162 -0.4504 -0.7644  0.0822
22705SOL    HW170747   8.504   6.858  10.255 -1.4821 -1.9498 -0.2612
22705SOL    HW270748   8.570   6.798  10.133  1.1021  0.2839 -0.0543
22706SOL     OW70749   3.783   7.679   4.634 -0.1287  0.3248  0.0097
22706SOL    HW170750   3.783   7.608   4.569 -1.5871  0.4423 -0.1485
22706SOL    HW270751   3.847   7.741   4.600  1.2410 -0.9140  0.1893
22707SOL     OW70752   5.262   6.172   5.218  0.0394 -0.3176  0.7648
22707SOL    HW170753   5.249   6.078   5.211 -2.1191  0.0185 -0.5754
22707SOL    HW270754   5.223   6.208   5.138 -1.3925  1.8815  2.3202
22708SOL     OW70755   8.270   2.559   2.028  0.1738 -0.7073  0.2015
22708SOL    HW170756   8.253   2.599   2.114 -0.8632 -0.7697  0.0365
22708SOL    HW270757   8.245   2.626   1.965  0.2711 -0.9198 -0.0652
22709SOL     OW70758   6.277   9.096   7.011  0.0304 -0.0345 -0.1212
22709SOL    HW170759   6.256   9.098   7.104  1.4446  0.3148  0.2131
22709SOL    HW270760   6.194   9.114   6.967 -0.7175 -0.5290  1.0505
22710SOL     OW70761   1.910   0.577   0.102  0.2188 -0.6841  0.3140
22710SOL    HW170762   1.846   0.571   0.173 -2.5138 -2.0034 -2.0643
22710SOL    HW270763   1.957   0.494   0.105 -1.5499 -1.7844 -0.7845
22711SOL     OW70764   6.096   4.858   0.906  0.0457  0.3857 -0.6853
22711SOL    HW170765   6.146   4.880   0.985 -0.7616 -0.7431  0.1729
22711SOL    HW270766   6.161   4.818   0.848 -0.0798 -2.9757  1.2139
22712SOL     OW70767   8.315   6.051   4.339  0.3946  0.0338 -0.2578
22712SOL    HW170768   8.249   5.983   4.352  0.4571  0.0067 -0.0721
22712SOL    HW270769   8.271   6.132   4.364  0.9350 -0.1776  1.5186
22713SOL     OW70770   7.268   5.601   2.394  0.4858  0.0061 -0.0405
22713SOL    HW170771   7.324   5.602   2.316  0.6552  0.4846  0.0860
22713SOL    HW270772   7.182   5.572   2.362  1.0129 -1.6153 -0.0928
22714SOL     OW70773   2.779   5.455   4.905 -0.6007 -0.3516 -0.0735
22714SOL    HW170774   2.821   5.408   4.833 -1.2263 -1.0266 -0.0060
22714SOL    HW270775   2.765   5.389   4.972  0.3925  0.3691  0.8665
22715SOL     OW70776   7.029   1.592   5.287  0.0769  0.0865 -0.1763
22715SOL    HW170777   7.114   1.602   5.244 -0.0913 -0.9743 -0.7987
22715SOL    HW270778   7.002   1.681   5.310  1.4743  0.4144  0.2697
22716SOL     OW70779   0.907   1.013   5.801 -0.0979  0.3266  0.3911
22716SOL    HW170780   0.968   1.040   5.732 -0.3275  0.2298  0.1483
22716SOL    HW270781   0.820   1.034   5.767 -0.3428 -1.3393 -0.1206
22717SOL     OW70782   4.228   9.720   5.942  1.1667  1.0941  0.3773
22717SOL    HW170783   4.191   9.644   5.987  2.2976  0.5904  0.4827
22717SOL    HW270784   4.250   9.687   5.855 -1.8306  2.2667 -0.9779
22718SOL     OW70785   0.306   8.379   7.541  0.4314 -0.1953 -0.1809
22718SOL    HW170786   0.242   8.350   7.606  0.7695 -0.5402 -0.0000
22718SOL    HW270787   0.252   8.409   7.467  0.0651 -1.3756 -0.4190
22719SOL     OW70788   2.455   7.541   8.998 -0.0590 -0.2716  0.3742
22719SOL    HW170789   2.429   7.601   8.928  2.1899  0.7010  0.3042
22719SOL    HW270790   2.534   7.498   8.966  0.8588 -0.0365  2.1677
22720SOL     OW70791   7.530   6.992   6.799 -0.2331 -0.0324  0.0565
22720SOL    HW170792   7.458   6.941   6.838 -0.4857  1.0513  1.0746
22720SOL    HW270793   7.589   6.926   6.764 -0.9355 -1.0063  0.6349
22721SOL     OW70794   4.680   2.032   5.762 -0.6731 -0.3265 -0.3261
22721SOL    HW170795   4.753   1.976   5.734 -0.3221  0.4296 -0.9748
22721SOL    HW270796   4.616   2.025   5.690  0.7685  2.6200 -2.0950
22722SOL     OW70797   6.915   6.576   8.175 -0.0685 -0.0676  0.2112
22722SOL    HW170798   6.888   6.512   8.109  1.1955 -0.2101 -0.1936
22722SOL    HW270799   6.925   6.658   8.127  0.7896 -0.1574  0.2140
22723SOL     OW70800   8.880   0.599   0.235 -0.3093  0.0697  0.3927
22723SOL    HW170801   8.863   0.515   0.191 -3.6218  1.0329 -0.4807
22723SOL    HW270802   8.940   0.644   0.176  0.6585 -1.2457  0.3218
22724SOL     OW70803   7.001   0.202   8.022 -0.6860 -0.2289 -0.2208
22724SOL    HW170804   6.919   0.228   7.981 -1.2116  0.3331  1.1365
22724SOL    HW270805   6.992   0.227   8.114  2.4103  3.3043 -0.6531
22725SOL     OW70806   5.620   4.004   1.091 -0.5940 -0.6056 -0.1251
22725SOL    HW170807   5.650   4.094   1.103 -1.8568  0.0854 -1.8272
22725SOL    HW270808   5.619   3.968   1.180  0.1903  0.9636  0.5654
22726SOL     OW70809   5.957   9.377   7.250 -0.0611 -0.1081 -0.5385
22726SOL    HW170810   5.915   9.322   7.317  1.6104 -1.1485 -0.3074
22726SOL    HW270811   6.050   9.370   7.268  0.3393  0.7568 -2.1214
22727SOL     OW70812   1.041   3.590   6.621  0.5138 -0.5501  0.7278
22727SOL    HW170813   1.107   3.646   6.583  0.7025 -1.0734  0.2704
22727SOL    HW270814   0.988   3.648   6.676 -0.5932  0.5151 -1.3369
22728SOL     OW70815   4.768   4.741   1.113 -0.1974 -0.2364  0.3085
22728SOL    HW170816   4.737   4.662   1.070  1.4318 -0.5060 -0.4159
22728SOL    HW270817   4.688   4.788   1.136 -1.2627  0.4031 -3.8576
22729SOL     OW70818   7.118   2.819   7.076 -0.1563 -0.4685  0.0648
22729SOL    HW170819   7.049   2.846   7.137  1.4592 -1.7654  2.6907
22729SOL    HW270820   7.077   2.751   7.023 -1.6600  0.7677 -0.4247
22730SOL     OW70821   8.792   0.968   2.778  0.4880  0.0251  0.4489
22730SOL    HW170822   8.815   1.057   2.753  1.3495 -0.2992  0.0353
22730SOL    HW270823   8.876   0.923   2.786  0.0102 -1.2761 -1.3670
22731SOL     OW70824   8.957   8.895   4.432  0.0872  0.8552  0.2942
22731SOL    HW170825   9.004   8.978   4.442 -0.8832  1.4414  0.1471
22731SOL    HW270826   8.919   8.899   4.344 -0.2485  0.4074  0.4128
22732SOL     OW70827   2.251   1.945   4.700 -0.6847  0.3225  0.2103
22732SOL    HW170828   2.221   1.855   4.691 -0.6967  0.4540 -1.2151
22732SOL    HW270829   2.171   1.997   4.702 -0.6748  0.3290  0.9670
22733SOL     OW70830  10.105   9.232   5.835  0.1328  0.1389 -0.1177
22733SOL    HW170831  10.120   9.138   5.820 -0.6533  0.0511 -0.4142
22733SOL    HW270832  10.015   9.236   5.869 -0.1932  0.8699 -1.0269
22734SOL     OW70833   0.431   1.953   9.404  0.3163 -0.2773 -0.1312
22734SOL    HW170834   0.412   1.891   9.333 -0.2854  1.8650 -1.9415
22734SOL    HW270835   0.351   1.957   9.455  0.1772 -0.6076 -0.3218
22735SOL     OW70836   0.588   7.168   2.183  0.1700  0.7653 -0.4222
22735SOL    HW170837   0.680   7.181   2.204  0.6591  2.4381 -3.1989
22735SOL    HW270838   0.543   7.239   2.229  0.5181  1.1096 -0.6043
22736SOL     OW70839   8.589  10.166   9.307 -0.3533  0.0806 -0.6953
22736SOL    HW170840   8.645  10.200   9.376 -1.1029  0.7056 -0.3803
22736SOL    HW270841   8.500  10.188   9.334 -0.6877  0.0284 -1.6894
22737SOL     OW70842   7.546   7.177   6.568 -0.3662 -0.4403 -0.2020
22737SOL    HW170843   7.519   7.116   6.636  0.6593  0.3182  0.9298
22737SOL    HW270844   7.464   7.214   6.534 -1.0242 -2.6318 -1.1376
22738SOL     OW70845   4.478   6.834   1.418  0.1757  0.3042  1.0377
22738SOL    HW170846   4.438   6.877   1.343  0.6103 -0.0684  0.5878
22738SOL    HW270847   4.474   6.899   1.488  0.5535  0.9777  0.4446
22739SOL     OW70848   9.838   6.378   8.380  0.1721  0.4967  0.3084
22739SOL    HW170849   9.773   6.441   8.348 -0.2400  0.6818  1.4418
22739SOL    HW270850   9.840   6.392   8.475 -2.6152 -3.5599  1.2304
22740SOL     OW70851   1.766   2.606   2.745  0.1327 -0.2601 -0.2658
22740SOL    HW170852   1.835   2.565   2.692  1.1762 -0.9334  1.5062
22740SOL    HW270853   1.813   2.663   2.805 -1.1231  1.4845 -0.8622
22741SOL     OW70854   5.569   0.417  10.333 -0.6114 -0.1814  0.1623
22741SOL    HW170855   5.570   0.505  10.295 -0.1371 -0.4189 -0.3827
22741SOL    HW270856   5.525   0.364  10.266  0.4649 -0.6552 -0.1820
22742SOL     OW70857   9.079   5.860   5.983 -0.5385 -0.3518 -0.0881
22742SOL    HW170858   9.167   5.841   6.015 -1.2813 -2.6856  0.7706
22742SOL    HW270859   9.024   5.854   6.061 -1.6492 -0.3529 -0.8525
22743SOL     OW70860   5.449   5.759   3.676 -0.4384  0.1773  0.0162
22743SOL    HW170861   5.373   5.738   3.731 -1.5747  1.3869 -1.0388
22743SOL    HW270862   5.487   5.673   3.656 -2.1115 -0.5501 -0.2515
22744SOL     OW70863   4.126   5.450   4.514  0.6926 -0.0262  0.4333
22744SOL    HW170864   4.171   5.534   4.523 -1.3681  1.0460  1.3048
22744SOL    HW270865   4.158   5.398   4.589  1.8239  0.0106 -0.0010
22745SOL     OW70866   1.591   6.760   8.806 -0.4735 -0.0992  0.1589
22745SOL    HW170867   1.522   6.751   8.740 -0.8101  0.2466  0.4663
22745SOL    HW270868   1.574   6.689   8.868 -0.5390 -0.0231  0.2273
22746SOL     OW70869   3.924   1.565   1.210 -0.1337 -0.2175  0.1068
22746SOL    HW170870   3.833   1.564   1.241 -0.7199  0.1907 -1.5057
22746SOL    HW270871   3.919   1.607   1.124  1.7798  1.0150  0.5511
22747SOL     OW70872   2.413   5.721   4.696 -0.0479  0.1003 -0.3897
22747SOL    HW170873   2.460   5.739   4.777  0.7745 -0.5584 -0.7104
22747SOL    HW270874   2.402   5.626   4.695 -1.2714  0.2178 -0.3988
22748SOL     OW70875   2.979   0.004   7.036 -0.0202  0.3326 -0.1583
22748SOL    HW170876   2.911   0.006   6.969 -0.8091  0.7577  0.6302
22748SOL    HW270877   3.041   0.071   7.008 -0.4024  0.5917 -0.4003
22749SOL     OW70878   2.085   5.158   6.450  0.2546  0.2804 -0.3121
22749SOL    HW170879   2.114   5.103   6.522 -0.3896  1.2791  0.7485
22749SOL    HW270880   2.125   5.120   6.372 -1.7569 -2.8977  0.0591
22750SOL     OW70881   3.365   7.039   0.563  0.3607  0.2629  0.0579
22750SOL    HW170882   3.461   7.044   0.558  0.4704 -0.8678  0.6847
22750SOL    HW270883   3.342   6.968   0.503 -0.1233  0.7281 -0.3191
22751SOL     OW70884   6.250   9.139   4.644  0.2384 -0.4381  0.4254
22751SOL    HW170885   6.265   9.046   4.624  1.5567 -0.2504  0.4456
22751SOL    HW270886   6.238   9.180   4.558  1.0614 -0.4099  0.3165
22752SOL     OW70887   6.260   0.768   6.047  0.3678  0.1432 -0.6351
22752SOL    HW170888   6.226   0.824   6.117 -0.0542 -2.1140  1.0731
22752SOL    HW270889   6.192   0.769   5.980 -0.4322  0.2759  0.1577
22753SOL     OW70890   2.357   2.328   4.105 -0.3753  0.3963  0.1301
22753SOL    HW170891   2.419   2.306   4.175  0.2992  0.6441 -0.3819
22753SOL    HW270892   2.300   2.394   4.144  0.1612  0.7293  0.3697
22754SOL     OW70893   0.384   4.389   4.987  0.0530 -0.2988 -0.7653
22754SOL    HW170894   0.444   4.402   5.061  0.9506  1.2925 -1.7237
22754SOL    HW270895   0.398   4.298   4.961  0.9289 -0.3986  0.0058
22755SOL     OW70896   6.532   0.425   8.714 -0.0100 -0.0651 -0.1880
22755SOL    HW170897   6.581   0.473   8.781 -1.2638 -1.5749  1.9313
22755SOL    HW270898   6.441   0.431   8.742 -0.6078 -0.6458 -1.8814
22756SOL     OW70899   1.371   8.733   9.863 -0.0640  0.1001 -0.3730
22756SOL    HW170900   1.318   8.812   9.875  0.3111  0.9062 -3.1615
22756SOL    HW270901   1.461   8.761   9.883 -0.2289 -0.3242  1.0193
22757SOL     OW70902   3.433   4.864   0.158  0.1619  0.0463 -0.3912
22757SOL    HW170903   3.457   4.866   0.066  0.2150 -2.1919 -0.4679
22757SOL    HW270904   3.384   4.782   0.169 -1.5825  1.1857  1.1683
22758SOL     OW70905   6.843   2.535   0.663  0.3299 -0.1056  0.7879
22758SOL    HW170906   6.839   2.457   0.608 -0.0366  0.7298 -0.4221
22758SOL    HW270907   6.929   2.573   0.646 -0.0448  0.5224  0.2502
22759SOL     OW70908   6.386   7.377  10.010 -0.1360  0.0141 -0.0991
22759SOL    HW170909   6.464   7.338   9.970 -0.1583  1.2540 -1.4407
22759SOL    HW270910   6.322   7.381   9.939 -1.6730 -1.4901  1.1117
22760SOL     OW70911   4.795   6.077   4.649  0.3308  0.0513 -0.0852
22760SOL    HW170912   4.738   6.008   4.683  0.6149 -0.1678 -0.0438
22760SOL    HW270913   4.879   6.033   4.635  0.4637  0.3496 -0.2262
22761SOL     OW70914   6.229   2.023   2.987 -0.6149 -0.2675  0.1660
22761SOL    HW170915   6.180   1.940   2.986 -0.9123 -0.1001  0.4254
22761SOL    HW270916   6.221   2.054   3.077 -0.0166 -0.2403  0.2120
22762SOL     OW70917   7.541   6.868   0.276  0.2013 -0.2359 -0.6206
22762SOL    HW170918   7.579   6.907   0.198  0.0128 -0.1065 -0.6484
22762SOL    HW270919   7.601   6.797   0.299 -0.6880 -1.4427 -1.9217
22763SOL     OW70920   6.440   2.855   4.396 -0.1260 -0.4272 -0.7233
22763SOL    HW170921   6.517   2.906   4.373 -0.7496  0.3155 -1.1884
22763SOL    HW270922   6.472   2.764   4.400  0.4554 -0.3374 -2.4605
22764SOL     OW70923   9.030   1.690   2.138  0.0532 -0.3483 -0.4652
22764SOL    HW170924   8.977   1.611   2.146 -0.0367 -0.2783 -0.3532
22764SOL    HW270925   9.007   1.727   2.053 -1.1812  0.4688  0.1900
22765SOL     OW70926   0.723   4.595   8.745  0.1920  0.3726  0.2308
22765SOL    HW170927   0.690   4.565   8.830  1.0140 -1.7493 -0.1584
22765SOL    HW270928   0.676   4.677   8.729 -2.1809 -0.6951  1.3487
22766SOL     OW70929   2.960   7.841   3.024 -0.1045 -0.2243  0.1594
22766SOL    HW170930   2.887   7.833   3.087  0.3857 -1.1847  0.6315
22766SOL    HW270931   2.961   7.934   3.001  0.0090  0.2707  1.9670
22767SOL     OW70932   3.980   2.157   0.212  0.3408 -0.3978 -0.0247
22767SOL    HW170933   3.902   2.154   0.267  0.7168 -0.0702  0.5338
22767SOL    HW270934   4.051   2.123   0.268  1.0392  1.4083  0.2440
22768SOL     OW70935   4.948   2.417   7.679 -0.7206  0.0542  0.2791
22768SOL    HW170936   4.983   2.378   7.600 -0.1841 -2.3395  1.5875
22768SOL    HW270937   4.909   2.500   7.651  1.6319  0.4811 -2.0170
22769SOL     OW70938   6.968   4.394   1.451 -0.2544 -0.5272 -0.4592
22769SOL    HW170939   7.040   4.378   1.390 -0.7316 -0.9859 -0.9136
22769SOL    HW270940   6.903   4.328   1.429 -1.3760  0.6801 -0.9496
22770SOL     OW70941   2.768   0.829   5.509  0.1682 -0.2034 -0.3494
22770SOL    HW170942   2.742   0.906   5.458  2.2477 -0.1707 -1.4785
22770SOL    HW270943   2.783   0.761   5.444  0.4664 -0.9229  0.4501
22771SOL     OW70944   6.335   8.196   2.616 -0.3218  0.2338 -0.0617
22771SOL    HW170945   6.407   8.230   2.669 -2.0825  3.1373  0.6734
22771SOL    HW270946   6.353   8.229   2.528 -0.0590 -0.2419 -0.1920
22772SOL     OW70947   6.593   4.897   4.668  0.4917 -0.6205 -0.4503
22772SOL    HW170948   6.513   4.948   4.671  1.4939  1.2268 -2.2714
22772SOL    HW270949   6.564   4.806   4.659 -1.3695 -0.0458 -0.5882
22773SOL     OW70950   9.468  10.252   0.530  0.2096  0.2004 -0.6461
22773SOL    HW170951   9.521  10.260   0.610 -0.4633 -0.5450 -0.1129
22773SOL    HW270952   9.455  10.158   0.519 -1.8176  0.3846 -0.2030
22774SOL     OW70953   8.252   2.675   5.350  0.6366  0.0761  0.2413
22774SOL    HW170954   8.327   2.703   5.297  1.0105  1.7429  1.5459
22774SOL    HW270955   8.182   2.735   5.325  1.4225  2.4009  3.0250
22775SOL     OW70956   1.714   2.636   2.120 -0.0936 -0.1187  0.1873
22775SOL    HW170957   1.707   2.732   2.113 -0.8850 -0.1740  0.0641
22775SOL    HW270958   1.806   2.617   2.105  0.0794  0.6334  0.2589
22776SOL     OW70959   2.270   0.314   3.842 -0.6182  0.1861 -0.2252
22776SOL    HW170960   2.289   0.279   3.755 -0.5948 -0.1081 -0.1020
22776SOL    HW270961   2.205   0.255   3.878 -0.2982  0.0446  0.1339
22777SOL     OW70962   2.530   1.520   7.716  0.1910  0.0174  0.7334
22777SOL    HW170963   2.501   1.429   7.720 -0.3422  0.1631  0.3095
22777SOL    HW270964   2.564   1.531   7.627  0.6270  0.1240  0.9100
22778SOL     OW70965   9.210   3.065   9.407 -0.4328 -0.5270 -0.4464
22778SOL    HW170966   9.284   3.125   9.396 -1.6661  0.8496 -1.6510
22778SOL    HW270967   9.248   2.988   9.449  1.3010  0.9048  0.7732
22779SOL     OW70968   7.071   9.397   9.939  0.3538 -0.1961  0.4938
22779SOL    HW170969   7.046   9.489   9.928  1.4624  0.0405 -0.2035
22779SOL    HW270970   7.140   9.399  10.006  0.0304 -0.5759  0.8372
22780SOL     OW70971   8.216   9.888   3.969 -0.5431  0.3481  0.1328
22780SOL    HW170972   8.218   9.927   3.881 -0.9308 -1.8922 -0.9670
22780SOL    HW270973   8.129   9.847   3.974 -0.3392  0.0365  1.3656
22781SOL     OW70974   2.912   8.426   0.546 -0.0243  0.0132 -0.5364
22781SOL    HW170975   2.826   8.412   0.508  0.5474 -0.2652 -1.7889
22781SOL    HW270976   2.956   8.485   0.485  1.6275 -2.0204 -1.4653
22782SOL     OW70977   6.219   0.034   1.094 -0.3647  0.5936 -0.0351
22782SOL    HW170978   6.258  -0.002   1.174  0.1766  1.1907 -0.0206
22782SOL    HW270979   6.134  -0.008   1.088 -0.1002 -0.0263  0.4507
22783SOL     OW70980   3.769   5.484   6.062 -0.6162  0.1442  0.6551
22783SOL    HW170981   3.778   5.547   6.133  1.2919  2.3215 -1.3393
22783SOL    HW270982   3.718   5.530   5.995 -2.4771 -1.8797  0.5518
22784SOL     OW70983   9.493   9.980   6.547 -0.5893 -0.1326 -0.2228
22784SOL    HW170984   9.459  10.052   6.600 -1.7373 -2.1856  2.0232
22784SOL    HW270985   9.566   9.944   6.598 -1.0146 -1.4925 -0.5230
22785SOL     OW70986   2.203   0.159   8.340  0.4697  0.2727 -0.4954
22785SOL    HW170987   2.118   0.116   8.329  0.5357 -1.0016  2.9126
22785SOL    HW270988   2.182   0.242   8.382  0.8818 -0.8787  2.2034
22786SOL     OW70989   1.115   3.684   3.633  0.3076 -0.8446 -0.3035
22786SOL    HW170990   1.040   3.629   3.656 -1.1561  1.6967  1.4973
22786SOL    HW270991   1.110   3.694   3.538 -1.3886 -1.0703 -0.2660
22787SOL     OW70992   7.352   1.662   5.635 -0.6909  0.0167 -0.0622
22787SOL    HW170993   7.340   1.756   5.622  0.0767  0.1037 -0.1643
22787SOL    HW270994   7.398   1.632   5.556 -0.4537 -0.3467  0.2118
22788SOL     OW70995   7.976   8.352   6.678  0.0105 -0.1412 -0.1406
22788SOL    HW170996   7.886   8.382   6.691 -0.0969 -0.9077  1.0261
22788SOL    HW270997   8.030   8.423   6.712 -0.0837  0.8648 -1.9610
22789SOL     OW70998   9.595   7.530   4.419  0.1501  0.3765  0.3707
22789SOL    HW170999   9.624   7.440   4.408 -0.4000 -0.0193  1.8794
22789SOL    HW271000   9.534   7.545   4.347 -0.7644 -0.9049  0.8549
22790SOL     OW71001   2.770   9.681   2.133 -0.1996  0.2012  0.0405
22790SOL    HW171002   2.858   9.696   2.168 -0.1081  1.3884 -0.6334
22790SOL    HW271003   2.784   9.656   2.041 -0.5210 -1.0331  0.3015
22791SOL     OW71004   9.680   0.113   1.461  0.4599  0.4779  0.6033
22791SOL    HW171005   9.589   0.094   1.483 -0.1917  1.0467 -1.3370
22791SOL    HW271006   9.730   0.041   1.500 -1.1883 -1.6348 -0.9382
22792SOL     OW71007   7.946   0.412   3.786 -0.2195 -1.2400 -0.3425
22792SOL    HW171008   7.943   0.460   3.703  0.3738 -0.1231  0.2528
22792SOL    HW271009   8.038   0.386   3.795  0.0798  0.0817  0.7241
22793SOL     OW71010   7.196   0.569   8.711 -0.1053 -0.5868 -0.4228
22793SOL    HW171011   7.132   0.606   8.772 -0.0787  0.1115 -0.8110
22793SOL    HW271012   7.264   0.531   8.767  1.2303  2.2697  0.0641
22794SOL     OW71013   2.944   9.400   6.100 -0.2627 -0.1725 -0.1237
22794SOL    HW171014   2.945   9.305   6.088 -1.4356 -0.2090 -0.0783
22794SOL    HW271015   2.851   9.421   6.113 -0.1108  1.0915 -0.9677
22795SOL     OW71016   7.560   3.493   1.162 -0.3090  0.7375  0.0070
22795SOL    HW171017   7.609   3.415   1.188 -1.6812  0.2063  1.1727
22795SOL    HW271018   7.533   3.532   1.245 -0.4965  1.8962 -0.5833
22796SOL     OW71019   7.377   0.308   3.891 -0.2067  0.3079  0.2596
22796SOL    HW171020   7.352   0.221   3.861 -1.8481  0.3721  1.2925
22796SOL    HW271021   7.403   0.355   3.811 -1.6046 -0.4122 -0.6548
22797SOL     OW71022   9.775   7.849   4.016 -0.3371  0.0744  0.7557
22797SOL    HW171023   9.791   7.858   3.922 -0.2652 -0.5285  0.7082
22797SOL    HW271024   9.783   7.756   4.033  0.1361  0.2314  1.4468
22798SOL     OW71025   0.313   4.811   9.704 -0.4682 -0.6271 -0.1393
22798SOL    HW171026   0.344   4.726   9.670  1.3420  0.4246 -1.2816
22798SOL    HW271027   0.242   4.788   9.763 -0.4342 -2.9140 -0.8694
22799SOL     OW71028   3.227   9.576   8.102  0.1009 -0.2824 -0.1514
22799SOL    HW171029   3.200   9.641   8.167 -1.8416  0.4510 -1.6176
22799SOL    HW271030   3.149   9.524   8.086  0.3134 -0.0005 -2.4053
22800SOL     OW71031   1.479   3.334   1.492  0.5070  0.0162 -0.2158
22800SOL    HW171032   1.486   3.378   1.408 -2.9090  0.2272 -0.5406
22800SOL    HW271033   1.539   3.260   1.486 -0.1881 -0.4168 -3.1780
22801SOL     OW71034   1.099   0.452   0.838 -0.5262  0.0286 -0.1202
22801SOL    HW171035   1.173   0.495   0.881  0.0168  0.7750 -1.6975
22801SOL    HW271036   1.080   0.376   0.892  2.0048 -0.7139 -0.1630
22802SOL     OW71037   5.942   7.064   7.447  0.2195 -0.2290  0.5423
22802SOL    HW171038   5.956   7.141   7.502  2.1503 -0.8413  0.9866
22802SOL    HW271039   5.960   7.094   7.358 -0.3873  0.1527  0.5446
22803SOL     OW71040   4.383   5.681   5.440  0.6999 -0.2914  0.4284
22803SOL    HW171041   4.385   5.608   5.378  1.4717  0.5140 -0.5428
22803SOL    HW271042   4.362   5.757   5.386  0.1744  0.2502  1.3798
22804SOL     OW71043   7.784   7.414   6.498 -0.2135 -0.3405 -0.2664
22804SOL    HW171044   7.692   7.387   6.502  0.0332 -1.0550  1.2124
22804SOL    HW271045   7.807   7.406   6.406 -1.1035 -2.0150 -0.3789
22805SOL     OW71046   1.892   2.417   8.820  0.2984  0.1910 -0.3794
22805SOL    HW171047   1.888   2.503   8.777 -1.2671  1.8477  2.7050
22805SOL    HW271048   1.812   2.413   8.872 -1.2023 -4.4971 -2.4977
22806SOL     OW71049   0.547   1.676   4.182 -0.2428 -0.4584  0.2601
22806SOL    HW171050   0.546   1.762   4.140  0.1098 -0.1914  0.7909
22806SOL    HW271051   0.480   1.626   4.134 -1.2613  0.4554  0.6708
22807SOL     OW71052   5.550   6.338   7.579 -0.0232 -0.2946  0.5632
22807SOL    HW171053   5.544   6.256   7.627 -2.4789 -1.2411 -1.2258
22807SOL    HW271054   5.630   6.330   7.527  0.6060 -0.8408  1.5866
22808SOL     OW71055   8.826   1.494   9.375  0.3713  0.3693  0.2201
22808SOL    HW171056   8.754   1.507   9.436  0.3097  1.9791 -0.1518
22808SOL    HW271057   8.899   1.543   9.412 -0.0110  2.4100 -1.5271
22809SOL     OW71058   8.337   0.223   9.136 -0.3126  0.4066  0.3541
22809SOL    HW171059   8.373   0.159   9.197  0.4304 -0.6178 -1.0977
22809SOL    HW271060   8.244   0.226   9.156 -0.4891 -1.6794  0.0116
22810SOL     OW71061   3.480   8.364   4.793  0.4053 -0.3203 -0.2379
22810SOL    HW171062   3.510   8.428   4.857 -1.8018 -1.0936  1.6864
22810SOL    HW271063   3.549   8.298   4.792  1.5154  0.7895 -0.3807
22811SOL     OW71064   4.002   8.675   7.585 -0.2172  0.2616 -0.0680
22811SOL    HW171065   3.943   8.706   7.516  1.3006  0.5829 -1.2726
22811SOL    HW271066   4.090   8.695   7.553  0.5248  2.1817  2.8145
22812SOL     OW71067   0.327   1.169   1.229 -0.2707 -0.2319 -0.0376
22812SOL    HW171068   0.383   1.134   1.159  2.1306  1.6189  0.7939
22812SOL    HW271069   0.344   1.263   1.227 -0.8555 -0.0222  2.4103
22813SOL     OW71070   7.117   8.238   8.895  0.1154 -0.1945 -0.1073
22813SOL    HW171071   7.145   8.165   8.949  1.3235  0.1164 -0.2904
22813SOL    HW271072   7.024   8.222   8.879 -0.0790 -0.7096  1.3833
22814SOL     OW71073   6.676   5.269   8.089 -0.1045 -0.6096  0.5641
22814SOL    HW171074   6.671   5.361   8.063 -0.1212 -0.6876  0.2908
22814SOL    HW271075   6.612   5.225   8.034 -1.6779 -0.4720  2.1886
22815SOL     OW71076   8.844   5.531   5.434  0.2234  0.1553  0.1156
22815SOL    HW171077   8.769   5.476   5.415  0.8971 -0.8661  0.2996
22815SOL    HW271078   8.859   5.581   5.354 -0.2369 -0.1410 -0.1541
22816SOL     OW71079   2.760   6.493   4.134 -0.2159 -0.1385  0.2746
22816SOL    HW171080   2.738   6.579   4.098 -2.1150 -0.5153  0.4206
22816SOL    HW271081   2.830   6.461   4.078 -0.5314  0.8723 -0.7466
22817SOL     OW71082   2.899   9.941   2.777  0.6907 -0.0993  0.6202
22817SOL    HW171083   2.839   9.877   2.815  1.0852 -0.1014  1.2582
22817SOL    HW271084   2.872   9.948   2.686  1.3959 -2.0888  0.2045
22818SOL     OW71085   6.226   9.587   8.020 -0.2329 -0.1509  0.1647
22818SOL    HW171086   6.305   9.558   8.065 -0.7516  0.1005  1.2685
22818SOL    HW271087   6.157   9.581   8.086 -0.7634  1.5265 -0.1923
22819SOL     OW71088   6.748   2.742   5.186  0.2299  0.2618 -0.5323
22819SOL    HW171089   6.754   2.766   5.278  0.4458  1.4425 -0.8385
22819SOL    HW271090   6.654   2.733   5.170  0.2434 -1.5860  0.1772
22820SOL     OW71091   5.977   0.844   1.925 -0.1195  0.1239  0.1199
22820SOL    HW171092   5.939   0.931   1.916 -1.0819 -0.1032  1.6442
22820SOL    HW271093   6.027   0.848   2.006  0.2635 -0.5902 -0.0748
22821SOL     OW71094   8.345   7.454   7.011  0.0344  0.1437  0.5282
22821SOL    HW171095   8.310   7.426   6.927  1.4267 -0.6767  0.1796
22821SOL    HW271096   8.288   7.414   7.077  1.1919 -2.5721  0.0212
22822SOL     OW71097   1.474   1.512   9.642  0.1213  0.2955  0.8151
22822SOL    HW171098   1.406   1.524   9.709 -0.1395  0.4475  0.5276
22822SOL    HW271099   1.425   1.496   9.561  0.4376 -0.1207  0.7058
22823SOL     OW71100   3.469   7.294   7.239  0.2536 -0.0782 -0.1405
22823SOL    HW171101   3.501   7.215   7.282 -0.7666 -0.3339  0.1894
22823SOL    HW271102   3.375   7.296   7.259  0.0655  0.6707 -0.9988
22824SOL     OW71103   5.737   4.416   5.404 -0.1330 -0.4517 -0.1940
22824SOL    HW171104   5.798   4.360   5.356  1.3662 -0.3870  1.5431
22824SOL    HW271105   5.706   4.480   5.339  1.8686 -0.3297 -1.0738
22825SOL     OW71106   8.996   6.538   6.723 -0.0079  0.3739 -0.0484
22825SOL    HW171107   8.911   6.581   6.713  0.1287  0.1618 -2.7744
22825SOL    HW271108   8.980   6.447   6.700  0.8571  0.2143 -0.0564
22826SOL     OW71109   8.998   5.937   0.377 -0.7131  0.1682  0.4266
22826SOL    HW171110   8.935   5.984   0.322 -0.3621 -0.4063 -0.4928
22826SOL    HW271111   9.033   5.868   0.320 -0.2047 -0.3358  1.3215
22827SOL     OW71112   2.741   6.093   7.446  0.2928  0.1137 -0.0420
22827SOL    HW171113   2.660   6.096   7.497  0.4831  1.1398  0.2066
22827SOL    HW271114   2.745   6.002   7.414 -1.4992  0.3142 -0.9563
22828SOL     OW71115   5.706   1.347   5.197 -0.1243 -0.1552 -0.3593
22828SOL    HW171116   5.665   1.343   5.111 -0.5064 -2.6003 -0.1227
22828SOL    HW271117   5.799   1.330   5.180 -0.0232  0.3895 -0.3750
22829SOL     OW71118   6.984   3.283   1.519  0.0617 -0.4722  0.7654
22829SOL    HW171119   6.961   3.365   1.476 -2.3790 -1.1034  0.6914
22829SOL    HW271120   7.057   3.305   1.576 -0.9225  1.9017  1.2222
22830SOL     OW71121   5.968   8.107   5.049 -0.2254 -0.4658 -0.8411
22830SOL    HW171122   5.961   8.029   5.103 -1.6401  0.3855  0.2763
22830SOL    HW271123   6.049   8.149   5.076 -0.4075 -0.5859 -0.0915
22831SOL     OW71124   2.623   3.517   4.030  0.0677  0.6218  0.1325
22831SOL    HW171125   2.597   3.462   3.956  2.5051 -1.9310  1.0120
22831SOL    HW271126   2.714   3.540   4.013  0.3519  0.8983  1.7932
22832SOL     OW71127   1.485   5.888   8.537 -0.4037  0.4919  0.1157
22832SOL    HW171128   1.561   5.883   8.479 -0.0654  0.7882  0.5249
22832SOL    HW271129   1.475   5.982   8.555 -2.7374  0.8416 -2.3524
22833SOL     OW71130   7.304   5.352   9.864 -0.3020  0.2384  0.3994
22833SOL    HW171131   7.378   5.293   9.850  0.2640  1.0814 -0.2757
22833SOL    HW271132   7.280   5.382   9.776 -0.5085  1.0948  0.7373
22834SOL     OW71133   0.462   5.086   5.314  0.0838  0.1636  0.5683
22834SOL    HW171134   0.558   5.084   5.310  0.0469  0.0227 -0.3245
22834SOL    HW271135   0.436   4.994   5.305 -0.1923  0.3809 -1.1032
22835SOL     OW71136   6.995   5.951   2.910  0.6177  0.1894 -0.1208
22835SOL    HW171137   7.052   6.027   2.925 -0.1904  0.5803  1.1557
22835SOL    HW271138   6.917   5.970   2.962 -0.1547 -0.9135 -0.8487
22836SOL     OW71139   9.849   7.681   9.866  0.1917 -0.1435  0.2376
22836SOL    HW171140   9.856   7.628   9.945  3.6039 -0.6504 -0.2334
22836SOL    HW271141   9.937   7.718   9.855 -1.5407  4.3841 -0.3687
22837SOL     OW71142   4.887   6.180   4.956 -0.3569 -0.4268 -0.1911
22837SOL    HW171143   4.971   6.135   4.960 -0.2223 -0.0913  0.9599
22837SOL    HW271144   4.907   6.263   4.912  0.0103 -0.1426  0.5059
22838SOL     OW71145   9.899   4.754   7.338 -0.0174 -0.2722 -0.4517
22838SOL    HW171146   9.887   4.746   7.244  1.9239 -0.8869 -0.6847
22838SOL    HW271147   9.840   4.689   7.376  0.0810 -0.8860 -1.3251
22839SOL     OW71148   0.318   9.862   4.362  0.3219 -0.7453  0.3540
22839SOL    HW171149   0.317   9.773   4.328  0.0914 -0.6424  0.0940
22839SOL    HW271150   0.407   9.873   4.395  0.1063 -1.3569  1.1586
22840SOL     OW71151   2.562   8.336   4.231  0.0764  0.2032 -0.3120
22840SOL    HW171152   2.618   8.366   4.302 -0.8167  0.3544  0.3434
22840SOL    HW271153   2.546   8.244   4.250  1.9185 -0.4686 -1.7262
22841SOL     OW71154   5.866   9.023   5.988  0.1758  0.2721  0.0830
22841SOL    HW171155   5.912   9.076   6.053  0.2228  1.0126 -0.5446
22841SOL    HW271156   5.920   8.944   5.980  1.1393  0.9490 -0.3433
22842SOL     OW71157   8.526   5.155   7.286  0.5486  0.3272 -0.4946
22842SOL    HW171158   8.443   5.149   7.333  1.0588 -0.5122  0.3248
22842SOL    HW271159   8.502   5.151   7.194 -0.3139  0.0740 -0.2635
22843SOL     OW71160   8.447   2.431   0.837 -0.8324 -0.1734  0.5042
22843SOL    HW171161   8.493   2.512   0.856  0.3249 -1.1480  2.1115
22843SOL    HW271162   8.367   2.435   0.890 -0.8084 -0.0646  0.5315
22844SOL     OW71163   1.245   2.342   5.200  0.1871 -0.2276 -0.1016
22844SOL    HW171164   1.336   2.333   5.173  0.9996  0.1625  2.2601
22844SOL    HW271165   1.243   2.424   5.250 -1.0967 -0.9925  1.1651
22845SOL     OW71166  10.240   1.442   6.390  0.3051  0.1561  0.1329
22845SOL    HW171167  10.265   1.455   6.299 -0.3546  0.8229  0.0407
22845SOL    HW271168  10.321   1.455   6.439  0.4836  0.6853 -0.2889
22846SOL     OW71169   5.468   9.821   2.717 -0.0923  0.0660  0.4582
22846SOL    HW171170   5.387   9.862   2.746 -0.3113 -1.0720  1.5409
22846SOL    HW271171   5.532   9.841   2.785 -0.2216 -1.3944  1.0471
22847SOL     OW71172   5.444   7.610   8.867  0.2189 -0.2284  0.1137
22847SOL    HW171173   5.354   7.579   8.881  0.4074 -0.3007  1.2038
22847SOL    HW271174   5.485   7.606   8.953  0.8319  1.2427 -0.0863
22848SOL     OW71175   8.129   7.544   6.274  0.4717  0.3126  0.4340
22848SOL    HW171176   8.180   7.625   6.281  1.5153 -0.3828  1.0352
22848SOL    HW271177   8.184   7.477   6.314 -0.4439 -0.6788  0.0756
22849SOL     OW71178   8.145   7.006   2.667  0.2526 -0.0169 -0.2152
22849SOL    HW171179   8.128   7.029   2.575  2.2558 -1.1721 -0.9260
22849SOL    HW271180   8.129   6.912   2.671 -0.5230  0.1432  0.8291
22850SOL     OW71181   8.886   1.224   2.747 -0.3052 -0.5801 -0.5271
22850SOL    HW171182   8.831   1.301   2.763 -0.1973 -0.1822 -1.9741
22850SOL    HW271183   8.960   1.235   2.806 -1.5591 -0.9282  1.1796
22851SOL     OW71184   8.223   6.464   2.480  0.5165  0.2240  0.4174
22851SOL    HW171185   8.199   6.444   2.389 -0.9144  0.8541  0.6257
22851SOL    HW271186   8.300   6.409   2.497  1.1388  0.4791 -1.3310
22852SOL     OW71187  10.337   5.660   3.615 -0.5197  0.2679 -0.1020
22852SOL    HW171188  10.352   5.594   3.683  1.7463 -0.1710 -0.9480
22852SOL    HW271189  10.364   5.743   3.656  0.0091  0.1328 -0.1681
22853SOL     OW71190   8.871   6.920   7.440 -0.0492 -0.8242 -0.2738
22853SOL    HW171191   8.845   6.897   7.529  0.9392  0.4753  0.3873
22853SOL    HW271192   8.904   6.838   7.403 -1.5426 -1.6433  0.1281
22854SOL     OW71193   3.165   5.496   7.073  0.0121 -0.1183 -0.2811
22854SOL    HW171194   3.138   5.499   7.165  0.3225 -0.5840 -0.1701
22854SOL    HW271195   3.244   5.441   7.073  1.1332  1.4026 -0.5429
22855SOL     OW71196   3.662   3.378   2.759  0.0095 -0.1789  0.0366
22855SOL    HW171197   3.723   3.420   2.699  0.9046  1.5771  2.0428
22855SOL    HW271198   3.583   3.432   2.755  0.0161 -0.1479  0.3225
22856SOL     OW71199   8.743   7.309   6.129  0.2035 -0.0381  0.0042
22856SOL    HW171200   8.652   7.300   6.157 -0.2890 -1.6910 -1.8490
22856SOL    HW271201   8.752   7.401   6.104 -0.6476  0.3722  1.1148
22857SOL     OW71202   4.190   1.194   3.241 -0.6764  0.8509 -0.1532
22857SOL    HW171203   4.113   1.180   3.296  0.1583  0.9556  1.0868
22857SOL    HW271204   4.229   1.275   3.274  0.1179  0.6428 -0.5479
22858SOL     OW71205   3.851   6.862   0.560 -0.0045 -0.5441  0.0519
22858SOL    HW171206   3.781   6.811   0.601 -0.4139  0.1037  0.1760
22858SOL    HW271207   3.932   6.821   0.591 -0.3131 -0.4373  1.0425
22859SOL     OW71208   9.111   6.868   8.411  0.3321  0.2362 -0.6606
22859SOL    HW171209   9.131   6.878   8.318 -0.0617  1.5636 -0.6180
22859SOL    HW271210   9.028   6.819   8.412  1.8298 -2.5087 -0.8925
22860SOL     OW71211   3.604   2.596   4.135 -0.2035 -0.0588 -0.2824
22860SOL    HW171212   3.529   2.547   4.170  0.8004 -1.3843  0.0916
22860SOL    HW271213   3.577   2.621   4.047 -0.7620 -1.2918 -0.4882
22861SOL     OW71214   6.803   6.408   4.989  0.6422 -0.2072  0.2799
22861SOL    HW171215   6.856   6.361   4.924  1.5818  0.1500  0.7577
22861SOL    HW271216   6.732   6.348   5.011 -1.2828  0.6194 -2.9605
22862SOL     OW71217   0.689   2.384   9.319 -0.2288  0.1865 -0.1071
22862SOL    HW171218   0.772   2.396   9.366  1.8452 -3.6563 -2.1932
22862SOL    HW271219   0.710   2.406   9.228 -2.1150  0.9619 -0.3962
22863SOL     OW71220   1.625   3.475   8.930 -0.0926 -0.4131  0.2556
22863SOL    HW171221   1.534   3.452   8.948  0.1246 -1.5160  0.0139
22863SOL    HW271222   1.675   3.434   9.002  0.3955 -1.5832 -0.7041
22864SOL     OW71223  10.332   0.066   7.912 -0.1409  0.0013 -0.4475
22864SOL    HW171224  10.320  -0.024   7.880  2.0793 -0.2149 -0.8199
22864SOL    HW271225  10.294   0.065   8.000 -0.0185 -1.3491 -0.3909
22865SOL     OW71226   3.975   8.437   2.366  0.1245  0.0659 -1.0413
22865SOL    HW171227   4.002   8.509   2.424  1.5879  0.2266 -1.8707
22865SOL    HW271228   4.040   8.368   2.382 -1.0916 -0.9906 -0.4690
22866SOL     OW71229   7.372   4.395   0.985  0.1558  0.0617  0.5267
22866SOL    HW171230   7.452   4.440   1.011 -0.9471  2.5494 -0.0926
22866SOL    HW271231   7.336   4.449   0.914 -3.2087  0.4205  2.2908
22867SOL     OW71232   6.718   8.150   4.154 -0.9325  0.2229  0.3898
22867SOL    HW171233   6.785   8.088   4.181 -1.3352 -1.1545 -1.5475
22867SOL    HW271234   6.670   8.172   4.234 -1.1274 -2.4048  1.0629
22868SOL     OW71235   3.681   4.601   5.071 -0.7968  0.1026  0.2812
22868SOL    HW171236   3.665   4.598   4.977 -1.4295  3.4833  0.1528
22868SOL    HW271237   3.766   4.645   5.079  0.3156 -2.0804  1.3258
22869SOL     OW71238   4.216   5.452   7.092  0.3218 -0.0070  0.1113
22869SOL    HW171239   4.164   5.529   7.067 -0.0662  1.0305  3.6548
22869SOL    HW271240   4.307   5.483   7.086  0.4555 -0.6161 -2.2639
22870SOL     OW71241   1.869   1.466   9.666  0.1590  0.0633 -0.2758
22870SOL    HW171242   1.859   1.408   9.742 -0.9838  0.7040  0.0837
22870SOL    HW271243   1.879   1.408   9.591 -0.5393 -0.5851  0.1356
22871SOL     OW71244   8.579   4.019   8.617 -0.5043  0.0145  0.6925
22871SOL    HW171245   8.535   3.965   8.552  2.6160 -1.9890  0.0301
22871SOL    HW271246   8.585   4.106   8.575 -0.8913 -0.5250 -0.5410
22872SOL     OW71247   5.749   3.225   3.643 -0.9697 -0.2243 -0.2118
22872SOL    HW171248   5.768   3.131   3.654 -0.6925 -0.1685 -0.2020
22872SOL    HW271249   5.832   3.263   3.614 -1.0935  0.0120 -0.2604
22873SOL     OW71250   5.282   6.362   4.104 -0.0243 -0.1562 -0.0617
22873SOL    HW171251   5.256   6.269   4.100 -2.7633  0.4799  0.8161
22873SOL    HW271252   5.199   6.410   4.104  1.0770  2.1313  3.5232
22874SOL     OW71253   9.924   6.106   2.579  0.0428 -0.1535  0.0029
22874SOL    HW171254   9.899   6.073   2.492 -0.7798  0.2676  0.0677
22874SOL    HW271255   9.941   6.199   2.566 -0.3917 -0.0208  0.3463
22875SOL     OW71256   8.992   1.352   8.675  0.1369  0.2268  0.3003
22875SOL    HW171257   8.910   1.399   8.662  0.5862  1.0360  0.3234
22875SOL    HW271258   8.968   1.275   8.727 -0.7143  0.0623 -0.3228
22876SOL     OW71259   7.041   5.111  10.360 -0.6256 -0.3490  0.7906
22876SOL    HW171260   6.991   5.183  10.319  0.8050 -0.1806 -0.7651
22876SOL    HW271261   7.060   5.052  10.287  1.9184 -0.1189  1.2007
22877SOL     OW71262   9.799   3.459   0.451 -0.2346  0.1306  0.0759
22877SOL    HW171263   9.835   3.380   0.412  0.9065  1.1638 -1.1039
22877SOL    HW271264   9.769   3.511   0.376 -0.3275  1.0896  0.7557
22878SOL     OW71265   5.735   9.491   1.224  0.0179  0.0652 -0.0739
22878SOL    HW171266   5.809   9.521   1.171 -0.1370  0.6006  0.0077
22878SOL    HW271267   5.680   9.568   1.235 -0.0986 -0.1092  0.6313
22879SOL     OW71268   1.765   1.384   4.960  0.4471  0.0050 -0.3528
22879SOL    HW171269   1.808   1.414   4.880 -0.2326 -1.9674 -1.5529
22879SOL    HW271270   1.819   1.312   4.992 -1.0475 -1.5187 -1.0510
22880SOL     OW71271   1.529   8.611  10.280 -0.1301 -0.3324  0.2903
22880SOL    HW171272   1.569   8.693  10.309  1.2499 -0.9377  0.1811
22880SOL    HW271273   1.448   8.605  10.331  0.1546  0.6850  0.9053
22881SOL     OW71274   0.417   2.888   3.401  0.0675 -0.0910  0.0016
22881SOL    HW171275   0.375   2.910   3.318 -0.8307 -0.9150  0.2163
22881SOL    HW271276   0.452   2.971   3.434  0.6535  0.2071 -1.3044
22882SOL     OW71277   9.974   0.510   9.684 -0.0066 -0.3039 -0.2942
22882SOL    HW171278   9.940   0.528   9.771  0.2194 -0.3965 -0.1870
22882SOL    HW271279  10.043   0.575   9.672 -2.1786  1.9119 -1.6960
22883SOL     OW71280   2.247   3.117   9.543 -0.4632 -0.3706  0.4027
22883SOL    HW171281   2.274   3.112   9.451 -0.1574 -1.6613  0.5436
22883SOL    HW271282   2.316   3.167   9.586 -1.1150  1.1499 -0.2271
22884SOL     OW71283   8.250   4.613   8.988 -0.2754  0.7006 -0.5672
22884SOL    HW171284   8.258   4.675   8.916 -0.6320  0.9508 -0.3974
22884SOL    HW271285   8.263   4.666   9.067  1.3259  0.2184 -0.4712
22885SOL     OW71286  10.023   3.918   5.436  0.9643 -0.2675  0.0886
22885SOL    HW171287  10.102   3.947   5.481 -0.1196  1.7609  0.8525
22885SOL    HW271288  10.031   3.954   5.348  0.3758  1.0239  0.5379
22886SOL     OW71289   6.097   1.210   4.340 -0.7031 -0.5890  0.2742
22886SOL    HW171290   6.143   1.288   4.310  0.0054 -1.4519 -0.9879
22886SOL    HW271291   6.037   1.242   4.408 -1.3109  1.2425 -1.0462
22887SOL     OW71292   7.041   8.794   5.603  0.0394 -0.1757  0.0860
22887SOL    HW171293   7.019   8.703   5.627 -0.4593 -0.0845 -0.0196
22887SOL    HW271294   7.023   8.844   5.682  2.2200 -0.4310  0.8139
22888SOL     OW71295   6.011   5.885   9.380  0.2486  0.0185 -0.0699
22888SOL    HW171296   6.091   5.857   9.426  1.5165  3.1185 -0.0811
22888SOL    HW271297   6.035   5.969   9.341 -2.8097  0.6585 -0.8199
22889SOL     OW71298   5.770   7.603   1.762  0.6377  0.2662 -0.0928
22889SOL    HW171299   5.851   7.554   1.749  2.0224  2.5406 -0.6745
22889SOL    HW271300   5.706   7.537   1.788  2.6663 -1.6313  0.4422
22890SOL     OW71301   6.999   2.538   7.162 -0.1155  0.2629 -0.1892
22890SOL    HW171302   6.984   2.488   7.082  0.2608 -1.5092  0.7861
22890SOL    HW271303   6.969   2.480   7.233 -0.2612  1.6958  0.9756
22891SOL     OW71304   3.205   3.105   2.728 -0.0096  0.4141  0.2233
22891SOL    HW171305   3.260   3.058   2.666  0.0529 -1.4464  1.5871
22891SOL    HW271306   3.262   3.171   2.766  0.4908  0.3196 -0.3615
22892SOL     OW71307   0.229   1.327   6.264 -0.2211  0.2790 -0.3340
22892SOL    HW171308   0.205   1.240   6.298 -0.9886  0.8099  0.5149
22892SOL    HW271309   0.188   1.388   6.325  2.8863  1.2642  0.9080
22893SOL     OW71310   1.914   8.905   4.056  0.0340 -0.5458 -0.3423
22893SOL    HW171311   1.840   8.854   4.090 -0.1165 -0.7226 -0.9337
22893SOL    HW271312   1.881   8.947   3.977 -0.5080  2.2128  1.2244
22894SOL     OW71313   0.213   2.204   3.188 -0.6576 -0.2767 -0.2768
22894SOL    HW171314   0.185   2.284   3.144  1.0528  1.1151  1.0004
22894SOL    HW271315   0.132   2.165   3.222 -1.4201  1.6920  0.2868
22895SOL     OW71316   0.312   8.843   6.384  0.2628 -0.5423 -0.0971
22895SOL    HW171317   0.313   8.898   6.305  0.4172  0.0923  0.3379
22895SOL    HW271318   0.356   8.897   6.450 -1.9406 -0.0810  1.0797
22896SOL     OW71319   5.008   7.958   6.701  0.2317  0.6610  0.2249
22896SOL    HW171320   4.949   7.969   6.776 -0.6879  0.2554 -0.4172
22896SOL    HW271321   5.044   7.870   6.712 -0.3309  0.3853 -0.0922
22897SOL     OW71322   3.629   7.709   5.235 -0.3107 -0.9003  0.2908
22897SOL    HW171323   3.608   7.659   5.156 -2.8938  0.1111  0.2482
22897SOL    HW271324   3.555   7.693   5.293 -0.0828  1.0467  1.1752
22898SOL     OW71325   7.175   2.995   8.783 -0.7547  0.3816 -0.1902
22898SOL    HW171326   7.264   2.974   8.814 -0.6254 -0.9461 -1.3538
22898SOL    HW271327   7.118   2.969   8.855 -0.1798  2.4774  1.1276
22899SOL     OW71328   4.166   6.546   6.333  0.2188 -0.1484 -0.2458
22899SOL    HW171329   4.088   6.497   6.307  0.5601 -0.0035 -1.6043
22899SOL    HW271330   4.166   6.623   6.277  0.0660  1.0930  1.3984
22900SOL     OW71331   3.384   6.754  10.304  0.1753  0.2512  0.1811
22900SOL    HW171332   3.447   6.812  10.348  1.4939 -0.9577 -0.0260
22900SOL    HW271333   3.352   6.806  10.230  1.4850  0.6662 -0.1310
22901SOL     OW71334   9.792   6.441   4.231  0.0888  0.1150 -0.6933
22901SOL    HW171335   9.819   6.522   4.189  0.8386  0.6605  0.7687
22901SOL    HW271336   9.795   6.460   4.325 -0.0130 -1.5123 -0.3216
22902SOL     OW71337   1.239   5.979   2.082  0.3559  0.3959  0.3159
22902SOL    HW171338   1.166   5.986   2.021 -0.0703 -2.0662  0.4408
22902SOL    HW271339   1.317   5.984   2.026  0.0473  0.6493 -0.1000
22903SOL     OW71340   1.401   9.041   3.256  0.1845 -0.0652 -0.2987
22903SOL    HW171341   1.446   8.974   3.205 -1.7361  0.4321 -2.8659
22903SOL    HW271342   1.316   9.002   3.278  0.1625  0.5134  0.7406
22904SOL     OW71343   0.848   5.958   4.181 -0.2392  0.6071  0.1386
22904SOL    HW171344   0.906   5.890   4.217 -1.1522 -0.4991 -0.4094
22904SOL    HW271345   0.905   6.014   4.130  0.2031 -1.2846 -1.5873
22905SOL     OW71346   5.039   1.471   2.972  0.5576  0.0064 -0.2033
22905SOL    HW171347   5.040   1.555   2.926  1.7661  0.0300 -0.1718
22905SOL    HW271348   5.035   1.495   3.065  0.3133  0.0097 -0.2137
22906SOL     OW71349   9.421   8.539   0.789 -0.4191  0.4585 -0.4027
22906SOL    HW171350   9.388   8.628   0.801 -0.1528  0.2787  2.3139
22906SOL    HW271351   9.361   8.498   0.726 -0.6433  2.4615 -1.5614
22907SOL     OW71352   2.621   8.494   3.220  0.1689  0.2498 -0.2463
22907SOL    HW171353   2.535   8.535   3.220 -0.2715 -0.6199  0.5882
22907SOL    HW271354   2.625   8.447   3.137 -0.2818  0.0687 -0.1711
22908SOL     OW71355   9.646   0.092  10.144  0.5228  0.3489 -0.5424
22908SOL    HW171356   9.633   0.118  10.053  1.2714 -0.6190 -0.9454
22908SOL    HW271357   9.646  -0.004  10.142 -1.8135  0.2458  0.8360
22909SOL     OW71358   3.337   3.834   4.333 -0.1011 -0.1630  0.3346
22909SOL    HW171359   3.297   3.812   4.249  0.2924 -3.0488  0.7810
22909SOL    HW271360   3.279   3.793   4.398  0.4867  0.5882  1.3674
22910SOL     OW71361   2.286   0.410   7.852 -0.2768 -0.0677  0.2844
22910SOL    HW171362   2.206   0.362   7.828  0.0191 -0.4309  0.0242
22910SOL    HW271363   2.350   0.342   7.871  0.3937  0.2021 -0.9016
22911SOL     OW71364   4.685   6.498   2.897  0.3275 -0.3621  0.1032
22911SOL    HW171365   4.764   6.506   2.844  0.4951  1.2798  0.5553
22911SOL    HW271366   4.620   6.553   2.853 -0.2216 -0.7638  0.3898
22912SOL     OW71367   9.148   0.030   2.625  0.5042  0.2051  0.0470
22912SOL    HW171368   9.123   0.110   2.578  1.0898  0.4188  0.0934
22912SOL    HW271369   9.241   0.020   2.607  0.4763 -0.3552  0.2161
22913SOL     OW71370   6.354   9.187   1.307 -0.5372  0.4141  0.2954
22913SOL    HW171371   6.302   9.171   1.385  0.4385 -2.0639  0.5348
22913SOL    HW271372   6.330   9.117   1.247  1.3583  0.1028 -0.1721
22914SOL     OW71373  10.156   4.607   2.210  0.3975  0.3795 -0.1933
22914SOL    HW171374  10.113   4.531   2.249 -0.6103  0.3196 -1.3325
22914SOL    HW271375  10.201   4.572   2.133 -0.0725  0.9212 -0.7254
22915SOL     OW71376   6.251  10.283   7.274  0.3491  0.3689  0.1423
22915SOL    HW171377   6.274  10.376   7.267 -1.2948  1.0485  2.4289
22915SOL    HW271378   6.284  10.256   7.360 -2.3549 -0.0655  1.1407
22916SOL     OW71379   1.532   3.561   2.251 -0.0360 -0.2315  0.4188
22916SOL    HW171380   1.512   3.489   2.191  0.6769 -0.9730  1.0511
22916SOL    HW271381   1.628   3.562   2.256 -0.0913 -1.1273  2.6409
22917SOL     OW71382   3.009   3.433   4.511 -0.3438 -1.0099 -0.6860
22917SOL    HW171383   2.940   3.462   4.450 -2.7659 -0.7766  1.9341
22917SOL    HW271384   2.997   3.489   4.588  2.2566 -1.6214  0.2633
22918SOL     OW71385   9.019   0.955   3.870 -0.3907 -0.6589  0.3594
22918SOL    HW171386   8.926   0.973   3.883 -0.8609 -2.8568  0.3924
22918SOL    HW271387   9.032   0.868   3.909  1.7595 -0.2599  0.6615
22919SOL     OW71388   2.635   6.969   3.502 -0.4160 -0.0531 -0.1886
22919SOL    HW171389   2.580   7.019   3.441  1.8223  1.0521 -1.3999
22919SOL    HW271390   2.696   6.921   3.446  0.3583 -0.6502  1.1223
22920SOL     OW71391   5.651   0.817   8.133 -0.2320 -0.8069  0.1030
22920SOL    HW171392   5.712   0.884   8.102 -1.1880 -0.4271 -1.0447
22920SOL    HW271393   5.651   0.826   8.228  1.8729 -1.1646  0.1989
22921SOL     OW71394   3.891   5.585  10.048  0.8605  0.2758  0.0604
22921SOL    HW171395   3.890   5.585   9.953 -0.8093 -0.7717  0.0386
22921SOL    HW271396   3.934   5.503  10.072 -0.3961 -0.3773  0.1606
22922SOL     OW71397   9.281   0.523   8.264  0.3877  0.0812 -0.2312
22922SOL    HW171398   9.248   0.608   8.293  0.0639  0.0680 -0.5572
22922SOL    HW271399   9.350   0.501   8.328  0.8201  0.8155 -0.4355
22923SOL     OW71400   0.197   6.515   2.952  0.0079 -0.3354 -0.2197
22923SOL    HW171401   0.107   6.531   2.978  0.0120 -0.2168 -0.2772
22923SOL    HW271402   0.191   6.445   2.887 -0.0132 -0.5451  0.0029
22924SOL     OW71403   1.930   3.732   1.032  0.2103  0.1844  0.5774
22924SOL    HW171404   1.851   3.722   1.085  0.8263 -0.1109  1.4695
22924SOL    HW271405   1.989   3.664   1.064 -0.1373 -1.4455 -1.9254
22925SOL     OW71406   9.817   1.765   4.668  0.5262 -0.0452 -0.3343
22925SOL    HW171407   9.895   1.708   4.670  0.2660 -0.4049 -0.2867
22925SOL    HW271408   9.852   1.854   4.665  0.9492 -0.2422 -1.7825
22926SOL     OW71409   5.767   4.477   1.960 -0.0406  0.8327 -0.2324
22926SOL    HW171410   5.810   4.514   2.037 -3.8411 -0.2231  2.6710
22926SOL    HW271411   5.710   4.547   1.928 -0.2234  0.5196 -0.6007
22927SOL     OW71412   6.967   4.247   3.449 -0.7786 -0.4020  0.1065
22927SOL    HW171413   6.878   4.259   3.481 -0.4168 -1.8373  1.8186
22927SOL    HW271414   7.011   4.330   3.466 -0.7479 -0.9223  3.0962
22928SOL     OW71415   2.801   8.451   1.057  0.6011  0.1372 -0.0932
22928SOL    HW171416   2.857   8.389   1.104  1.0941 -0.2179 -1.1221
22928SOL    HW271417   2.727   8.398   1.027  1.0553  0.0154 -1.0298
22929SOL     OW71418   7.513   7.564   6.744 -0.0349  0.1995 -0.1637
22929SOL    HW171419   7.462   7.607   6.813  0.2249 -0.1058  0.2249
22929SOL    HW271420   7.510   7.625   6.670 -2.1622 -0.4336 -0.6675
22930SOL     OW71421   8.987   9.743   9.520  0.2791  0.1588  0.0717
22930SOL    HW171422   9.040   9.690   9.579 -0.1396  0.0317  0.3417
22930SOL    HW271423   8.898   9.734   9.554  0.3350  1.8910  0.7760
22931SOL     OW71424   2.384   7.610   7.099 -0.1503  0.3454  0.1111
22931SOL    HW171425   2.312   7.635   7.157 -0.8927  0.1639 -0.7205
22931SOL    HW271426   2.399   7.518   7.119 -0.0758  0.4072  0.3519
22932SOL     OW71427   0.924   4.711   0.762  0.6350 -0.1874  0.5195
22932SOL    HW171428   0.843   4.670   0.734  0.2893  0.8588 -0.0491
22932SOL    HW271429   0.899   4.766   0.836  0.3705  1.9125 -1.0739
22933SOL     OW71430   7.017   9.833   5.933  0.0810  0.6992 -0.6649
22933SOL    HW171431   6.979   9.889   5.865  1.5369  1.8905 -0.5590
22933SOL    HW271432   7.044   9.754   5.887 -0.1549  0.9371 -1.2195
22934SOL     OW71433   3.587   7.357   4.595  0.0963 -0.3252 -0.1651
22934SOL    HW171434   3.571   7.442   4.553 -0.5170  0.2517  1.1761
22934SOL    HW271435   3.500   7.320   4.607  0.2021 -0.1957  1.1226
22935SOL     OW71436   5.309   4.899   7.523  0.3804 -0.2848 -0.2551
22935SOL    HW171437   5.388   4.901   7.576  1.8571  3.4176 -2.2629
22935SOL    HW271438   5.340   4.893   7.432 -1.8878 -2.4903 -1.0125
22936SOL     OW71439   0.593   9.153   0.350 -0.3196 -0.4413  0.1089
22936SOL    HW171440   0.537   9.085   0.387  0.9064  0.1102  3.2940
22936SOL    HW271441   0.673   9.108   0.325  0.1233 -0.3802  1.3324
22937SOL     OW71442   0.607   4.106   2.869  0.4076 -0.3928 -0.1598
22937SOL    HW171443   0.534   4.052   2.899  1.7254 -1.5454  1.1341
22937SOL    HW271444   0.640   4.148   2.948 -0.2127  1.9519 -1.0509
22938SOL     OW71445   8.460   6.341   8.634  0.5699  0.2410 -0.4342
22938SOL    HW171446   8.393   6.334   8.565  1.4796 -1.8297 -1.1655
22938SOL    HW271447   8.467   6.253   8.670  1.5804  0.8507  0.9369
22939SOL     OW71448   0.529   1.554   5.279  0.5201 -0.4218 -0.9306
22939SOL    HW171449   0.539   1.565   5.184 -1.2988 -1.2355 -1.2702
22939SOL    HW271450   0.599   1.607   5.317  0.5135  0.9606 -2.6928
22940SOL     OW71451   0.969   1.189   3.694 -0.0998 -0.4497  0.1524
22940SOL    HW171452   0.969   1.273   3.739 -0.3549 -0.7135  0.6502
22940SOL    HW271453   1.056   1.153   3.708  0.9666  0.9032 -2.3124
22941SOL     OW71454   2.665   3.206   1.988 -0.4162  0.1797 -0.8515
22941SOL    HW171455   2.634   3.115   1.979 -1.4994  0.5254 -0.7937
22941SOL    HW271456   2.632   3.250   1.909  0.9600  0.3038 -1.3748
22942SOL     OW71457   8.184   1.122   1.654  0.0889  0.2270 -0.3774
22942SOL    HW171458   8.245   1.127   1.580 -0.2921  0.0453 -0.7041
22942SOL    HW271459   8.128   1.048   1.635 -0.8650  0.9737 -0.5530
22943SOL     OW71460   9.283   7.499   2.095 -0.5001 -0.2009 -0.2161
22943SOL    HW171461   9.333   7.563   2.044  0.6484 -0.1252  0.9399
22943SOL    HW271462   9.198   7.495   2.052 -0.6852  2.2564 -0.2272
22944SOL     OW71463   6.098   7.836   9.057 -0.0543 -0.0081  0.6828
22944SOL    HW171464   6.018   7.805   9.013 -1.6354  1.5805  2.2717
22944SOL    HW271465   6.169   7.797   9.007 -1.7948 -0.6097 -1.4898
22945SOL     OW71466   4.579   0.507   9.273  0.1007  0.1215  0.2159
22945SOL    HW171467   4.546   0.596   9.286 -1.2907 -0.3525  0.0884
22945SOL    HW271468   4.628   0.487   9.353 -1.0250  0.3760  0.9824
22946SOL     OW71469   3.921   1.396   3.853  0.0084 -0.4880 -0.0479
22946SOL    HW171470   3.967   1.455   3.793 -0.2254 -0.6352 -0.3695
22946SOL    HW271471   3.892   1.454   3.924  0.5759 -0.3721  0.0960
22947SOL     OW71472   7.945   5.872   8.121 -0.4135  1.0741 -0.5375
22947SOL    HW171473   7.880   5.811   8.088 -0.1450  0.7520 -0.4734
22947SOL    HW271474   8.013   5.874   8.053  0.7688 -0.5683  0.5347
22948SOL     OW71475   2.502   5.286   5.410  0.3244 -0.8024  0.3402
22948SOL    HW171476   2.410   5.292   5.386  0.6621 -0.7556 -1.0089
22948SOL    HW271477   2.549   5.333   5.341  1.4673 -2.0101  0.2439
22949SOL     OW71478   3.314   1.225   0.583 -0.2758 -0.1394 -0.9696
22949SOL    HW171479   3.316   1.173   0.663  0.0012 -1.3349 -1.7367
22949SOL    HW271480   3.223   1.256   0.577 -0.7605 -1.5296 -1.1119
22950SOL     OW71481   8.090   7.264   1.249 -0.5147 -0.5294 -0.2068
22950SOL    HW171482   8.075   7.217   1.168  1.5359 -0.7052 -0.5430
22950SOL    HW271483   8.119   7.351   1.222  2.1224 -1.1838  0.1842
22951SOL     OW71484   7.263   0.011   8.895 -0.3639 -0.4926 -0.0995
22951SOL    HW171485   7.312  -0.062   8.934  0.5550  0.3228  0.3237
22951SOL    HW271486   7.310   0.090   8.925 -0.7501  0.2290 -1.3425
22952SOL     OW71487  10.153   2.568   4.442 -0.2261  0.0696  1.0085
22952SOL    HW171488  10.128   2.603   4.528  0.8716  2.3435  0.4752
22952SOL    HW271489  10.236   2.610   4.422 -0.5764 -0.2172 -1.2861
22953SOL     OW71490  10.221   1.162   9.745  0.0717 -0.1447  0.0938
22953SOL    HW171491  10.232   1.253   9.718  0.1896  0.0862  0.9093
22953SOL    HW271492  10.133   1.139   9.716 -0.1971  0.4252  0.4483
22954SOL     OW71493   0.535   4.161   9.568 -0.3233  0.5649  0.0170
22954SOL    HW171494   0.526   4.167   9.473  2.6202 -1.1536 -0.5194
22954SOL    HW271495   0.525   4.067   9.586  0.5757  0.6770  1.1771
22955SOL     OW71496   6.249   0.928   3.221 -0.9728 -0.6182 -0.0156
22955SOL    HW171497   6.339   0.894   3.225 -1.6369 -2.4804 -0.0725
22955SOL    HW271498   6.246   0.978   3.139  0.3520  0.6219  0.6368
22956SOL     OW71499   2.139   9.178   4.000  0.1095 -0.0779 -0.4611
22956SOL    HW171500   2.077   9.207   3.934  0.9086  3.3220  0.0765
22956SOL    HW271501   2.205   9.128   3.951  0.2011  1.5822 -2.1555
22957SOL     OW71502   0.304  10.001   8.331  0.4554  0.3841  0.2403
22957SOL    HW171503   0.386  10.051   8.329  1.3287 -0.9794 -1.7179
22957SOL    HW271504   0.254  10.034   8.257  0.3538 -0.5228 -0.1085
22958SOL     OW71505   7.017   8.280   4.250  0.1566 -0.4336  0.4389
22958SOL    HW171506   7.069   8.288   4.330 -0.8580  0.6113  1.0385
22958SOL    HW271507   6.974   8.195   4.257 -0.3982 -0.0920  1.3269
22959SOL     OW71508   5.676   1.950   8.797  0.2568 -0.5141  0.4272
22959SOL    HW171509   5.761   1.908   8.783  0.6836  0.1226  1.0028
22959SOL    HW271510   5.628   1.937   8.716  0.2093 -2.4749  0.7374
22960SOL     OW71511   8.585   3.193   9.998  0.1894  0.1660  0.1947
22960SOL    HW171512   8.512   3.207   9.938 -0.2071 -0.0960  0.6121
22960SOL    HW271513   8.661   3.182   9.941 -0.1399  0.1734 -0.2513
22961SOL     OW71514   9.234   2.649  10.281 -0.3828 -0.3265  0.4559
22961SOL    HW171515   9.248   2.622  10.191 -2.0543 -1.4725  0.4838
22961SOL    HW271516   9.316   2.627  10.326 -0.2243 -1.6158 -0.3907
22962SOL     OW71517   0.409   0.708   4.628  0.3314 -0.3087 -0.0476
22962SOL    HW171518   0.431   0.791   4.672  1.3509 -0.3296 -0.4909
22962SOL    HW271519   0.340   0.670   4.683  2.8407 -1.2614  2.6900
22963SOL     OW71520   3.034   7.325   6.717  0.2207  0.6457  0.4480
22963SOL    HW171521   3.109   7.335   6.777  0.9743 -0.2977 -0.3043
22963SOL    HW271522   3.070   7.343   6.630 -0.1541 -0.8713 -0.0495
22964SOL     OW71523   4.653   1.432   8.894  0.5874 -0.3434 -0.0011
22964SOL    HW171524   4.637   1.526   8.886  1.9495 -0.0722  0.1255
22964SOL    HW271525   4.631   1.411   8.984  0.3064 -0.1427 -0.0225
22965SOL     OW71526   6.733   9.200   3.713 -0.4637 -0.0662  0.1581
22965SOL    HW171527   6.767   9.190   3.624 -1.6699 -1.7932 -0.1593
22965SOL    HW271528   6.740   9.113   3.751 -1.1812  0.3613  1.3185
22966SOL     OW71529   8.797   0.607   8.438  0.0195 -0.3552  0.5276
22966SOL    HW171530   8.756   0.606   8.351 -0.2972 -0.1281  0.6730
22966SOL    HW271531   8.854   0.683   8.437  0.2249 -0.5081  0.4265
22967SOL     OW71532   1.987   6.813   4.494  0.4929 -0.0875  0.1235
22967SOL    HW171533   1.951   6.854   4.572  0.5438  0.3304 -0.0705
22967SOL    HW271534   2.005   6.886   4.434 -0.3605 -0.4682 -0.6205
22968SOL     OW71535   9.254   3.498   2.189  0.2753 -0.0593 -0.2720
22968SOL    HW171536   9.263   3.450   2.272 -1.1322  0.0221 -0.0461
22968SOL    HW271537   9.254   3.590   2.215 -0.4598 -0.0402 -0.3135
22969SOL     OW71538   9.701   4.057   4.938 -0.4200 -0.1877  0.3738
22969SOL    HW171539   9.733   4.139   4.975 -1.3141  0.5986 -0.5438
22969SOL    HW271540   9.765   3.991   4.968  2.7657  1.4179 -2.2672
22970SOL     OW71541   9.162   7.080   1.849 -0.2826 -0.2851 -0.3356
22970SOL    HW171542   9.210   7.134   1.912 -0.3953 -1.2942  0.6421
22970SOL    HW271543   9.231   7.038   1.796 -0.1823  0.3517 -0.7253
22971SOL     OW71544   7.712   6.550   4.329 -0.1641 -0.1043 -0.2743
22971SOL    HW171545   7.711   6.595   4.413 -2.5865 -0.1033 -0.2290
22971SOL    HW271546   7.652   6.476   4.340 -0.1754 -0.3814 -1.8497
22972SOL     OW71547   1.270   2.246   7.763  0.2929  0.3590 -0.3383
22972SOL    HW171548   1.313   2.227   7.680  0.4837  0.2801 -0.2202
22972SOL    HW271549   1.189   2.194   7.761  0.1292  0.6238 -0.6230
22973SOL     OW71550   3.235   1.010   9.825 -0.0178 -0.0453 -0.3748
22973SOL    HW171551   3.166   1.073   9.804 -0.1973 -0.1842 -0.2034
22973SOL    HW271552   3.306   1.031   9.764 -0.0365  0.3917 -0.2547
22974SOL     OW71553   4.382   3.104   5.202  0.2713 -0.0831 -0.7368
22974SOL    HW171554   4.319   3.047   5.246  0.7298  0.4816  0.7095
22974SOL    HW271555   4.379   3.077   5.110 -0.3612 -1.6368 -0.2897
22975SOL     OW71556   6.606   3.040   3.232 -0.1625 -0.3944 -0.1083
22975SOL    HW171557   6.582   3.028   3.324 -2.7253  0.7472 -0.5485
22975SOL    HW271558   6.596   2.953   3.193  1.2191 -0.9536  0.6792
22976SOL     OW71559   6.445   8.470   0.217  0.3171  0.9009 -0.3595
22976SOL    HW171560   6.407   8.447   0.132  0.7164  1.4917 -0.7136
22976SOL    HW271561   6.371   8.472   0.277  0.1829 -0.6138 -0.4497
22977SOL     OW71562   7.282   3.698   4.030 -0.0923 -0.5911 -0.5959
22977SOL    HW171563   7.373   3.719   4.053 -0.4968  0.3318  0.2593
22977SOL    HW271564   7.266   3.612   4.069  0.3593 -0.6732 -0.5869
22978SOL     OW71565   8.579   2.045   3.728 -0.6565 -0.4834 -0.2120
22978SOL    HW171566   8.577   1.952   3.750 -0.8356 -0.0581  1.8147
22978SOL    HW271567   8.637   2.083   3.795  0.6805  0.6555 -1.9384
22979SOL     OW71568   7.952   3.821   0.017  0.2421 -0.3844 -0.2815
22979SOL    HW171569   8.001   3.853  -0.059 -0.4584  0.3072 -0.4560
22979SOL    HW271570   7.946   3.726   0.003  2.3633 -0.6560  0.2545
22980SOL     OW71571   5.608   6.865   0.658  0.0024 -0.3993  0.0724
22980SOL    HW171572   5.645   6.933   0.602  0.6275  0.4154  1.4306
22980SOL    HW271573   5.595   6.907   0.743 -0.9930 -1.5749  0.5428
22981SOL     OW71574   8.321  10.077   9.709 -0.0258  0.0308  0.2031
22981SOL    HW171575   8.362  10.105   9.791 -2.2453  1.6366  0.8633
22981SOL    HW271576   8.357  10.136   9.643  2.2940 -1.7041 -0.2194
22982SOL     OW71577   9.738   7.041   5.193  0.3157 -0.0455 -0.3392
22982SOL    HW171578   9.727   7.037   5.288  0.9599  0.1863 -0.2462
22982SOL    HW271579   9.826   7.007   5.178 -0.4243 -1.7687 -1.0235
22983SOL     OW71580   0.731   2.862   4.547 -0.0721 -0.7737  0.2358
22983SOL    HW171581   0.697   2.899   4.628  0.1095 -1.3029  0.5628
22983SOL    HW271582   0.661   2.805   4.515  0.0503 -0.9592  0.2938
22984SOL     OW71583   7.667   3.870   1.547 -0.1900  0.4649  0.1584
22984SOL    HW171584   7.734   3.874   1.479  0.7656  0.7549  1.0907
22984SOL    HW271585   7.595   3.924   1.514  0.3267  0.7270 -0.5491
22985SOL     OW71586   8.674   7.372  10.323  0.1261  0.0843 -0.6536
22985SOL    HW171587   8.658   7.312  10.251 -0.4795 -0.4647 -0.0757
22985SOL    HW271588   8.606   7.352  10.387  1.2926 -0.2119  0.5494
22986SOL     OW71589   7.960   4.412   1.961 -0.5833 -0.5732 -0.0826
22986SOL    HW171590   7.967   4.472   2.035  0.9462 -1.1748  0.3062
22986SOL    HW271591   7.996   4.460   1.886 -0.9202 -0.4202 -0.1460
22987SOL     OW71592   3.814   3.449   5.482 -0.1952  0.7728 -0.0885
22987SOL    HW171593   3.743   3.497   5.440 -1.1405 -1.7898 -1.6705
22987SOL    HW271594   3.883   3.444   5.415  0.7859  1.6542  0.8024
22988SOL     OW71595   8.322   5.027   2.819 -0.2439 -0.3021  0.3110
22988SOL    HW171596   8.325   5.035   2.724  0.8426  0.5723  0.3929
22988SOL    HW271597   8.230   5.012   2.839 -0.4007 -1.1438 -0.9116
22989SOL     OW71598   8.403   6.535   3.976  0.1407  0.6007 -0.0483
22989SOL    HW171599   8.399   6.439   3.985 -1.9561  0.4756 -1.5041
22989SOL    HW271600   8.410   6.567   4.066  1.6952 -0.9050  0.4217
22990SOL     OW71601   0.589   4.988   6.632  0.6847 -0.0945  0.1360
22990SOL    HW171602   0.556   4.924   6.569 -0.9546 -1.4872  2.2521
22990SOL    HW271603   0.677   4.957   6.653  1.0099  0.0349 -0.9519
22991SOL     OW71604   6.515   7.172   1.012 -0.3331 -0.1557  0.2989
22991SOL    HW171605   6.467   7.125   0.945  0.6345 -0.2686 -0.3361
22991SOL    HW271606   6.452   7.186   1.082 -1.6632  0.8751 -1.0478
22992SOL     OW71607  10.296   1.327   0.849 -0.3618  0.2438 -0.0652
22992SOL    HW171608  10.324   1.240   0.821 -0.5341 -0.3860  1.5968
22992SOL    HW271609  10.201   1.322   0.851 -0.3875  0.5825 -0.2518
22993SOL     OW71610   4.209   5.144   6.054 -0.0012  0.4701  0.4719
22993SOL    HW171611   4.260   5.207   6.104  1.0887 -0.6938  0.8474
22993SOL    HW271612   4.176   5.082   6.119 -2.4424  1.4920  0.3395
22994SOL     OW71613   8.500   9.545   0.025  0.0723  0.1624  0.0585
22994SOL    HW171614   8.447   9.500   0.090  1.1553 -0.6575  0.4065
22994SOL    HW271615   8.539   9.474  -0.027  0.3307  0.7600 -0.5770
22995SOL     OW71616   3.142   1.454   9.827 -0.2658 -0.6456 -0.0278
22995SOL    HW171617   3.128   1.371   9.782 -2.1209 -0.8391  0.8442
22995SOL    HW271618   3.205   1.433   9.897 -2.3309 -1.8850  1.5638
22996SOL     OW71619   8.986   6.527   6.186 -0.0928 -0.5304  0.5908
22996SOL    HW171620   8.931   6.546   6.110 -0.0467 -1.4309  0.3177
22996SOL    HW271621   8.954   6.443   6.218  0.3669 -0.5053  1.1310
22997SOL     OW71622   8.341   2.066   0.020  0.0101  0.0748 -0.1133
22997SOL    HW171623   8.348   2.154  -0.017  0.3729  0.3476  0.5844
22997SOL    HW271624   8.408   2.063   0.088 -0.1809 -0.6504  0.0513
22998SOL     OW71625   1.290   5.621   9.642  0.0757 -0.5274  1.0408
22998SOL    HW171626   1.334   5.598   9.724 -0.2025 -0.7084  1.1411
22998SOL    HW271627   1.315   5.712   9.626  1.6954 -1.0657  0.3068
22999SOL     OW71628   1.010   8.379   1.409 -0.6467 -0.2520 -0.1555
22999SOL    HW171629   0.991   8.361   1.501  0.9294 -1.4168 -0.0044
22999SOL    HW271630   1.037   8.470   1.407 -0.7840 -0.1917  0.5301
23000SOL     OW71631   5.557   1.025   1.101  0.6167  0.1162 -0.3409
23000SOL    HW171632   5.569   1.001   1.009 -0.4628  0.3807 -0.5598
23000SOL    HW271633   5.473   0.988   1.125  0.6772  0.4498  0.4116
23001SOL     OW71634   0.971   4.704   9.451 -0.2818  0.0818  0.2987
23001SOL    HW171635   0.902   4.662   9.502 -0.3748  1.3357  1.2368
23001SOL    HW271636   0.941   4.696   9.360 -1.2614 -0.1099  0.6246
23002SOL     OW71637   5.689   9.584   8.515  0.0015  0.0917 -0.3559
23002SOL    HW171638   5.757   9.624   8.460 -1.5993  0.2194 -2.3831
23002SOL    HW271639   5.737   9.528   8.575  2.0032  1.5124 -0.5060
23003SOL     OW71640   5.885   9.622   0.068  0.4316 -0.0724 -0.1696
23003SOL    HW171641   5.843   9.668   0.140  0.1820  1.6224 -1.3380
23003SOL    HW271642   5.961   9.675   0.046  1.9304 -1.8813  0.4107
23004SOL     OW71643   4.605   5.775   9.061  0.1112  0.4636  0.6383
23004SOL    HW171644   4.615   5.825   8.980  1.5836  0.2957  0.7003
23004SOL    HW271645   4.561   5.836   9.121  0.9075  1.3294  0.3690
23005SOL     OW71646   0.009   7.163   7.222  0.2846  0.5177 -0.2973
23005SOL    HW171647   0.084   7.155   7.164 -1.3925  0.2472 -2.5713
23005SOL    HW271648   0.020   7.248   7.265  2.0713  0.2834 -0.2425
23006SOL     OW71649   0.290   8.167   6.438  0.2110  0.0302 -0.1413
23006SOL    HW171650   0.292   8.083   6.393  3.9933 -0.2390  0.2491
23006SOL    HW271651   0.322   8.231   6.374 -0.4644  0.7942  0.2556
23007SOL     OW71652   7.591   8.855   1.582  0.0445  0.0294  0.1775
23007SOL    HW171653   7.638   8.775   1.559 -2.1550 -0.9300 -1.3146
23007SOL    HW271654   7.558   8.839   1.671 -0.6091 -0.8652 -0.2134
23008SOL     OW71655   5.158   2.215   3.716 -0.1542 -0.7886  0.1352
23008SOL    HW171656   5.135   2.135   3.669  0.4074 -1.4080  0.8901
23008SOL    HW271657   5.253   2.215   3.719 -0.1284  0.0964 -0.1491
23009SOL     OW71658   7.852   2.001   2.496 -0.1610 -0.0513  0.2450
23009SOL    HW171659   7.764   1.966   2.485  0.1878 -0.6627 -0.6774
23009SOL    HW271660   7.881   2.022   2.407  0.0788  1.5238  0.6535
23010SOL     OW71661   5.488   4.941   7.796 -0.3093 -0.1232  0.4290
23010SOL    HW171662   5.563   5.000   7.801 -1.4276  1.4180 -0.1791
23010SOL    HW271663   5.522   4.863   7.752  0.6008  1.1576 -1.2781
23011SOL     OW71664   8.196   2.682   2.831 -0.3131 -0.1947  0.6464
23011SOL    HW171665   8.135   2.622   2.788 -0.6430  0.9757 -0.5937
23011SOL    HW271666   8.282   2.644   2.815 -0.5773 -0.8145  0.6847
23012SOL     OW71667   8.313   0.960   9.272  0.0680 -0.3151 -0.1626
23012SOL    HW171668   8.244   0.894   9.279  0.8330 -1.0908  0.4256
23012SOL    HW271669   8.270   1.043   9.293 -0.9161 -0.6211 -0.9257
23013SOL     OW71670   6.118   3.945   4.327  0.2622  0.6785  0.0599
23013SOL    HW171671   6.170   3.909   4.255  1.1584  0.4794  0.7908
23013SOL    HW271672   6.180   3.955   4.399 -1.2179 -2.1024  1.8775
23014SOL     OW71673   8.612   2.011   6.427  0.2933 -0.4661 -0.7176
23014SOL    HW171674   8.641   1.921   6.409 -2.2702 -1.4749 -0.2732
23014SOL    HW271675   8.517   2.006   6.421 -0.0535  1.7081  1.6463
23015SOL     OW71676   5.574   1.068   6.084 -0.3567  0.2090  0.0586
23015SOL    HW171677   5.581   1.163   6.075  0.6672 -0.0723 -4.0480
23015SOL    HW271678   5.484   1.048   6.056 -0.2081 -0.0998 -0.2100
23016SOL     OW71679   9.740   5.536   6.319 -0.3104 -0.3314  0.1124
23016SOL    HW171680   9.817   5.512   6.268  0.8125  1.0180  1.0908
23016SOL    HW271681   9.760   5.623   6.354 -1.5930 -0.6348  1.7423
23017SOL     OW71682   4.732   9.524   4.175  0.0245 -0.0754 -0.1411
23017SOL    HW171683   4.672   9.523   4.100 -1.1683  1.4821  0.7214
23017SOL    HW271684   4.699   9.455   4.234 -0.9764  0.7842  0.3358
23018SOL     OW71685   4.624   3.294   3.019  0.9251  0.1960 -0.0087
23018SOL    HW171686   4.645   3.269   2.929  0.8665 -0.6406  0.2026
23018SOL    HW271687   4.640   3.214   3.070 -1.0843  0.0050  0.4154
23019SOL     OW71688   9.563   6.123   6.019 -0.7846 -0.2161  0.0037
23019SOL    HW171689   9.516   6.108   6.101  2.1079 -1.7114  1.5193
23019SOL    HW271690   9.516   6.070   5.955 -0.8884 -2.1157  1.5762
23020SOL     OW71691   4.755   9.003   3.111  0.2943 -0.4092  0.1863
23020SOL    HW171692   4.743   9.013   3.017  1.6317 -0.0886  0.0333
23020SOL    HW271693   4.830   8.944   3.120  0.7042  0.2152  1.0379
23021SOL     OW71694   8.562   6.247   2.275  0.1258 -0.3382  0.3158
23021SOL    HW171695   8.495   6.205   2.221  0.0712 -2.7536  2.0935
23021SOL    HW271696   8.632   6.182   2.280  1.3578  0.9865  0.8513
23022SOL     OW71697   9.690   2.993   3.054 -0.2014  0.4952  0.1491
23022SOL    HW171698   9.722   2.903   3.052 -0.8351  0.1658 -3.5620
23022SOL    HW271699   9.769   3.047   3.049  0.2131 -0.1558 -3.0637
23023SOL     OW71700   3.657   8.173   4.797 -0.5018  0.0715  0.5727
23023SOL    HW171701   3.657   8.121   4.877 -0.5581 -0.1502  0.4292
23023SOL    HW271702   3.747   8.169   4.765 -0.4206  0.3691  0.7579
23024SOL     OW71703   5.977   1.531   8.357 -0.0535 -0.2226  0.6383
23024SOL    HW171704   5.997   1.488   8.441 -0.9657 -1.2053  0.3784
23024SOL    HW271705   6.026   1.613   8.360  1.4672 -1.0997  1.3238
23025SOL     OW71706   8.327   7.141   0.584 -0.6715  0.1898  0.4928
23025SOL    HW171707   8.330   7.055   0.542  0.4467  0.4987 -0.0858
23025SOL    HW271708   8.351   7.203   0.515  2.2367  0.6276  1.7424
23026SOL     OW71709   2.150   5.505   7.136 -0.4229 -0.0976  0.0729
23026SOL    HW171710   2.070   5.540   7.096  0.1503  0.6388 -0.4408
23026SOL    HW271711   2.145   5.533   7.228 -1.0135 -0.5250  0.1801
23027SOL     OW71712   1.099   9.622   5.699 -0.4294  0.0145  0.0277
23027SOL    HW171713   1.008   9.603   5.674 -0.8799  0.1974  1.4605
23027SOL    HW271714   1.123   9.697   5.644 -1.9463  1.4628  1.2222
23028SOL     OW71715   9.498   4.085   1.304  0.3226 -0.5401 -0.3924
23028SOL    HW171716   9.493   4.060   1.396  0.2835 -1.4188 -0.6268
23028SOL    HW271717   9.526   4.176   1.306  1.2261 -0.8168  0.4632
23029SOL     OW71718   5.573   6.746   2.564 -0.0707 -0.2210 -0.1332
23029SOL    HW171719   5.549   6.701   2.483  0.8393 -0.4601 -0.2830
23029SOL    HW271720   5.538   6.834   2.554  0.9450  0.0926 -1.2713
23030SOL     OW71721   1.374   2.408   5.860 -0.1046  0.2648  0.2284
23030SOL    HW171722   1.303   2.393   5.797  0.3231  1.3433 -0.5273
23030SOL    HW271723   1.360   2.497   5.892  1.0844  0.6213 -0.1795
23031SOL     OW71724   1.676   7.951   7.061 -0.1737  0.2559 -0.4581
23031SOL    HW171725   1.652   7.866   7.024 -0.9175 -0.7362  2.0933
23031SOL    HW271726   1.631   8.015   7.004  1.4560 -0.8773 -3.2103
23032SOL     OW71727   6.547   1.854   9.001  0.3364 -0.0078 -0.2808
23032SOL    HW171728   6.548   1.923   9.068  0.1938  0.4408 -0.7287
23032SOL    HW271729   6.630   1.808   9.012  0.3378  0.0968  0.1697
23033SOL     OW71730   7.192   6.695   6.466  0.2413  0.1972  0.1051
23033SOL    HW171731   7.161   6.673   6.378 -0.8268 -1.4198  0.8540
23033SOL    HW271732   7.156   6.782   6.483  1.0950  0.8712 -1.3225
23034SOL     OW71733   9.078   9.735   0.465 -0.2115 -0.3949 -0.1345
23034SOL    HW171734   9.063   9.697   0.552  0.3531 -0.5434 -0.0939
23034SOL    HW271735   9.066   9.829   0.478 -1.1013 -0.5099 -0.1193
23035SOL     OW71736   4.647   2.444   6.498  0.5720 -0.5015  0.0935
23035SOL    HW171737   4.616   2.417   6.585 -2.8120  1.9098 -0.1658
23035SOL    HW271738   4.602   2.385   6.437  1.4351 -0.9316 -0.1520
23036SOL     OW71739   5.416   4.068   9.611  0.5985 -0.4204 -0.0005
23036SOL    HW171740   5.430   4.114   9.528  0.5003 -0.7689 -0.2110
23036SOL    HW271741   5.423   3.976   9.588 -3.2377 -0.7702 -0.3885
23037SOL     OW71742   9.748   2.973   1.294 -0.3346 -0.4060  0.0792
23037SOL    HW171743   9.700   2.900   1.255 -0.2517 -1.6894  2.2206
23037SOL    HW271744   9.839   2.960   1.265 -0.7122  0.3542 -1.5907
23038SOL     OW71745   9.508  10.284   2.346  0.4094  0.3857  0.4152
23038SOL    HW171746   9.557  10.332   2.279  1.1760 -1.0757 -0.1129
23038SOL    HW271747   9.510  10.193   2.317 -2.9356  0.2579  0.1939
23039SOL     OW71748   2.291   9.058   2.788 -0.2090 -0.2573 -0.0598
23039SOL    HW171749   2.247   9.139   2.764 -0.2460 -0.0873  0.5632
23039SOL    HW271750   2.370   9.086   2.835 -0.3025 -0.5809  0.2971
23040SOL     OW71751   7.443   0.700   2.994 -0.2463 -0.6459 -0.0056
23040SOL    HW171752   7.416   0.655   3.074 -2.1902 -0.5453 -0.5557
23040SOL    HW271753   7.494   0.634   2.946 -2.7795 -2.2855 -0.6641
23041SOL     OW71754   3.311   7.353   4.408  0.1444 -0.4740 -0.0972
23041SOL    HW171755   3.324   7.445   4.388  0.7371 -0.9706 -2.1966
23041SOL    HW271756   3.241   7.324   4.351  1.2099 -1.7345 -0.8459
23042SOL     OW71757   8.678   1.341   5.211  0.4407 -0.9283  0.0808
23042SOL    HW171758   8.631   1.263   5.238  1.1057 -1.4462 -0.2231
23042SOL    HW271759   8.612   1.410   5.209  0.0665 -1.2202  1.4409
23043SOL     OW71760   2.136   3.263   1.483 -0.1956 -0.4132  0.0708
23043SOL    HW171761   2.180   3.345   1.502  0.6953 -0.4215 -1.7359
23043SOL    HW271762   2.064   3.259   1.545  0.1012  1.4371  0.5804
23044SOL     OW71763   5.858   8.953   4.450 -0.1090 -0.7994 -0.3640
23044SOL    HW171764   5.891   8.922   4.535 -1.4257 -1.7067 -0.1423
23044SOL    HW271765   5.904   8.899   4.386  0.5266 -0.4555 -0.2043
23045SOL     OW71766   4.138   4.111   8.201  0.0535 -0.0662 -0.5095
23045SOL    HW171767   4.229   4.124   8.172 -0.4479 -0.1047 -2.2006
23045SOL    HW271768   4.091   4.086   8.121 -1.6626  1.0408  0.1030
23046SOL     OW71769   9.795  10.159   6.580  0.4781 -0.1944 -0.1276
23046SOL    HW171770   9.795  10.084   6.520  0.9393 -1.2028  1.0815
23046SOL    HW271771   9.880  10.154   6.624 -0.4762 -0.5294  1.8116
23047SOL     OW71772   9.296   2.005   3.910 -0.1058 -0.1633 -0.0401
23047SOL    HW171773   9.351   1.977   3.836 -0.3013  0.8506 -0.5932
23047SOL    HW271774   9.286   2.099   3.898 -0.5437 -0.0574  1.0265
23048SOL     OW71775   4.304   4.468   5.949 -0.1061 -0.0408  0.3352
23048SOL    HW171776   4.337   4.452   5.860  1.0668  0.9775  0.5629
23048SOL    HW271777   4.296   4.563   5.955 -1.7539 -0.1914  0.7914
23049SOL     OW71778   7.310   2.399   8.633 -0.7455 -0.1369  0.3012
23049SOL    HW171779   7.220   2.392   8.602 -0.6228  1.0760 -0.3704
23049SOL    HW271780   7.311   2.476   8.689  0.0051  0.2059 -0.1698
23050SOL     OW71781   6.047   2.292   7.553  0.1699  0.0696  0.3273
23050SOL    HW171782   6.057   2.250   7.639 -0.0178 -2.6357 -0.8627
23050SOL    HW271783   6.129   2.274   7.508 -0.2071  0.3523 -0.4928
23051SOL     OW71784   5.201   3.549   5.946 -0.2774  0.0510 -0.2960
23051SOL    HW171785   5.172   3.490   5.876 -0.9165  0.2579 -0.2056
23051SOL    HW271786   5.275   3.596   5.908  1.4799 -2.1069  0.2271
23052SOL     OW71787   4.587   9.842   0.727  0.6043  0.1495 -0.7024
23052SOL    HW171788   4.500   9.825   0.691  0.4701 -0.9613  0.1152
23052SOL    HW271789   4.616   9.921   0.681  0.3406 -1.0347 -3.0232
23053SOL     OW71790   5.692   7.577   0.814  0.9462 -0.7839 -0.3481
23053SOL    HW171791   5.708   7.587   0.908 -0.1946 -1.0358 -0.1056
23053SOL    HW271792   5.618   7.516   0.809 -1.1426  1.6483 -1.2657
23054SOL     OW71793   1.425   8.633   2.352  0.3651  0.4130 -0.4428
23054SOL    HW171794   1.340   8.666   2.323 -0.7756 -0.1660  2.0022
23054SOL    HW271795   1.439   8.674   2.438  1.1028 -1.7875  0.5526
23055SOL     OW71796   0.582   0.016   9.404  0.2971 -0.5085 -0.4815
23055SOL    HW171797   0.524   0.057   9.468  0.6358 -1.0048  0.1693
23055SOL    HW271798   0.640   0.087   9.375  0.3615 -0.3472  0.0254
23056SOL     OW71799   5.375   6.736   6.242 -0.3129  0.0622 -0.1151
23056SOL    HW171800   5.310   6.760   6.308 -0.2791  1.4941 -0.5614
23056SOL    HW271801   5.459   6.762   6.280  0.0616 -1.8651  0.4995
23057SOL     OW71802   1.130   4.735   4.846  0.2211  0.2788  0.0604
23057SOL    HW171803   1.130   4.824   4.810  2.0991  0.6035  0.7537
23057SOL    HW271804   1.116   4.679   4.770 -1.3431  1.1480 -0.3384
23058SOL     OW71805   6.655   5.393   6.119 -0.2583 -0.3734  0.0952
23058SOL    HW171806   6.744   5.430   6.122 -0.6301  0.7152 -1.3134
23058SOL    HW271807   6.668   5.302   6.094  0.5640 -0.7205  1.7020
23059SOL     OW71808   9.702   8.302   6.302 -0.1805 -0.0577  0.0257
23059SOL    HW171809   9.653   8.366   6.354 -0.6030 -0.3925  0.0410
23059SOL    HW271810   9.656   8.300   6.218 -2.9046 -3.4677  1.3386
23060SOL     OW71811  10.235   6.614  10.016 -0.2061  0.9897 -0.0570
23060SOL    HW171812  10.166   6.637   9.954 -0.7140  0.7104  0.3930
23060SOL    HW271813  10.188   6.582  10.093  0.4280 -1.0102 -0.4352
23061SOL     OW71814   7.550   6.162   9.461  0.4578  0.0151 -0.0542
23061SOL    HW171815   7.535   6.210   9.380  1.8937  0.4880 -0.0781
23061SOL    HW271816   7.582   6.229   9.522 -0.5992 -0.3352  0.9054
23062SOL     OW71817   0.719   7.220   3.467  0.3182  0.2709  0.2650
23062SOL    HW171818   0.632   7.227   3.506  0.3688  0.4426  0.3498
23062SOL    HW271819   0.717   7.277   3.390  0.8230  1.5057  1.1248
23063SOL     OW71820   9.464   6.529   5.130  0.9840  0.1426  0.3915
23063SOL    HW171821   9.485   6.600   5.070  2.7511 -0.6675 -0.0128
23063SOL    HW271822   9.498   6.558   5.215  0.6741  0.2603  0.4756
23064SOL     OW71823  10.004   4.502   6.913  0.6422 -0.5347  0.1553
23064SOL    HW171824  10.073   4.467   6.857  0.6127 -1.3201  0.5880
23064SOL    HW271825  10.040   4.582   6.949  1.3997 -1.0292  0.5158
23065SOL     OW71826   6.772   8.303   3.899  0.5588 -0.0101  0.6235
23065SOL    HW171827   6.697   8.260   3.859  0.9912 -1.1109  0.9395
23065SOL    HW271828   6.771   8.273   3.990  1.9853 -0.9358  0.3763
23066SOL     OW71829   2.093   6.753   2.078  0.0705 -0.2116 -0.0019
23066SOL    HW171830   2.098   6.703   1.997 -0.5008 -0.0085 -0.1681
23066SOL    HW271831   2.058   6.838   2.052  1.7807  0.5692  0.1613
23067SOL     OW71832   9.477   2.060   5.125 -0.0001  0.3961 -0.3545
23067SOL    HW171833   9.549   2.030   5.071 -0.0711  2.0657 -1.4341
23067SOL    HW271834   9.413   1.988   5.123  1.7300 -1.2817  0.9547
23068SOL     OW71835   1.625   0.724   4.931  0.2775 -0.1999 -0.6826
23068SOL    HW171836   1.531   0.740   4.924  0.4858  0.8028 -1.6563
23068SOL    HW271837   1.662   0.810   4.954  0.9545 -0.5808 -0.3067
23069SOL     OW71838   9.651   4.373   8.465 -0.2725 -0.3672  0.0886
23069SOL    HW171839   9.644   4.278   8.474 -0.7734 -0.4077 -0.6815
23069SOL    HW271840   9.561   4.403   8.455 -0.2363  0.3274  1.5429
23070SOL     OW71841   5.621   2.097   6.871  0.2476  0.2813  0.2792
23070SOL    HW171842   5.576   2.066   6.792 -2.8245 -1.0589  2.3453
23070SOL    HW271843   5.675   2.024   6.899  2.7128  1.3361 -1.3210
23071SOL     OW71844  10.255   7.798   8.867  0.6813 -0.6563  0.0831
23071SOL    HW171845  10.297   7.856   8.931  0.7397  0.2718 -0.7693
23071SOL    HW271846  10.294   7.712   8.884 -0.7978 -0.9117  2.6319
23072SOL     OW71847   6.665   0.337   3.617 -0.1636  0.0970 -0.0641
23072SOL    HW171848   6.683   0.322   3.524 -1.0196 -1.0450 -0.0649
23072SOL    HW271849   6.571   0.321   3.626  0.0507 -0.5718  1.1414
23073SOL     OW71850   4.899   1.421   0.552  0.2561  0.3500  1.0500
23073SOL    HW171851   4.913   1.340   0.503  0.2542 -0.0410  1.6930
23073SOL    HW271852   4.833   1.468   0.501 -1.1977 -0.9236  1.6922
23074SOL     OW71853   9.182   1.649   2.833  0.5556  0.0237 -0.5580
23074SOL    HW171854   9.274   1.671   2.847  0.0891  2.1292 -0.4239
23074SOL    HW271855   9.161   1.688   2.748 -0.6755  1.3574  0.3001
23075SOL     OW71856   3.774   0.862   6.533 -0.7590 -0.0239 -0.6594
23075SOL    HW171857   3.817   0.946   6.517 -1.6767  1.0347  1.9544
23075SOL    HW271858   3.844   0.805   6.566 -0.6926  0.6927  0.4901
23076SOL     OW71859   4.257   7.666   7.796  0.1532  0.3542 -0.1162
23076SOL    HW171860   4.324   7.723   7.835 -1.1949  1.0320  1.3120
23076SOL    HW271861   4.210   7.629   7.870 -1.3157  0.2039 -1.0789
23077SOL     OW71862   4.484   9.351   1.050 -0.0810  0.0729 -0.0647
23077SOL    HW171863   4.478   9.444   1.073  0.8435  0.0534  0.2820
23077SOL    HW271864   4.397   9.316   1.070  0.1683  0.4267  1.7905
23078SOL     OW71865   8.261   1.062   5.936 -0.1272 -0.1942  0.5833
23078SOL    HW171866   8.169   1.035   5.933 -0.1622 -0.0209 -0.2815
23078SOL    HW271867   8.286   1.054   6.028 -1.3541  0.8934  1.0483
23079SOL     OW71868   5.683   1.616   3.008 -0.8710 -0.2529  0.0436
23079SOL    HW171869   5.766   1.585   2.972 -1.0180 -1.3058  0.5533
23079SOL    HW271870   5.696   1.709   3.023  0.4771 -0.5285  0.7599
23080SOL     OW71871   3.166   1.349   3.303  0.1906 -0.4450  0.7871
23080SOL    HW171872   3.220   1.352   3.224  1.1150 -1.0182  1.3796
23080SOL    HW271873   3.146   1.256   3.316 -1.2734 -0.2087  0.3700
23081SOL     OW71874   6.643   6.507   3.416  0.0785 -0.0836 -0.3173
23081SOL    HW171875   6.730   6.519   3.454 -0.0112 -0.2796 -0.0422
23081SOL    HW271876   6.652   6.535   3.325  0.0519  1.3446  0.1042
23082SOL     OW71877   5.855   3.843   5.928  0.3576  0.3260 -0.1271
23082SOL    HW171878   5.877   3.845   6.021 -1.5174 -0.6766  0.3780
23082SOL    HW271879   5.892   3.761   5.896  2.9397  1.6568 -0.8634
23083SOL     OW71880  10.010   8.503   4.888 -0.3510  0.0246 -0.0031
23083SOL    HW171881   9.967   8.427   4.928 -0.9384  0.1111 -0.4548
23083SOL    HW271882   9.938   8.552   4.847  0.1616  0.2452 -0.6525
23084SOL     OW71883   4.859   6.466   4.838 -0.7712 -0.1243 -0.3769
23084SOL    HW171884   4.769   6.470   4.808 -0.2329 -2.0745 -2.5659
23084SOL    HW271885   4.911   6.495   4.763  0.4543  0.4815  0.6679
23085SOL     OW71886   9.472   0.115   9.600  0.2148 -0.3207  0.1672
23085SOL    HW171887   9.509   0.108   9.512 -1.1570  1.4955 -0.6253
23085SOL    HW271888   9.455   0.209   9.612  1.0595 -0.4068  2.6937
23086SOL     OW71889   1.212   9.044   8.481  0.0928 -0.3663  0.8546
23086SOL    HW171890   1.258   9.079   8.405  2.1112 -2.5678  0.9371
23086SOL    HW271891   1.131   9.008   8.446 -0.5244  1.4426  0.3109
23087SOL     OW71892   4.611   6.389   9.954  0.4226 -0.3754 -0.0506
23087SOL    HW171893   4.525   6.425   9.976 -1.1687 -3.4133 -0.7365
23087SOL    HW271894   4.620   6.403   9.860  0.8494  0.2276  0.0746
23088SOL     OW71895   7.408   7.621   2.583 -0.2265 -0.1358  0.1102
23088SOL    HW171896   7.386   7.656   2.669 -1.6517 -1.0258  0.1367
23088SOL    HW271897   7.491   7.663   2.560  0.6783 -0.6206  2.3259
23089SOL     OW71898   6.030   3.495   2.856  0.4539  0.4582 -0.0366
23089SOL    HW171899   5.961   3.471   2.918  1.2069 -1.0635  0.2559
23089SOL    HW271900   6.054   3.585   2.880 -1.8075  1.2758 -0.5375
23090SOL     OW71901   6.653   5.485   6.588  0.2540  0.0514 -0.2923
23090SOL    HW171902   6.706   5.420   6.543 -0.3767 -0.2462 -0.6176
23090SOL    HW271903   6.616   5.539   6.518  0.8159  0.8090 -0.0254
23091SOL     OW71904   6.480   9.560   7.734  0.2571 -0.0369 -0.2143
23091SOL    HW171905   6.455   9.652   7.730  0.1544 -0.0967 -4.3624
23091SOL    HW271906   6.575   9.562   7.747  0.0911  0.5269  1.1602
23092SOL     OW71907   6.514   5.180   6.970  0.3372 -0.1593  0.0220
23092SOL    HW171908   6.608   5.166   6.963  0.4723  0.1363  1.1615
23092SOL    HW271909   6.497   5.256   6.914  0.3640 -1.7095 -2.2024
23093SOL     OW71910   3.795   7.244   9.028  0.3785 -0.6557 -0.3109
23093SOL    HW171911   3.889   7.239   9.043  0.1778 -0.1469  1.3763
23093SOL    HW271912   3.773   7.335   9.047 -0.4683 -0.7927 -0.6073
23094SOL     OW71913   9.829   6.920   4.898 -0.3665  0.1106 -0.5617
23094SOL    HW171914   9.922   6.933   4.879 -0.3808  0.4536 -0.4012
23094SOL    HW271915   9.826   6.835   4.944 -0.1925 -0.1306 -0.9936
23095SOL     OW71916   5.136   1.040   8.098 -0.2516  0.2455 -0.4835
23095SOL    HW171917   5.184   0.983   8.038  0.1759 -0.7326  0.7451
23095SOL    HW271918   5.195   1.051   8.173 -1.9843 -1.1629  1.1862
23096SOL     OW71919   9.297   1.233   6.290  0.5227 -0.0211 -0.7327
23096SOL    HW171920   9.265   1.302   6.348  1.7874  2.1532 -2.4120
23096SOL    HW271921   9.390   1.226   6.310  0.0799 -2.8521  0.8363
23097SOL     OW71922   3.506  10.186   2.596 -0.0723 -0.3212  0.6679
23097SOL    HW171923   3.569  10.187   2.667  0.7602 -0.9558 -0.0369
23097SOL    HW271924   3.523  10.267   2.548 -0.9574  0.3456  1.4418
23098SOL     OW71925   7.628   0.988   8.116  0.0841 -0.4803 -0.2668
23098SOL    HW171926   7.599   1.078   8.099 -1.3601 -0.7278  0.6949
23098SOL    HW271927   7.633   0.982   8.212  1.0674 -1.1614 -0.3461
23099SOL     OW71928   2.597   3.777   2.328 -0.3417 -0.1592 -0.1589
23099SOL    HW171929   2.597   3.715   2.254 -1.4767 -0.6201  0.2018
23099SOL    HW271930   2.571   3.724   2.403 -2.9383  1.0333 -0.1303
23100SOL     OW71931   7.463   8.212   8.026 -0.1342  0.0873  0.3100
23100SOL    HW171932   7.422   8.278   7.971  0.2049 -0.0856 -0.1520
23100SOL    HW271933   7.487   8.259   8.106  0.3829  0.5981 -0.1366
23101SOL     OW71934   6.619   2.838   7.793 -0.3527 -0.9766  0.3041
23101SOL    HW171935   6.550   2.807   7.734 -2.3733  2.1164  0.8063
23101SOL    HW271936   6.675   2.892   7.738 -0.2774 -0.7749  0.5797
23102SOL     OW71937   3.120   5.016   8.287  0.2504 -0.5066  0.3485
23102SOL    HW171938   3.037   4.971   8.302  0.2338 -0.9066 -0.8716
23102SOL    HW271939   3.104   5.106   8.317 -0.3382 -0.7912  0.9325
23103SOL     OW71940   1.475   3.507   6.858 -0.2655  0.8829  0.8158
23103SOL    HW171941   1.467   3.599   6.882  0.4344  0.9432  0.8286
23103SOL    HW271942   1.565   3.498   6.826 -0.8643  0.6106 -0.9341
23104SOL     OW71943   0.009   1.233   2.675  0.3964  0.0033 -0.8444
23104SOL    HW171944   0.102   1.233   2.653  1.0087  1.5200  1.3712
23104SOL    HW271945  -0.031   1.290   2.610  1.1549 -0.0234 -1.3429
23105SOL     OW71946   8.407   8.988   0.565 -0.6324 -0.1114  0.0698
23105SOL    HW171947   8.406   9.031   0.480 -0.8569 -1.4852 -0.6425
23105SOL    HW271948   8.338   8.923   0.560  0.6647 -1.5861  0.5557
23106SOL     OW71949   0.585   4.137   4.021 -0.1501  0.4601 -0.3417
23106SOL    HW171950   0.603   4.223   4.060 -1.2263  0.1631  0.8832
23106SOL    HW271951   0.661   4.120   3.965  1.3221  1.1122  1.3285
23107SOL     OW71952   8.326   6.767   7.454 -0.5423 -0.6768  0.2641
23107SOL    HW171953   8.335   6.696   7.391  1.0005  0.2527 -0.6409
23107SOL    HW271954   8.254   6.820   7.421 -0.0266 -0.4364 -0.5163
23108SOL     OW71955   1.427   4.259   8.801  0.6463  0.3361  0.2575
23108SOL    HW171956   1.496   4.321   8.780  2.5101 -1.0560  1.9285
23108SOL    HW271957   1.472   4.185   8.841 -1.3660 -2.3556 -1.9624
23109SOL     OW71958   8.606   9.843   3.739 -0.2776  0.1927  0.8712
23109SOL    HW171959   8.539   9.782   3.769 -1.6840  1.1119 -0.2410
23109SOL    HW271960   8.557   9.921   3.712  1.1262  0.5319 -0.9211
23110SOL     OW71961   5.378   0.049   7.952  0.0801  0.7360  0.1507
23110SOL    HW171962   5.343   0.034   8.040 -2.0535  0.8241 -0.6146
23110SOL    HW271963   5.409  -0.037   7.924 -0.1369  0.4954  0.6248
23111SOL     OW71964  10.245  10.293   2.903  0.2465 -0.4320 -0.0882
23111SOL    HW171965  10.311  10.312   2.970  0.0909 -1.2072  0.3059
23111SOL    HW271966  10.294  10.247   2.835  0.3441  0.0649 -0.3492
23112SOL     OW71967   4.890   9.522   8.637 -0.4142 -0.3364 -0.2988
23112SOL    HW171968   4.804   9.540   8.597 -0.6125 -0.9134 -0.1317
23112SOL    HW271969   4.937   9.471   8.571 -0.4001 -0.4889 -0.1701
23113SOL     OW71970   0.044   1.386   1.304 -0.2483 -0.1493  0.0709
23113SOL    HW171971   0.036   1.459   1.242 -0.6992  0.1220  0.4324
23113SOL    HW271972   0.109   1.416   1.368  0.5689 -0.6218 -0.5220
23114SOL     OW71973   0.385   1.961   6.630 -0.3727 -0.0568 -0.3364
23114SOL    HW171974   0.421   2.038   6.586 -0.5870  0.0905 -0.2580
23114SOL    HW271975   0.306   1.993   6.673  0.3386  0.0270  0.9665
23115SOL     OW71976  10.048   1.422   7.855  0.2027 -0.3086  0.3689
23115SOL    HW171977   9.964   1.411   7.900 -0.3455  0.1139 -0.5254
23115SOL    HW271978  10.024   1.442   7.765  1.2160  1.5786  0.4659
23116SOL     OW71979   5.335   7.017   9.139 -0.0895  0.1071  0.3943
23116SOL    HW171980   5.388   6.944   9.108  0.3336  1.2442 -1.7308
23116SOL    HW271981   5.364   7.030   9.229  2.8822  0.2750 -0.4636
23117SOL     OW71982   9.244   6.622   4.579 -0.3045 -0.2251  0.0156
23117SOL    HW171983   9.236   6.658   4.667 -0.2402 -0.2719  0.0403
23117SOL    HW271984   9.159   6.582   4.562 -0.9979  1.4752 -0.6951
23118SOL     OW71985   5.840   8.783   9.349  0.2283 -0.3319  0.4857
23118SOL    HW171986   5.831   8.869   9.308 -0.3669  0.3385  1.9185
23118SOL    HW271987   5.773   8.782   9.417 -0.7721 -2.5416 -0.4397
23119SOL     OW71988   2.669   0.489   1.455  0.5052 -0.7226  0.5883
23119SOL    HW171989   2.595   0.441   1.491  0.9571 -1.3671  0.6975
23119SOL    HW271990   2.675   0.568   1.508 -0.6296 -0.2434  0.0119
23120SOL     OW71991   8.095   9.828   5.893 -0.5065  0.4524  0.1775
23120SOL    HW171992   8.029   9.876   5.843 -1.0891 -0.0034  0.4884
23120SOL    HW271993   8.164   9.892   5.910  0.1977  0.3585 -2.0632
23121SOL     OW71994   1.267  10.225   3.297  0.2418  0.3892  0.2692
23121SOL    HW171995   1.218  10.273   3.229  0.1707  1.7071  1.1983
23121SOL    HW271996   1.354  10.214   3.261 -0.7422 -2.3470 -1.5880
23122SOL     OW71997   4.566   3.652   9.450  0.0561 -0.1738 -0.0813
23122SOL    HW171998   4.476   3.678   9.429 -0.2821 -1.5041 -0.3623
23122SOL    HW271999   4.610   3.647   9.365 -0.1024 -1.2551 -0.1095
23123SOL     OW72000   5.300   0.582   2.296 -0.7775  0.2139  0.1724
23123SOL    HW172001   5.375   0.616   2.246 -1.1632 -0.7161 -1.1035
23123SOL    HW272002   5.287   0.646   2.366  0.4005  1.0655 -0.3391
23124SOL     OW72003   9.355   5.086   7.964 -0.4385 -0.0581  0.2002
23124SOL    HW172004   9.444   5.114   7.945  0.4669 -0.3982  3.3333
23124SOL    HW272005   9.333   5.024   7.894  0.8780  1.6870 -1.8617
23125SOL     OW72006   6.808   6.930   8.594  0.3193 -0.1287 -0.0158
23125SOL    HW172007   6.819   6.867   8.666  1.1832  0.6750  0.5882
23125SOL    HW272008   6.898   6.946   8.563 -0.0576 -0.6769 -1.4869
23126SOL     OW72009   2.753   4.201   7.887 -0.2576  0.6881 -0.3818
23126SOL    HW172010   2.842   4.169   7.905 -0.6522 -0.0321  0.3968
23126SOL    HW272011   2.758   4.237   7.799  1.1952  2.1371  0.2362
23127SOL     OW72012   1.628   9.451   9.358  0.1839 -0.0465  0.1784
23127SOL    HW172013   1.534   9.470   9.352 -0.1291 -1.6384 -0.6542
23127SOL    HW272014   1.658   9.501   9.434 -1.4710 -0.0246  0.8630
23128SOL     OW72015   1.425   8.746   7.431 -0.2751  0.4269 -0.1503
23128SOL    HW172016   1.442   8.711   7.344 -0.9909  0.7632 -0.4387
23128SOL    HW272017   1.495   8.810   7.446  1.3939 -1.4857  0.6296
23129SOL     OW72018   4.069   7.697   7.113  0.0888 -0.4203  0.5471
23129SOL    HW172019   4.017   7.640   7.056 -0.6728  1.4219 -0.6738
23129SOL    HW272020   4.052   7.665   7.201 -0.3046 -2.0626 -0.0855
23130SOL     OW72021   9.351   3.294   5.418 -0.1522 -0.6256 -0.1013
23130SOL    HW172022   9.377   3.272   5.328  1.0863 -3.3205  0.8103
23130SOL    HW272023   9.360   3.389   5.423 -0.7351 -0.3239 -2.9349
23131SOL     OW72024   9.877   4.579  10.027  0.4725  0.5475  0.5669
23131SOL    HW172025   9.854   4.593   9.935  1.0711  0.0876  0.3422
23131SOL    HW272026   9.844   4.657  10.072 -1.5759 -0.1049  0.2914
23132SOL     OW72027   4.330   1.460   9.422  0.3199 -0.2713  0.1340
23132SOL    HW172028   4.370   1.407   9.491  1.0366 -1.2635 -1.0030
23132SOL    HW272029   4.312   1.398   9.351  0.5438  0.8876 -0.9787
23133SOL     OW72030   2.258   8.771   9.548  0.2947 -0.0026  0.4279
23133SOL    HW172031   2.347   8.786   9.516  1.7899 -1.5011  3.4098
23133SOL    HW272032   2.226   8.857   9.573  0.0928  0.8173 -2.3235
23134SOL     OW72033   8.706   7.411   8.391  0.2484 -0.4947  0.0137
23134SOL    HW172034   8.622   7.386   8.430 -0.5621  0.4842 -1.0263
23134SOL    HW272035   8.766   7.416   8.465 -1.0382  0.4830  1.0395
23135SOL     OW72036   3.614   5.693   3.791  0.2482  0.0702 -0.0046
23135SOL    HW172037   3.649   5.770   3.836 -1.8729  1.1266  0.0068
23135SOL    HW272038   3.589   5.633   3.862  2.1871 -0.8184 -0.0217
23136SOL     OW72039   4.384   3.540   3.252 -0.4845 -0.6024 -0.0183
23136SOL    HW172040   4.411   3.460   3.298 -1.7674 -0.9132  0.2195
23136SOL    HW272041   4.289   3.532   3.242 -0.6075  0.7988 -0.1852
23137SOL     OW72042   3.386   2.744   1.989  0.2591  0.5281  0.7782
23137SOL    HW172043   3.340   2.760   1.907 -0.5365 -3.1911  0.3182
23137SOL    HW272044   3.468   2.703   1.963 -0.0439 -0.7945  1.7792
23138SOL     OW72045   7.221   7.405  10.191  0.3486 -0.0170  0.5051
23138SOL    HW172046   7.182   7.339  10.249  0.0320 -1.1579 -0.9603
23138SOL    HW272047   7.266   7.465  10.251 -1.2461 -0.2611  2.0556
23139SOL     OW72048   7.632   4.967   4.660 -0.2273  0.4453  0.9073
23139SOL    HW172049   7.682   4.897   4.618  0.1612  1.8835 -1.1553
23139SOL    HW272050   7.694   5.007   4.721  1.1362  1.9221 -1.2999
23140SOL     OW72051   7.579   6.026   2.338  0.3113  0.1152  0.7199
23140SOL    HW172052   7.495   6.016   2.294  1.6774 -2.3405 -1.6512
23140SOL    HW272053   7.597   6.120   2.334 -0.0940  0.2132 -3.4438
23141SOL     OW72054   9.863   3.435   5.785  0.4713  0.4515 -0.5111
23141SOL    HW172055   9.801   3.487   5.733 -1.0826 -0.3357  0.4557
23141SOL    HW272056   9.946   3.441   5.738 -0.2431  1.8786 -1.6563
23142SOL     OW72057   7.660   7.729   3.944  0.0568 -0.0206 -0.1188
23142SOL    HW172058   7.727   7.662   3.929 -0.5107 -0.4051 -1.0399
23142SOL    HW272059   7.611   7.697   4.019  0.6952  0.1033  0.3649
23143SOL     OW72060   7.338   7.351   6.757  0.8507 -0.6700  0.0573
23143SOL    HW172061   7.250   7.370   6.723  0.7921  0.5480  0.8307
23143SOL    HW272062   7.385   7.434   6.749  1.7444 -1.1515  0.2211
23144SOL     OW72063   3.212   5.174   5.815  0.3084 -0.1450 -0.0859
23144SOL    HW172064   3.208   5.247   5.752  1.0526  0.0084  0.0370
23144SOL    HW272065   3.121   5.146   5.824  0.0163  0.7331 -0.1758
23145SOL     OW72066   2.490   8.776   3.338  0.0630 -0.0477 -0.1623
23145SOL    HW172067   2.581   8.752   3.321  0.0281 -0.5980  0.3997
23145SOL    HW272068   2.439   8.715   3.285  0.0226  1.1226 -1.5420
23146SOL     OW72069   3.379   5.131   6.481  0.4490 -0.0196  0.5113
23146SOL    HW172070   3.337   5.102   6.400 -0.1852 -1.6870  1.3933
23146SOL    HW272071   3.359   5.224   6.486  0.5621  0.1429 -1.2602
23147SOL     OW72072   6.567   9.094   9.580 -0.3563 -0.1335 -0.2082
23147SOL    HW172073   6.653   9.069   9.614 -0.3858  0.7226  0.5114
23147SOL    HW272074   6.526   9.142   9.651 -1.6820 -1.0475 -0.3199
23148SOL     OW72075   9.075   6.291   6.401  0.1919 -0.5676  0.4486
23148SOL    HW172076   9.148   6.346   6.373 -0.2012  0.6157  1.6407
23148SOL    HW272077   9.101   6.260   6.487  0.7866 -3.0298 -0.5378
23149SOL     OW72078   8.920   4.762   9.110  0.3494 -0.6382  0.4020
23149SOL    HW172079   8.883   4.759   9.199 -2.3404  2.8938 -0.3584
23149SOL    HW272080   8.980   4.835   9.112 -0.1016 -0.2201 -0.7767
23150SOL     OW72081   1.150   8.177   1.716 -0.6626  0.2722 -0.3966
23150SOL    HW172082   1.180   8.183   1.625 -0.5692  0.3082 -0.3637
23150SOL    HW272083   1.069   8.228   1.718 -0.3458  0.7761 -0.3226
23151SOL     OW72084   9.118   4.937   1.195  0.4220 -0.0455 -0.1932
23151SOL    HW172085   9.152   4.861   1.241  2.1602  1.1516  0.5895
23151SOL    HW272086   9.091   4.998   1.264  1.4056  1.0496 -0.7353
23152SOL     OW72087   3.939   7.563   1.115  0.1659 -0.0287 -0.8500
23152SOL    HW172088   4.003   7.500   1.081  1.2019  0.5532 -0.0585
23152SOL    HW272089   3.933   7.630   1.046  1.2011  0.4303 -0.5209
23153SOL     OW72090   4.920   9.821   3.824 -0.2865 -0.1194 -0.9386
23153SOL    HW172091   4.875   9.738   3.808  0.8254 -0.7091 -1.1098
23153SOL    HW272092   4.907   9.872   3.744  0.2975 -0.7297 -1.4266
23154SOL     OW72093   7.969   2.637   8.803 -0.3418  0.2878  0.1999
23154SOL    HW172094   7.985   2.580   8.728  1.5350  1.2156 -0.1528
23154SOL    HW272095   7.910   2.704   8.770  0.7970  0.9261 -0.5992
23155SOL     OW72096  10.260   8.860   9.257 -0.2515 -0.5474  0.3557
23155SOL    HW172097  10.242   8.942   9.303  0.6862  0.1107 -0.4241
23155SOL    HW272098  10.180   8.808   9.270 -1.5487  1.1152 -0.5224
23156SOL     OW72099   9.482   6.474   8.693 -0.2620 -0.4017  0.2390
23156SOL    HW172100   9.472   6.541   8.625 -0.1248 -1.6099 -1.0081
23156SOL    HW272101   9.551   6.508   8.750  2.0312 -0.8208 -2.1099
23157SOL     OW72102   8.587   2.882   5.110 -0.5557 -0.2340 -0.2414
23157SOL    HW172103   8.550   2.963   5.075  2.0167  0.9461 -0.4914
23157SOL    HW272104   8.556   2.814   5.052 -1.3533  0.8241 -1.1040
23158SOL     OW72105   2.858   9.001   1.838  0.2652 -0.2332 -0.5089
23158SOL    HW172106   2.929   9.038   1.785  2.0036 -2.1765  0.3378
23158SOL    HW272107   2.807   8.948   1.776  0.2059  0.2656 -0.8940
23159SOL     OW72108   7.008   6.073   5.513  0.2686 -0.4395  0.1185
23159SOL    HW172109   7.068   6.094   5.584 -0.6516  0.6493  0.5988
23159SOL    HW272110   6.953   6.002   5.548  1.5638 -1.8308 -0.5154
23160SOL     OW72111   1.973   7.000   9.436  0.2986  0.4005 -0.4014
23160SOL    HW172112   1.880   6.985   9.417  0.3246 -0.3968  0.0711
23160SOL    HW272113   2.015   6.916   9.418  0.6981  0.3391  0.7701
23161SOL     OW72114   0.566   9.188   6.266 -0.0286 -0.2127 -0.1256
23161SOL    HW172115   0.527   9.274   6.279 -1.2169 -0.8834  0.9455
23161SOL    HW272116   0.658   9.206   6.247 -0.0389  1.2552  1.0612
23162SOL     OW72117   8.494   7.573   4.887 -0.7472  0.1844 -0.1751
23162SOL    HW172118   8.533   7.490   4.916  0.2667  0.7547  0.1631
23162SOL    HW272119   8.424   7.590   4.950  1.4354  1.4251  2.1094
23163SOL     OW72120   5.253  10.139   2.222  0.6155  0.6296 -0.0592
23163SOL    HW172121   5.209  10.139   2.137 -0.2171  1.2271  0.3481
23163SOL    HW272122   5.246  10.049   2.254 -1.1109  0.8729  0.3664
23164SOL     OW72123   0.540   7.466   7.523 -0.6126  0.1564  0.1765
23164SOL    HW172124   0.592   7.519   7.584 -0.6918 -0.9024  1.2123
23164SOL    HW272125   0.604   7.419   7.470 -0.5389  1.8895 -1.3321
23165SOL     OW72126   7.188   2.788   1.926  0.3033  0.3384  0.0689
23165SOL    HW172127   7.272   2.743   1.942  0.7145  1.4838  1.3778
23165SOL    HW272128   7.126   2.742   1.983  0.1247 -0.2283 -0.5705
23166SOL     OW72129   5.075   9.039   5.239  0.2414 -0.0082  0.2742
23166SOL    HW172130   5.013   9.069   5.173  0.0998 -1.4801 -0.3048
23166SOL    HW272131   5.125   9.117   5.263  0.6175  0.4878 -1.9155
23167SOL     OW72132   2.654   1.740   0.280 -0.1197 -0.0582 -0.0780
23167SOL    HW172133   2.585   1.713   0.340 -1.2901  0.2567 -1.2606
23167SOL    HW272134   2.611   1.752   0.196  1.2076  1.0097 -0.6499
23168SOL     OW72135   4.115   8.765   5.278 -0.2213 -0.4919  0.2612
23168SOL    HW172136   4.095   8.779   5.186  1.0876  0.2945  0.0778
23168SOL    HW272137   4.196   8.713   5.277 -0.0704 -0.2773  0.9688
23169SOL     OW72138   9.694   2.584   0.611 -0.0560  0.3808 -0.8447
23169SOL    HW172139   9.658   2.630   0.535  1.2445  1.4782 -0.8291
23169SOL    HW272140   9.771   2.635   0.636  1.1406 -1.5096 -0.4767
23170SOL     OW72141   5.113  10.324   2.557  0.0797  0.9370  0.6926
23170SOL    HW172142   5.164  10.354   2.632 -0.5510  2.6202  0.4715
23170SOL    HW272143   5.179  10.313   2.487  0.6842 -0.7507  1.4685
23171SOL     OW72144   6.005   1.456  10.283 -0.2898  0.0158  0.5714
23171SOL    HW172145   5.913   1.430  10.273 -0.4242  0.8499 -0.4420
23171SOL    HW272146   6.025   1.506  10.204  0.4842  1.4531  1.6315
23172SOL     OW72147   2.336   9.669   7.928  0.1389 -0.2215  0.0989
23172SOL    HW172148   2.278   9.728   7.880  1.2276  0.2237 -0.7064
23172SOL    HW272149   2.407   9.725   7.958 -0.2954 -0.5725  1.9017
23173SOL     OW72150   6.989   1.678   2.840 -0.4333  0.2557 -0.2130
23173SOL    HW172151   7.054   1.704   2.775  0.6336 -0.7500  0.4247
23173SOL    HW272152   7.030   1.695   2.924 -0.7830 -0.8610  0.2043
23174SOL     OW72153   7.183   9.724   2.605 -0.1848 -0.0191  0.1246
23174SOL    HW172154   7.220   9.664   2.669 -0.6009  0.1553  0.5312
23174SOL    HW272155   7.181   9.809   2.649 -1.2852 -0.0710  0.2049
23175SOL     OW72156   0.926   6.315   3.997 -0.1260 -0.2180 -0.0070
23175SOL    HW172157   0.830   6.312   4.001 -0.1667  1.2704  0.9323
23175SOL    HW272158   0.945   6.343   3.907 -0.6864  1.4170  0.3405
23176SOL     OW72159   4.614   6.135   1.582 -0.0796 -0.2535  0.0085
23176SOL    HW172160   4.678   6.064   1.593 -1.2481 -1.0838  2.0220
23176SOL    HW272161   4.531   6.096   1.609 -1.3436  1.0212 -1.8173
23177SOL     OW72162   1.126   2.581   9.798 -0.1148 -0.3679  1.1506
23177SOL    HW172163   1.031   2.571   9.800 -0.1148 -0.2498  1.8650
23177SOL    HW272164   1.159   2.496   9.829  0.0883 -1.3752 -1.5662
23178SOL     OW72165   1.377   8.747   1.501 -0.6306 -0.1583 -0.0678
23178SOL    HW172166   1.320   8.719   1.573 -1.5795  0.3124 -0.6182
23178SOL    HW272167   1.420   8.825   1.534  0.4772 -1.0707  0.7186
23179SOL     OW72168   3.353   4.124   3.292  0.4931  0.1734  0.2071
23179SOL    HW172169   3.306   4.040   3.296  0.1254  0.4159  1.7246
23179SOL    HW272170   3.360   4.143   3.199  0.1146 -1.2840 -0.1508
23180SOL     OW72171   7.879   3.213   4.583  0.6501 -0.0029  0.5257
23180SOL    HW172172   7.786   3.190   4.578  0.8027 -0.4763 -0.5725
23180SOL    HW272173   7.888   3.289   4.525  0.5956  1.3634  2.2387
23181SOL     OW72174   6.563   8.755  10.283 -0.2469  0.4456  0.0758
23181SOL    HW172175   6.612   8.717  10.356  1.0812 -0.9239 -1.4710
23181SOL    HW272176   6.605   8.840  10.268  0.9751 -0.2457 -0.5289
23182SOL     OW72177  10.240   5.673   2.545  0.8102  0.4490  0.6875
23182SOL    HW172178  10.231   5.767   2.531 -1.0620  0.3640  1.0377
23182SOL    HW272179  10.169   5.650   2.605  1.2783 -1.1762  0.6836
23183SOL     OW72180   6.382   4.590   0.540 -0.1660 -0.1464 -0.0758
23183SOL    HW172181   6.459   4.533   0.531 -0.4660 -0.5897  0.1558
23183SOL    HW272182   6.308   4.530   0.539 -0.4781  0.2309  0.2815
23184SOL     OW72183   6.057   9.164   6.152 -0.8846  0.7139  0.3378
23184SOL    HW172184   6.120   9.101   6.186 -1.5988 -0.8689 -1.1181
23184SOL    HW272185   6.110   9.235   6.117  0.3885 -1.6511 -3.0680
23185SOL     OW72186   8.287   1.018   3.977 -0.0636 -0.3968  0.5638
23185SOL    HW172187   8.337   1.017   3.895  0.3530 -1.9530  0.7984
23185SOL    HW272188   8.207   1.066   3.956  1.5491  2.3984  0.2288
23186SOL     OW72189   4.980   9.420   5.406 -0.5128  0.3239 -0.0741
23186SOL    HW172190   4.932   9.485   5.355 -1.5673  0.8104  1.4552
23186SOL    HW272191   4.947   9.430   5.496  0.0175 -1.6421  0.4074
23187SOL     OW72192   0.854   7.221   2.260 -0.1178  0.3406  0.6898
23187SOL    HW172193   0.868   7.307   2.298  1.2066  0.5754 -0.2772
23187SOL    HW272194   0.869   7.160   2.333 -0.5212  0.8932  1.2409
23188SOL     OW72195   8.830   5.037   4.104  0.0687  0.3435 -0.6482
23188SOL    HW172196   8.907   5.065   4.153 -1.3857  0.8288  1.4737
23188SOL    HW272197   8.810   4.950   4.139 -1.4667  1.0313  0.3017
23189SOL     OW72198   4.435   2.578   4.367 -0.5008 -0.2553  0.1518
23189SOL    HW172199   4.421   2.607   4.457  1.2308 -1.1279  0.7475
23189SOL    HW272200   4.397   2.490   4.365 -0.1129 -0.4256  0.1813
23190SOL     OW72201   3.056   8.836   8.391 -0.2452 -0.0334  0.5082
23190SOL    HW172202   3.097   8.809   8.309 -3.0823  2.6736 -2.0640
23190SOL    HW272203   3.119   8.898   8.429  0.5819 -0.3886 -0.2433
23191SOL     OW72204   0.148   9.832   4.048 -0.1216 -0.0445  0.1153
23191SOL    HW172205   0.067   9.882   4.047 -0.4623 -0.5949 -1.0307
23191SOL    HW272206   0.126   9.749   4.005  0.9039 -0.4294  0.2969
23192SOL     OW72207   0.677   1.106   8.454 -0.4077  0.2442  0.3019
23192SOL    HW172208   0.613   1.047   8.494  0.2682 -0.2582  0.6768
23192SOL    HW272209   0.628   1.155   8.389 -1.0904 -0.3907  0.3269
23193SOL     OW72210   4.153   6.755   6.141 -0.1731  0.3036  0.0811
23193SOL    HW172211   4.236   6.749   6.095 -0.1865  0.3072  0.0564
23193SOL    HW272212   4.089   6.775   6.072  0.0826  2.1746  0.3466
23194SOL     OW72213   1.661   4.992   2.016  0.6252 -0.4459  0.2430
23194SOL    HW172214   1.733   5.028   2.068 -0.2098  1.1072  0.3723
23194SOL    HW272215   1.702   4.966   1.933  1.3832  0.1411  0.4207
23195SOL     OW72216   4.919   0.725   4.880 -0.2781  0.2985  0.0973
23195SOL    HW172217   4.858   0.652   4.894 -0.6135  0.3720 -0.8633
23195SOL    HW272218   4.879   0.776   4.809  0.4758  0.8262  0.0392
23196SOL     OW72219   7.331   2.923   0.326  0.1981  0.0905  0.3369
23196SOL    HW172220   7.306   3.003   0.372  0.0142 -0.3261  0.9772
23196SOL    HW272221   7.427   2.923   0.327  0.4659  2.5048 -3.5088
23197SOL     OW72222   4.789   7.950   3.676 -0.1808  0.0394 -0.1615
23197SOL    HW172223   4.835   8.003   3.740  0.6750  1.1169 -1.6237
23197SOL    HW272224   4.796   7.998   3.594 -2.6702 -0.4723 -0.7655
23198SOL     OW72225   2.095   7.104   5.905 -0.2669  0.4531  0.4182
23198SOL    HW172226   2.134   7.053   5.835 -1.5001  0.7452 -0.5167
23198SOL    HW272227   2.124   7.061   5.985  0.8695 -0.1022 -0.2609
23199SOL     OW72228   2.585   3.548  10.199  0.2102  0.3109  0.5297
23199SOL    HW172229   2.498   3.579  10.225  0.4919  0.9139  0.7771
23199SOL    HW272230   2.593   3.461  10.239  0.0438  0.6019  1.2069
23200SOL     OW72231   7.065   8.732   9.164 -0.0099  0.5087  0.0718
23200SOL    HW172232   7.060   8.642   9.132 -0.3916  0.6352 -0.2334
23200SOL    HW272233   7.002   8.736   9.235 -0.2758  0.6344 -0.1672
23201SOL     OW72234   7.162   6.128   6.368 -0.2226  0.2705 -0.3477
23201SOL    HW172235   7.193   6.174   6.446  1.2477  1.3199 -1.5129
23201SOL    HW272236   7.201   6.041   6.374  0.1061  0.4381 -0.0642
23202SOL     OW72237   4.534   8.279   2.371  0.4980 -0.1154 -0.2400
23202SOL    HW172238   4.621   8.293   2.334  0.1795 -1.1722 -1.4707
23202SOL    HW272239   4.475   8.286   2.296 -0.2221 -1.8605  0.1238
23203SOL     OW72240   7.585   0.657   3.437 -0.2758  0.6144 -0.0599
23203SOL    HW172241   7.666   0.622   3.474  0.3233  1.5622 -0.4303
23203SOL    HW272242   7.543   0.702   3.510  0.5444  1.8540 -0.3253
23204SOL     OW72243   8.234   3.597   1.560  0.3563  0.0504  0.2140
23204SOL    HW172244   8.169   3.575   1.493  0.3171 -2.1216  0.8928
23204SOL    HW272245   8.311   3.626   1.510 -0.0233 -0.5173 -0.7194
23205SOL     OW72246   8.079   6.028  10.055  0.3996  0.1121 -0.2529
23205SOL    HW172247   8.079   5.999   9.964  1.4645 -1.3128  0.1622
23205SOL    HW272248   8.146   6.096  10.058  0.6184 -0.0908 -0.4640
23206SOL     OW72249   9.046   1.353   7.333  0.1411  0.2124 -0.1526
23206SOL    HW172250   9.066   1.350   7.427 -0.0141 -0.5476 -0.1343
23206SOL    HW272251   8.959   1.314   7.326  0.7397 -1.0806 -0.7540
23207SOL     OW72252   8.803   2.098   1.038  0.5612 -0.0078 -0.1034
23207SOL    HW172253   8.768   2.126   0.954  0.7529 -1.9744 -0.9014
23207SOL    HW272254   8.895   2.077   1.020  0.7882  0.2051  0.7681
23208SOL     OW72255   2.933   2.563   3.780 -0.0298 -0.1173 -0.0480
23208SOL    HW172256   3.002   2.577   3.844  0.3085 -1.8146  0.0188
23208SOL    HW272257   2.966   2.491   3.725 -1.5366 -0.6521 -0.3037
23209SOL     OW72258   5.798   2.372   7.393  0.0954  0.6836 -0.2710
23209SOL    HW172259   5.739   2.334   7.328  0.9262  0.3822 -0.8717
23209SOL    HW272260   5.822   2.299   7.450  2.2453  0.0538 -1.8437
23210SOL     OW72261   5.267   3.590   1.213 -0.0699  0.6030  0.0116
23210SOL    HW172262   5.196   3.570   1.273 -0.5907 -0.5790 -0.9321
23210SOL    HW272263   5.315   3.507   1.204  0.5679  1.0071 -0.4474
23211SOL     OW72264   7.351   2.914   6.741  0.3328  0.1782  0.3110
23211SOL    HW172265   7.359   2.859   6.819  4.0546  0.1191  0.0885
23211SOL    HW272266   7.350   2.852   6.668  1.8490  0.2547  0.1821
23212SOL     OW72267   3.611   0.701   8.228 -0.4631 -0.6335 -0.3856
23212SOL    HW172268   3.633   0.794   8.227  0.2934 -0.8085 -0.5710
23212SOL    HW272269   3.553   0.691   8.304  1.0831 -0.3569  0.8959
23213SOL     OW72270   5.190   0.750   1.747 -0.1010 -0.3093  0.1749
23213SOL    HW172271   5.168   0.694   1.672  0.4179  0.4109 -0.5412
23213SOL    HW272272   5.107   0.763   1.793 -0.5952 -0.0973 -0.7507
23214SOL     OW72273   0.978   0.574   9.918 -0.2233 -0.0347  0.1681
23214SOL    HW172274   1.072   0.585   9.903 -0.1327  0.5198  1.0796
23214SOL    HW272275   0.942   0.662   9.913 -0.9441 -0.3999 -1.6405
23215SOL     OW72276   2.979   6.925   2.038  0.2623  0.1564 -0.1589
23215SOL    HW172277   2.994   6.837   2.004 -0.2773 -1.3958  3.1575
23215SOL    HW272278   3.066   6.957   2.063  0.6148  1.1641 -2.3888
23216SOL     OW72279   7.783   2.556   7.150  0.2032 -0.2406 -0.0642
23216SOL    HW172280   7.703   2.573   7.200  0.2709 -0.3070  0.0651
23216SOL    HW272281   7.752   2.535   7.062 -0.0718 -2.8271  0.5906
23217SOL     OW72282   9.473   6.513   3.859 -0.0715  0.5469  0.0983
23217SOL    HW172283   9.498   6.474   3.943  1.0098  1.3264  0.1478
23217SOL    HW272284   9.397   6.462   3.832  0.2438 -0.4578  1.0077
23218SOL     OW72285   4.674   7.913   9.578  0.0229 -0.1746 -0.4062
23218SOL    HW172286   4.643   7.849   9.513  0.3017 -0.7244 -0.0130
23218SOL    HW272287   4.759   7.942   9.544 -0.5754  0.7787 -1.1116
23219SOL     OW72288   9.489   9.631   2.700 -0.1609 -0.1993 -0.3562
23219SOL    HW172289   9.538   9.638   2.782  0.1983 -0.2970 -0.5577
23219SOL    HW272290   9.482   9.721   2.668  0.1578 -0.2161 -0.4793
23220SOL     OW72291   8.693   7.172   1.618 -0.6948 -0.0478  0.1706
23220SOL    HW172292   8.698   7.148   1.526  2.0077  0.2368  0.1426
23220SOL    HW272293   8.785   7.185   1.644 -1.4578  1.2702  2.5273
23221SOL     OW72294   2.298   7.244   4.355 -0.0358  0.8140  0.1651
23221SOL    HW172295   2.249   7.226   4.275  1.1174  0.3710 -0.4661
23221SOL    HW272296   2.294   7.162   4.405  0.7065  0.5072 -0.2562
23222SOL     OW72297   0.839   9.771   4.751  0.3260 -0.0898  0.1361
23222SOL    HW172298   0.850   9.833   4.679  0.6624  1.2177  1.2709
23222SOL    HW272299   0.755   9.794   4.790  1.6597  1.5705  2.2708
23223SOL     OW72300   6.482   5.448   9.833 -0.2438 -0.5185  0.2104
23223SOL    HW172301   6.499   5.540   9.815  0.9676 -1.1342 -2.1609
23223SOL    HW272302   6.545   5.425   9.902  0.9556 -0.0712 -0.7126
23224SOL     OW72303   6.627   7.069   9.349 -0.0167  0.2758  0.8055
23224SOL    HW172304   6.667   6.982   9.357 -4.2506 -1.7738  3.1738
23224SOL    HW272305   6.679   7.125   9.406  3.3051 -0.2954 -1.3957
23225SOL     OW72306   9.294   4.441   7.470 -0.5514 -0.4532  0.0709
23225SOL    HW172307   9.204   4.457   7.442 -1.0652 -1.7729  0.8760
23225SOL    HW272308   9.346   4.505   7.422 -2.1054  1.5752  0.9496
23226SOL     OW72309   9.357   4.148   1.795  0.7821  0.0051  0.1968
23226SOL    HW172310   9.388   4.142   1.885  1.4418  0.8627  0.0423
23226SOL    HW272311   9.436   4.167   1.744 -0.0766  3.7695 -0.0251
23227SOL     OW72312   4.904   3.584   2.909 -0.3440  0.0472  0.1007
23227SOL    HW172313   4.848   3.660   2.895  1.7327  1.9370  1.4498
23227SOL    HW272314   4.882   3.524   2.837 -3.1467  1.1848 -0.1261
23228SOL     OW72315   3.474   9.980   5.340  0.2950 -0.5384 -0.3979
23228SOL    HW172316   3.449  10.049   5.279  0.5540  0.0972  0.1940
23228SOL    HW272317   3.551   9.939   5.300  0.2717 -0.3365 -0.6532
23229SOL     OW72318   2.714   9.256   2.844  0.2906  0.1305 -0.1497
23229SOL    HW172319   2.760   9.328   2.887 -1.3633  1.3612 -0.3080
23229SOL    HW272320   2.782   9.193   2.821  1.9056  1.9474 -0.5869
23230SOL     OW72321   1.261   4.032   6.929  0.3749  0.2196  0.3056
23230SOL    HW172322   1.174   4.064   6.903  0.6070  0.9190  0.3851
23230SOL    HW272323   1.249   4.002   7.019  0.6065  1.9232  0.9340
23231SOL     OW72324   6.270   2.078   7.707  0.3765 -0.0239 -0.2881
23231SOL    HW172325   6.191   2.095   7.759 -0.0205 -1.8199 -0.2604
23231SOL    HW272326   6.250   1.998   7.659  1.5798  0.4047 -1.5586
23232SOL     OW72327   6.834   7.447   4.139  0.1622 -0.3571  0.2739
23232SOL    HW172328   6.797   7.399   4.213  0.5755  0.0554  0.7598
23232SOL    HW272329   6.829   7.387   4.065 -1.5927 -0.2628  0.2950
23233SOL     OW72330   5.692   0.634   9.922 -0.1593 -0.0062 -0.1012
23233SOL    HW172331   5.748   0.696   9.969  3.3802 -1.4685 -2.0028
23233SOL    HW272332   5.641   0.689   9.862  0.9959  1.2831  0.0379
23234SOL     OW72333   2.083   6.198   6.503  0.2720 -0.0130 -0.3508
23234SOL    HW172334   2.177   6.206   6.521 -0.2358  3.4422  1.6222
23234SOL    HW272335   2.051   6.137   6.570  0.8306  0.4985  0.4036
23235SOL     OW72336   8.426   6.240   0.816 -0.3913 -0.0701  0.2917
23235SOL    HW172337   8.519   6.220   0.820 -0.1544  1.0930  1.2212
23235SOL    HW272338   8.393   6.189   0.741  1.8194  2.8624 -2.9535
23236SOL     OW72339   6.923   3.941   5.652 -0.1949 -0.2590  0.3947
23236SOL    HW172340   6.945   3.849   5.641  1.0754  0.1054 -0.2819
23236SOL    HW272341   6.989   3.975   5.712 -1.2103  0.0209  1.3903
23237SOL     OW72342   9.599   4.423   2.516  0.5841  0.1685  0.6943
23237SOL    HW172343   9.661   4.404   2.587  0.8417  0.8676  0.6712
23237SOL    HW272344   9.513   4.423   2.558  0.5239 -1.3335  0.6299
23238SOL     OW72345   2.152   0.874   4.101 -0.4970  0.0549  0.1769
23238SOL    HW172346   2.237   0.855   4.061 -0.4883  1.9302 -0.8034
23238SOL    HW272347   2.169   0.947   4.161 -1.7625  2.1893 -1.8800
23239SOL     OW72348   8.465   3.311   3.894  0.5079 -0.2087  0.0736
23239SOL    HW172349   8.512   3.254   3.834  0.0763  0.1828 -0.6531
23239SOL    HW272350   8.380   3.327   3.851  0.9650  1.7393 -0.2119
23240SOL     OW72351  10.257   3.497   4.338  0.1844 -0.1456 -0.1284
23240SOL    HW172352  10.258   3.404   4.360 -0.2325  0.2841  1.8533
23240SOL    HW272353  10.189   3.505   4.271 -0.1223 -1.1846  0.0427
23241SOL     OW72354   4.843   2.159   2.750  0.0608 -0.1350  0.3902
23241SOL    HW172355   4.880   2.074   2.775  0.3211 -0.4493 -0.9780
23241SOL    HW272356   4.884   2.221   2.810 -0.8983 -1.0678  2.0890
23242SOL     OW72357   1.725   6.532   3.496 -0.0588  0.0204  0.2576
23242SOL    HW172358   1.727   6.563   3.587 -1.9690 -0.0301  0.3602
23242SOL    HW272359   1.710   6.437   3.503 -0.4530  0.0531 -0.1124
23243SOL     OW72360   4.647   1.035   2.719 -0.3768  0.2739  0.4063
23243SOL    HW172361   4.693   1.099   2.666  0.0692  0.0524  0.5152
23243SOL    HW272362   4.569   1.081   2.750 -0.0239  0.7887  0.5497
23244SOL     OW72363   2.700   9.945   2.230 -0.0909 -0.1377 -0.0371
23244SOL    HW172364   2.701   9.858   2.190 -0.0448 -1.3142  2.3900
23244SOL    HW272365   2.738  10.002   2.163  2.2420 -2.3960 -0.8074
23245SOL     OW72366   8.239   8.940   8.818  0.1529 -0.6574  0.1830
23245SOL    HW172367   8.167   8.879   8.803 -2.2199  2.0028 -0.0044
23245SOL    HW272368   8.237   8.957   8.912 -1.3122  1.3984 -0.1489
23246SOL     OW72369   5.925   1.762   4.125  0.3935  0.0677  0.1984
23246SOL    HW172370   5.930   1.689   4.186  1.1700  0.2044  0.3112
23246SOL    HW272371   5.989   1.825   4.158  0.7727  0.1792 -0.7075
23247SOL     OW72372   6.229   3.819   7.766  0.0024 -0.3040  0.4671
23247SOL    HW172373   6.299   3.883   7.752  0.0636 -0.4506  0.1034
23247SOL    HW272374   6.273   3.734   7.768 -0.2515 -0.4657 -0.5522
23248SOL     OW72375   7.181   9.118   2.721  0.1188  0.2625 -0.1307
23248SOL    HW172376   7.178   9.185   2.652 -2.6858 -1.4753 -1.8983
23248SOL    HW272377   7.144   9.161   2.798 -0.4856  1.1190 -0.8747
23249SOL     OW72378   9.202   8.537   0.031  0.2015  0.5872 -0.3646
23249SOL    HW172379   9.154   8.497  -0.042  0.2900  0.7716 -0.5244
23249SOL    HW272380   9.294   8.520   0.011  0.1479 -1.4610  0.9223
23250SOL     OW72381   8.982   3.867   4.102  0.9044 -0.1027  0.3528
23250SOL    HW172382   8.975   3.958   4.130  2.1143  0.3910 -0.8314
23250SOL    HW272383   8.923   3.861   4.026  2.6810  0.4195 -1.1456
23251SOL     OW72384   2.918   0.602   0.284 -0.0363  0.2591 -0.0026
23251SOL    HW172385   2.867   0.523   0.301  1.2684 -0.9400 -1.3663
23251SOL    HW272386   2.961   0.622   0.367 -0.5062 -0.3660  0.4038
23252SOL     OW72387   9.926   2.472   3.829  0.1403  0.1580 -0.5783
23252SOL    HW172388   9.909   2.521   3.749  2.9846  1.2754 -0.6167
23252SOL    HW272389   9.951   2.539   3.893 -2.2996 -0.6653  1.4364
23253SOL     OW72390   4.800   9.608   0.323 -0.0105  0.1999  0.6399
23253SOL    HW172391   4.836   9.561   0.248  0.5871  1.6519 -0.0054
23253SOL    HW272392   4.733   9.666   0.286 -1.7317 -1.0827  1.5962
23254SOL     OW72393   2.701   7.530   5.744  0.0112  0.0968 -0.0281
23254SOL    HW172394   2.692   7.580   5.824  1.1954  1.0951 -0.4979
23254SOL    HW272395   2.736   7.445   5.772 -3.2464 -1.0838  0.9301
23255SOL     OW72396   2.916   1.751   1.545 -0.5661  0.3145  0.0409
23255SOL    HW172397   2.935   1.762   1.452 -1.2311 -0.8430 -0.2531
23255SOL    HW272398   2.822   1.769   1.553 -1.0005 -1.7429  0.0732
23256SOL     OW72399   0.171   2.501   2.421  0.2925  0.0764 -0.4055
23256SOL    HW172400   0.128   2.549   2.350 -1.7496 -1.0758 -0.0385
23256SOL    HW272401   0.168   2.409   2.393  0.2218 -0.3042  0.7764
23257SOL     OW72402   6.401   2.660   7.339 -0.6233 -0.1079  0.2204
23257SOL    HW172403   6.381   2.591   7.277  0.2435  0.1148 -0.3160
23257SOL    HW272404   6.414   2.738   7.286  0.8343 -0.0663  0.6003
23258SOL     OW72405   3.002   3.863   1.075  0.0050  0.0593 -0.0274
23258SOL    HW172406   2.940   3.845   1.005 -0.1269 -1.5552  0.4743
23258SOL    HW272407   2.954   3.845   1.155 -0.1211  2.7022  0.6001
23259SOL     OW72408   5.549   9.721   4.211  0.0560  0.0285  0.4425
23259SOL    HW172409   5.533   9.759   4.298 -0.0557  0.0491  0.4135
23259SOL    HW272410   5.523   9.790   4.150 -0.9917 -0.4091  0.3703
23260SOL     OW72411   0.048   3.046   3.980  0.1389 -0.0388 -0.1398
23260SOL    HW172412  -0.046   3.056   3.996 -0.3157  0.6884 -2.9165
23260SOL    HW272413   0.066   2.954   4.002 -1.0791 -0.0546  0.9083
23261SOL     OW72414   9.573   3.585   8.492 -0.1043 -0.3580 -0.5147
23261SOL    HW172415   9.484   3.552   8.481 -0.4827  0.4970 -0.0836
23261SOL    HW272416   9.564   3.656   8.556  0.8238  0.0100 -0.7853
23262SOL     OW72417   1.910   4.592   3.377 -0.0520  0.5413  0.1138
23262SOL    HW172418   2.002   4.575   3.397 -0.2008  0.0124  0.3685
23262SOL    HW272419   1.880   4.646   3.450 -0.7110 -1.7485  1.6657
23263SOL     OW72420   9.480   7.167   3.835 -0.2245  0.3808 -0.0927
23263SOL    HW172421   9.569   7.156   3.870 -0.4453  2.1501  1.1558
23263SOL    HW272422   9.484   7.249   3.787 -0.6341 -0.6954 -2.0759
23264SOL     OW72423   0.958   9.323   3.091 -0.0691  0.5209 -0.6447
23264SOL    HW172424   0.990   9.308   3.180  1.3731 -0.9879 -1.3675
23264SOL    HW272425   0.900   9.249   3.073 -1.4521  1.5234 -0.5283
23265SOL     OW72426   2.706   2.549   5.681  0.1104 -0.2908 -0.3145
23265SOL    HW172427   2.748   2.550   5.595  0.3337 -0.6749 -0.2151
23265SOL    HW272428   2.647   2.474   5.678 -0.3934  0.0982 -0.3646
23266SOL     OW72429   6.147   8.954   2.916  0.1252 -0.4555  0.3290
23266SOL    HW172430   6.204   9.031   2.918 -0.9192  0.3288  0.5873
23266SOL    HW272431   6.194   8.891   2.862  0.6920  0.6173 -0.4695
23267SOL     OW72432   4.385   8.804   0.014  0.4033  0.2742  0.1978
23267SOL    HW172433   4.375   8.862  -0.061  1.3159 -1.1857 -1.1318
23267SOL    HW272434   4.298   8.766   0.026 -0.1160  1.6204  0.8656
23268SOL     OW72435   5.790   3.568   7.036  0.1804 -0.4480 -0.0529
23268SOL    HW172436   5.869   3.548   7.086  1.1025 -0.3030 -1.3800
23268SOL    HW272437   5.718   3.542   7.093  1.2153 -2.4265  0.4328
23269SOL     OW72438   7.041   3.449   7.200  0.0979  0.6299 -0.1177
23269SOL    HW172439   7.122   3.402   7.218  0.3341  0.8367 -0.6092
23269SOL    HW272440   7.016   3.420   7.112  0.9147  2.3235 -0.9689
23270SOL     OW72441   2.210   2.484   7.905  0.1088  0.1605 -0.1950
23270SOL    HW172442   2.277   2.551   7.891  0.4724 -0.1719 -0.0550
23270SOL    HW272443   2.138   2.530   7.948  0.3012  0.4900 -0.2257
23271SOL     OW72444   7.589   7.760   3.108  0.0829  0.8415  0.4358
23271SOL    HW172445   7.618   7.702   3.178  0.0283 -1.8872 -1.5944
23271SOL    HW272446   7.622   7.719   3.028  0.1939  3.8085 -1.1809
23272SOL     OW72447   7.680   2.678  10.005 -0.0530  0.1706  0.4497
23272SOL    HW172448   7.708   2.586  10.004 -0.7679 -0.0523  0.2743
23272SOL    HW272449   7.644   2.691  10.092  1.5005  0.7481  1.0338
23273SOL     OW72450   8.766   9.505   7.804 -0.1044  1.0043  0.2289
23273SOL    HW172451   8.806   9.439   7.749  0.0075  0.9639  0.3588
23273SOL    HW272452   8.692   9.460   7.845 -0.8533  1.3249 -0.7188
23274SOL     OW72453   9.474   2.419   8.097 -0.4376 -0.2129  0.2126
23274SOL    HW172454   9.396   2.373   8.128 -0.7209 -1.0237 -1.5298
23274SOL    HW272455   9.441   2.500   8.060 -0.7187 -1.1931 -1.8431
23275SOL     OW72456   7.105  10.161   7.471  0.2460 -0.0369  0.4495
23275SOL    HW172457   7.066  10.247   7.456  1.2403  0.4186  0.3624
23275SOL    HW272458   7.112  10.122   7.384  2.0997  0.8507  0.1540
23276SOL     OW72459   8.654   1.897   2.160 -0.6378  0.3165  0.0029
23276SOL    HW172460   8.698   1.868   2.240  2.2502 -0.2830 -1.6705
23276SOL    HW272461   8.602   1.822   2.132  0.7599 -0.6021 -0.2334
23277SOL     OW72462   1.676   2.103   5.221 -0.0795  0.0226  0.1459
23277SOL    HW172463   1.661   2.017   5.182 -0.3705  0.2989 -0.3588
23277SOL    HW272464   1.636   2.164   5.159 -0.9741  0.4401  1.1208
23278SOL     OW72465   9.730   4.391   7.697 -0.3554 -0.4163 -0.5313
23278SOL    HW172466   9.641   4.367   7.722 -0.7133  0.3025 -1.0703
23278SOL    HW272467   9.746   4.473   7.744 -0.1242 -0.3385 -0.7476
23279SOL     OW72468   5.906   7.165   8.832  0.0862  0.5602 -0.6153
23279SOL    HW172469   6.001   7.175   8.834 -0.0007  1.4145 -0.5675
23279SOL    HW272470   5.884   7.150   8.740  0.3259 -0.3229 -0.5379
23280SOL     OW72471   4.426   1.889   7.518 -0.5711 -0.1026 -0.8038
23280SOL    HW172472   4.486   1.954   7.555 -0.9641  0.4394 -1.1105
23280SOL    HW272473   4.418   1.913   7.426 -0.9610 -0.4038 -0.8507
23281SOL     OW72474   9.983   5.204   1.996  0.3335 -0.3194 -0.3890
23281SOL    HW172475  10.035   5.283   2.005 -0.7462  0.4130 -0.3504
23281SOL    HW272476  10.047   5.133   1.995  1.1610  0.0087  4.8675
23282SOL     OW72477   9.444   4.427   2.741 -0.3814  0.1240 -0.1530
23282SOL    HW172478   9.353   4.397   2.747 -0.0557 -1.3772 -1.9122
23282SOL    HW272479   9.486   4.397   2.821 -0.7657 -1.7053 -0.6110
23283SOL     OW72480   6.091   0.324   4.058  0.5316  0.0086  0.5594
23283SOL    HW172481   6.116   0.345   4.148 -1.1591  0.8359  0.8700
23283SOL    HW272482   6.088   0.228   4.056  0.8618 -0.0240  1.2949
23284SOL     OW72483  10.357   6.533   7.446  0.3895 -0.4754  0.0347
23284SOL    HW172484  10.384   6.597   7.380  1.1027  0.3105  1.0521
23284SOL    HW272485  10.385   6.571   7.529  0.6981 -2.0444  0.6913
23285SOL     OW72486   5.022   3.409   9.299 -0.4236  0.6551 -0.5319
23285SOL    HW172487   4.931   3.423   9.326 -0.3965 -1.4712  0.9546
23285SOL    HW272488   5.018   3.332   9.242  0.4842  0.2184 -0.0275
23286SOL     OW72489   3.241   2.669   1.092 -0.0789  0.5303 -0.0733
23286SOL    HW172490   3.251   2.575   1.081  1.7589  0.6634  0.2308
23286SOL    HW272491   3.154   2.680   1.132  0.4670 -1.1833  1.7317
23287SOL     OW72492   9.414  10.346   3.100 -0.1995 -0.2822  0.1692
23287SOL    HW172493   9.509  10.334   3.097 -0.1961 -0.2372  0.1013
23287SOL    HW272494   9.382  10.302   3.021 -0.0969  0.9480 -0.5889
23288SOL     OW72495   2.250   5.198   2.833  0.2555  0.2794 -0.0856
23288SOL    HW172496   2.164   5.185   2.792  0.6203  2.6992 -1.8171
23288SOL    HW272497   2.230   5.230   2.920 -0.5514 -0.8723  0.1906
23289SOL     OW72498   9.019   3.875   3.061  0.5564  0.2824 -0.4513
23289SOL    HW172499   9.029   3.938   3.132  0.7976 -0.8364  0.5341
23289SOL    HW272500   9.070   3.799   3.089 -1.2928 -1.1086 -0.6959
23290SOL     OW72501   1.647   8.577   1.227  0.3862 -0.0237  0.2675
23290SOL    HW172502   1.658   8.636   1.302  1.8297 -0.1672  0.1837
23290SOL    HW272503   1.552   8.562   1.224 -0.1330  2.6852 -0.0143
23291SOL     OW72504   5.633   3.918   1.866 -0.4915  0.4829 -0.0508
23291SOL    HW172505   5.670   3.881   1.786  1.2017  1.1561  0.3705
23291SOL    HW272506   5.558   3.969   1.836 -0.9609 -0.7132 -0.9819
23292SOL     OW72507   9.718   0.708   7.647  0.4749 -0.5027  0.4203
23292SOL    HW172508   9.768   0.715   7.566  1.6564 -0.3185  1.1565
23292SOL    HW272509   9.782   0.686   7.714 -0.0355  1.8965  1.8083
23293SOL     OW72510   3.348   1.062   9.089  0.2179  0.1584 -0.4630
23293SOL    HW172511   3.439   1.034   9.072  0.2210  1.2305 -2.5667
23293SOL    HW272512   3.356   1.151   9.122  0.0074 -0.7990  2.5028
23294SOL     OW72513   9.659   5.879   1.783 -0.1195 -0.2768 -0.4655
23294SOL    HW172514   9.641   5.914   1.696  1.3496  0.1181 -0.6442
23294SOL    HW272515   9.700   5.794   1.766  0.3298 -0.1221 -0.1786
23295SOL     OW72516   7.776   8.317   6.456 -0.1130  0.0544 -0.3754
23295SOL    HW172517   7.746   8.289   6.542  1.0206 -0.4437 -0.1144
23295SOL    HW272518   7.770   8.413   6.458  0.6550  0.0985  0.5607
23296SOL     OW72519   2.139  10.349   6.470  0.6348 -0.1716  0.1638
23296SOL    HW172520   2.177  10.291   6.535  1.2628 -2.4522 -2.0718
23296SOL    HW272521   2.046  10.326   6.468  0.7248 -0.5248 -0.1204
23297SOL     OW72522   9.075   0.319   5.519 -0.1247  0.0641 -0.3039
23297SOL    HW172523   8.980   0.307   5.513 -0.3444 -0.0275  2.3150
23297SOL    HW272524   9.111   0.231   5.520  0.0341  0.0983 -1.2391
23298SOL     OW72525   9.328   8.015   1.518 -0.0704  0.2683  0.3043
23298SOL    HW172526   9.373   8.073   1.457 -0.4684 -0.6677 -0.8982
23298SOL    HW272527   9.359   7.927   1.495 -3.3815 -0.5976 -1.4436
23299SOL     OW72528   0.596   8.756   7.774 -0.5483 -0.6548 -0.0138
23299SOL    HW172529   0.646   8.685   7.813  0.1835  0.1964  0.6426
23299SOL    HW272530   0.635   8.836   7.810 -2.0790  0.0537  0.1560
23300SOL     OW72531   5.384   4.598   3.167  0.0021 -0.2435  0.0330
23300SOL    HW172532   5.440   4.624   3.094 -0.8998 -0.6768 -0.8283
23300SOL    HW272533   5.345   4.680   3.198  0.0361 -0.1097 -0.2741
23301SOL     OW72534   2.419   5.593   7.289 -0.0901  0.4376 -0.4136
23301SOL    HW172535   2.331   5.595   7.325  0.2733 -0.6834  0.5800
23301SOL    HW272536   2.416   5.524   7.223  0.6343 -1.3058  1.3054
23302SOL     OW72537   2.078   5.073   6.706 -0.1380 -0.8864  0.4174
23302SOL    HW172538   2.045   5.029   6.785  1.5729  0.3888  1.9365
23302SOL    HW272539   2.093   5.163   6.734 -0.3557 -0.1488 -1.6711
23303SOL     OW72540   3.645   1.644   4.009  0.5527 -0.1715 -0.1482
23303SOL    HW172541   3.589   1.647   4.087 -0.3821 -0.5326 -0.7865
23303SOL    HW272542   3.729   1.678   4.039 -0.6951  2.8987  0.2670
23304SOL     OW72543   9.288   0.640   5.607  0.3980 -0.1458  0.0373
23304SOL    HW172544   9.367   0.593   5.633  0.9250  0.1921 -0.9011
23304SOL    HW272545   9.273   0.614   5.516 -0.7704 -0.4642  0.3014
23305SOL     OW72546   5.338   2.602   7.071  0.2544  0.0948 -0.3064
23305SOL    HW172547   5.319   2.555   6.990 -1.0836 -1.8995  1.0932
23305SOL    HW272548   5.419   2.562   7.103  0.2445  0.1932 -0.1573
23306SOL     OW72549   4.585   7.992   4.773  0.6514 -0.1015  0.0252
23306SOL    HW172550   4.574   7.900   4.748  1.6536 -0.0186 -0.7881
23306SOL    HW272551   4.496   8.023   4.791  0.2877 -1.1745  0.1304
23307SOL     OW72552   8.909   0.531   1.150  0.0378 -0.5457 -0.3438
23307SOL    HW172553   8.996   0.568   1.133 -0.7708  1.8588  0.2466
23307SOL    HW272554   8.865   0.533   1.065  0.7993 -2.6628 -0.8476
23308SOL     OW72555   2.515   8.925   4.626  0.1112 -0.0618 -0.0725
23308SOL    HW172556   2.445   8.987   4.645 -0.4656 -0.6355 -0.2565
23308SOL    HW272557   2.527   8.931   4.531  1.3993  1.1472  0.1351
23309SOL     OW72558   1.201   3.323   3.782  0.0429 -0.2671 -0.1836
23309SOL    HW172559   1.220   3.406   3.740  0.1718 -0.8220 -1.2726
23309SOL    HW272560   1.271   3.311   3.846  1.4233 -0.6702 -1.7280
23310SOL     OW72561   5.036   1.013   1.140 -0.0930 -0.0387 -0.1035
23310SOL    HW172562   5.001   0.961   1.067  0.1934 -0.7442  0.2499
23310SOL    HW272563   5.112   1.057   1.103 -1.1981  1.3449 -0.8196
23311SOL     OW72564   6.172   5.621   4.316 -0.1057  0.0099  0.4474
23311SOL    HW172565   6.123   5.663   4.387  0.1242  0.3227  0.4222
23311SOL    HW272566   6.113   5.626   4.240 -0.1249  0.1848  0.4726
23312SOL     OW72567   0.940   5.346  10.166 -0.6005  0.6087  0.2074
23312SOL    HW172568   1.011   5.304  10.214 -1.3299 -0.5432  0.3183
23312SOL    HW272569   0.984   5.395  10.096  0.2962 -0.2224  0.1683
23313SOL     OW72570   8.152   3.263  10.103  0.2623 -0.2256  0.0047
23313SOL    HW172571   8.214   3.287  10.171  0.3032 -0.8679  0.2031
23313SOL    HW272572   8.153   3.337  10.042  2.3314 -0.8022 -0.7776
23314SOL     OW72573   6.799   6.860   1.705  0.5109 -0.3333  0.5787
23314SOL    HW172574   6.807   6.929   1.639 -2.3161 -0.1663  0.3212
23314SOL    HW272575   6.785   6.780   1.655  1.2095 -0.7053  0.9506
23315SOL     OW72576   6.267   8.213   3.823 -0.0877 -0.2886  0.3080
23315SOL    HW172577   6.186   8.263   3.831  0.0702 -0.1367  1.0253
23315SOL    HW272578   6.247   8.146   3.758 -0.0716  1.1422 -1.2287
23316SOL     OW72579   3.119   7.930   0.415  0.0140 -0.0342  0.7987
23316SOL    HW172580   3.066   7.896   0.343  2.0553  1.1864 -1.4156
23316SOL    HW272581   3.059   7.987   0.464 -1.5712 -1.3451  0.4532
23317SOL     OW72582   1.203   8.060   4.524  0.3589  0.1809  0.4278
23317SOL    HW172583   1.290   8.099   4.528  0.4933 -0.1073  0.3638
23317SOL    HW272584   1.157   8.111   4.457  0.6316  0.0360  0.1250
23318SOL     OW72585   0.979   0.061   2.678 -0.1793  0.2504 -0.5603
23318SOL    HW172586   1.045   0.127   2.657  1.0728 -0.2076  1.6410
23318SOL    HW272587   1.004  -0.015   2.625  1.9546 -0.3515  1.1310
23319SOL     OW72588   3.604   6.514   8.339  1.3129  0.3957  0.1801
23319SOL    HW172589   3.537   6.473   8.394  1.5341  0.5980  0.6145
23319SOL    HW272590   3.584   6.608   8.343  0.5764  0.3212 -1.1245
23320SOL     OW72591   9.742   1.702   8.885  0.3275 -0.1849  0.0003
23320SOL    HW172592   9.790   1.780   8.861  0.4207 -0.1326  0.3521
23320SOL    HW272593   9.727   1.656   8.802  1.7936 -0.6759 -0.0213
23321SOL     OW72594   1.754   2.010   8.450  0.2003 -0.1459  0.6085
23321SOL    HW172595   1.707   2.094   8.451  0.7093  0.1880 -1.1808
23321SOL    HW272596   1.843   2.033   8.477  0.4862 -0.0004 -0.4358
23322SOL     OW72597  10.051   4.794   4.453 -0.3774  0.3253 -0.5000
23322SOL    HW172598  10.058   4.784   4.358 -1.9835 -1.5229 -0.4963
23322SOL    HW272599  10.075   4.708   4.488  0.7137  1.1204  0.8434
23323SOL     OW72600   5.550   9.317   5.130 -0.3444 -0.2725  0.5601
23323SOL    HW172601   5.583   9.328   5.041 -1.1270  0.3519  0.3465
23323SOL    HW272602   5.459   9.343   5.126  0.3037  2.6304  2.1553
23324SOL     OW72603   2.504   4.588   8.440 -0.4965  0.6364  0.5885
23324SOL    HW172604   2.557   4.538   8.503 -1.1604  0.6897  1.1984
23324SOL    HW272605   2.531   4.554   8.355 -0.1226  0.0315  0.9358
23325SOL     OW72606   5.564   1.644   5.788 -0.3274 -0.1002 -1.3406
23325SOL    HW172607   5.470   1.652   5.772 -0.5293 -0.2280 -0.3083
23325SOL    HW272608   5.570   1.594   5.869  0.5004  3.1314  0.7909
23326SOL     OW72609   6.187   4.850   5.320  0.2655 -0.0208  0.4206
23326SOL    HW172610   6.166   4.932   5.365  0.8235  0.8801 -0.8901
23326SOL    HW272611   6.168   4.868   5.228  0.2991 -1.4069  0.1240
23327SOL     OW72612   9.582   2.908   1.979 -0.0414  0.9857 -0.5903
23327SOL    HW172613   9.563   2.867   2.064  1.1464  0.0162 -0.7721
23327SOL    HW272614   9.617   2.994   2.002 -0.0091  0.8491 -0.1022
23328SOL     OW72615   7.371   5.684   1.111 -0.7790  0.2589 -0.1415
23328SOL    HW172616   7.453   5.718   1.076  0.3458  1.5299  3.3313
23328SOL    HW272617   7.336   5.630   1.040  3.1148 -0.5244 -1.7467
23329SOL     OW72618   8.529   1.012   9.541 -0.3169  0.3829  0.0506
23329SOL    HW172619   8.576   0.963   9.473 -1.3422  2.2602 -2.1323
23329SOL    HW272620   8.591   1.079   9.569 -0.9458  1.6246 -1.4146
23330SOL     OW72621   2.800   9.613   1.859 -0.2458  0.9382 -0.5337
23330SOL    HW172622   2.713   9.632   1.823  0.2868 -0.1582 -2.5321
23330SOL    HW272623   2.852   9.690   1.838 -0.2112  0.7373 -1.1961
23331SOL     OW72624   4.528   4.512   1.927 -0.7197  0.1962  0.9627
23331SOL    HW172625   4.495   4.475   1.845  0.3226 -1.3684  1.2084
23331SOL    HW272626   4.558   4.600   1.903 -0.7175 -0.1230 -0.2731
23332SOL     OW72627   4.366   7.611   3.271  0.2371 -0.4415 -0.2146
23332SOL    HW172628   4.342   7.680   3.332 -0.2438 -2.0306  1.4865
23332SOL    HW272629   4.287   7.558   3.262  0.8605 -1.3121 -0.7410
23333SOL     OW72630   5.128   2.513   9.314  0.0123 -0.1326  0.0918
23333SOL    HW172631   5.146   2.451   9.244  2.2049  0.5010  0.0280
23333SOL    HW272632   5.076   2.582   9.273 -0.4010 -0.7325 -0.4046
23334SOL     OW72633   1.923   7.133   2.712 -0.3133  0.4241  0.1098
23334SOL    HW172634   2.006   7.086   2.708 -0.9167 -0.5860 -0.9288
23334SOL    HW272635   1.908   7.145   2.806  0.3546 -0.5487  0.3602
23335SOL     OW72636   1.684  10.305   7.802 -0.3023 -0.4827 -0.2515
23335SOL    HW172637   1.606  10.357   7.820 -0.7646 -1.3163  0.2213
23335SOL    HW272638   1.650  10.217   7.784  0.4700 -0.6672 -0.8756
23336SOL     OW72639   8.244   6.863   8.115  0.3507  0.9541  0.3290
23336SOL    HW172640   8.220   6.954   8.129 -1.2545  0.3783  1.7755
23336SOL    HW272641   8.161   6.819   8.097  1.0834 -0.2312 -0.2628
23337SOL     OW72642   6.570   8.082   7.434 -0.5077 -0.4531  0.4112
23337SOL    HW172643   6.657   8.080   7.394 -0.2354  2.0716  0.6935
23337SOL    HW272644   6.586   8.087   7.528 -0.9751 -0.7607  0.5120
23338SOL     OW72645   2.210   9.278   5.668 -0.2887  0.1759 -0.0228
23338SOL    HW172646   2.129   9.285   5.717 -0.4947 -1.5415 -0.0467
23338SOL    HW272647   2.183   9.252   5.580  0.2942 -2.3622  0.4518
23339SOL     OW72648   2.164   4.469   7.879  0.2460  0.0617  0.3042
23339SOL    HW172649   2.230   4.403   7.856  0.6194  0.0054  1.4926
23339SOL    HW272650   2.173   4.481   7.973 -0.4365  1.1606  0.2519
23340SOL     OW72651   9.661   2.328   2.609  0.2411  0.4221  0.4755
23340SOL    HW172652   9.613   2.384   2.548 -0.1088 -0.0340  0.3262
23340SOL    HW272653   9.737   2.380   2.635 -0.0955  0.9748  0.3617
23341SOL     OW72654   1.709   7.676   0.138 -0.5265 -0.1146 -0.2404
23341SOL    HW172655   1.687   7.767   0.159 -1.4709 -0.2446 -0.5941
23341SOL    HW272656   1.785   7.682   0.081 -0.0282  0.4082  0.4606
23342SOL     OW72657   7.743   5.762   0.745 -0.2119 -0.7142 -0.2995
23342SOL    HW172658   7.681   5.819   0.700 -2.1895 -0.2612  2.7127
23342SOL    HW272659   7.771   5.699   0.678 -0.4875  1.7306 -2.8835
23343SOL     OW72660   2.862   4.189   8.871 -0.1426 -0.0606 -0.4943
23343SOL    HW172661   2.831   4.268   8.914 -2.1937 -1.7253  1.3237
23343SOL    HW272662   2.862   4.210   8.778 -0.8894  1.9654 -0.0898
23344SOL     OW72663   3.138   0.169   4.120  0.6791  0.1372  0.5480
23344SOL    HW172664   3.219   0.215   4.144 -0.2401  1.2123  1.8090
23344SOL    HW272665   3.138   0.091   4.175  0.4651  0.5780  1.1861
23345SOL     OW72666   0.965   4.178   9.393 -0.2095  0.0982 -0.1560
23345SOL    HW172667   0.952   4.250   9.331 -1.1559 -0.7190 -0.9568
23345SOL    HW272668   0.904   4.110   9.363  1.3270 -1.4115 -0.0244
23346SOL     OW72669   8.065   8.194   0.195  0.2530  0.5542 -0.4502
23346SOL    HW172670   7.986   8.237   0.228 -0.0760 -0.1035 -0.3691
23346SOL    HW272671   8.137   8.243   0.234 -0.1234  0.5792  0.2167
23347SOL     OW72672   4.997  10.320   6.499  0.3945  0.3879 -0.3052
23347SOL    HW172673   5.063  10.381   6.466 -1.2458  1.1238 -2.4941
23347SOL    HW272674   5.047  10.243   6.526  2.1492  0.7652 -2.1843
23348SOL     OW72675   2.118   1.227   3.226 -0.2849 -1.0326  0.2733
23348SOL    HW172676   2.159   1.253   3.308 -1.9990  0.2197  0.7810
23348SOL    HW272677   2.149   1.291   3.162  0.1303 -1.3234  0.1705
23349SOL     OW72678   7.243   2.296   6.691 -0.0350  0.4833 -0.4745
23349SOL    HW172679   7.315   2.346   6.653 -0.4052  1.4398  0.0474
23349SOL    HW272680   7.187   2.273   6.617  0.4930  0.2348 -0.8047
23350SOL     OW72681   5.584   2.823   7.926  0.6831  0.3869  0.4989
23350SOL    HW172682   5.500   2.852   7.961 -0.3187 -3.1159  1.4098
23350SOL    HW272683   5.649   2.854   7.989 -0.4257 -0.4261  2.0934
23351SOL     OW72684   3.521   0.130   8.532  0.6917 -0.2628  0.3361
23351SOL    HW172685   3.475   0.089   8.605  0.2882 -0.1047  0.1719
23351SOL    HW272686   3.569   0.058   8.490 -0.4634 -0.6908 -0.2931
23352SOL     OW72687   4.656   6.697   5.632 -0.4675 -0.1919 -0.3398
23352SOL    HW172688   4.644   6.675   5.725  1.3303  3.1672  0.8711
23352SOL    HW272689   4.575   6.669   5.590 -1.3337 -1.8618  2.2028
23353SOL     OW72690   2.567   1.417   0.806  0.2844  0.4921 -0.3871
23353SOL    HW172691   2.662   1.421   0.795  0.4629 -0.2165  0.7997
23353SOL    HW272692   2.533   1.410   0.716  1.4566 -1.1682 -0.7513
23354SOL     OW72693   4.577   5.696   6.899  0.1768 -0.0574 -0.3230
23354SOL    HW172694   4.657   5.644   6.900 -0.8827 -1.8085  2.0639
23354SOL    HW272695   4.518   5.647   6.842  0.1616  0.1719 -0.5048
23355SOL     OW72696   7.526   8.615   8.387 -0.2379 -1.0097  0.7644
23355SOL    HW172697   7.558   8.663   8.464  2.0057 -0.1046 -0.6643
23355SOL    HW272698   7.498   8.683   8.326  0.9430 -1.5515 -0.4348
23356SOL     OW72699   7.508   8.697   3.746  0.0119 -0.4417 -0.6220
23356SOL    HW172700   7.440   8.764   3.759 -0.6322 -0.7141 -2.3088
23356SOL    HW272701   7.590   8.745   3.751 -0.2264 -0.1572  1.8152
23357SOL     OW72702   6.373   9.834  10.197 -0.3902 -0.0668  0.2103
23357SOL    HW172703   6.365   9.792  10.111  0.1000 -0.0531  0.1554
23357SOL    HW272704   6.459   9.877  10.195 -1.2968  1.8416 -0.1382
23358SOL     OW72705   4.960   0.107   1.262 -0.6220  0.3756 -0.6056
23358SOL    HW172706   4.871   0.141   1.254 -0.2647  3.3007  3.9520
23358SOL    HW272707   4.961   0.062   1.347  1.7411 -1.7314 -1.6159
23359SOL     OW72708   0.123   9.589   1.281  0.2336  0.5766  0.3760
23359SOL    HW172709   0.122   9.495   1.294  0.4568  0.8453  2.9745
23359SOL    HW272710   0.186   9.603   1.210  1.7631 -1.1360  1.2917
23360SOL     OW72711   2.989   5.629   8.316 -0.2420 -0.2981  0.1687
23360SOL    HW172712   2.952   5.638   8.404 -0.7668 -0.5892 -0.0219
23360SOL    HW272713   3.015   5.537   8.311  0.8729 -0.0218  0.4366
23361SOL     OW72714   0.524   4.472   4.562  0.0421 -0.1462 -0.3169
23361SOL    HW172715   0.549   4.425   4.641 -1.9883  0.1371  0.5533
23361SOL    HW272716   0.556   4.417   4.490 -0.2206 -1.6829  0.6953
23362SOL     OW72717   7.302   0.959   6.135 -0.2911  0.5648  0.2172
23362SOL    HW172718   7.315   0.959   6.040 -1.6322 -1.9522 -0.0625
23362SOL    HW272719   7.236   1.027   6.150  0.6550  1.6694 -0.4914
23363SOL     OW72720   6.652   1.213   4.804  0.4675 -0.3956 -0.1305
23363SOL    HW172721   6.678   1.295   4.760 -2.4588 -0.2711 -1.8819
23363SOL    HW272722   6.617   1.242   4.888  0.7232 -0.0177 -0.1473
23364SOL     OW72723   8.725   3.203   4.176 -0.0836 -0.8136 -1.0272
23364SOL    HW172724   8.752   3.156   4.097  1.6350 -0.6670 -0.5682
23364SOL    HW272725   8.777   3.283   4.175 -0.6414 -0.4250 -0.1659
23365SOL     OW72726   6.271   8.956   9.422 -0.6217 -0.0524 -0.4019
23365SOL    HW172727   6.258   8.862   9.436  1.7578 -0.7595 -2.2973
23365SOL    HW272728   6.273   8.966   9.326  0.9909  1.6033 -0.2508
23366SOL     OW72729   3.567   1.543   8.639 -0.5311 -0.0142 -0.3584
23366SOL    HW172730   3.657   1.521   8.615  0.0247  0.4328  1.1957
23366SOL    HW272731   3.575   1.618   8.698 -1.8120 -0.7203  0.7826
23367SOL     OW72732   9.520   4.662   5.455 -0.7181  0.3905 -0.4042
23367SOL    HW172733   9.613   4.668   5.432 -0.4759  2.7882  0.8521
23367SOL    HW272734   9.520   4.662   5.551 -2.0441  1.4473 -0.3853
23368SOL     OW72735   5.496   8.412   6.130 -0.4358  0.7356 -0.0313
23368SOL    HW172736   5.401   8.422   6.127 -0.4290  1.0210  0.5691
23368SOL    HW272737   5.517   8.412   6.223  0.0971  0.0919 -0.1448
23369SOL     OW72738   6.228   0.366   4.522 -0.2315  0.0429 -0.3385
23369SOL    HW172739   6.264   0.454   4.511 -0.4810 -0.0402 -2.0264
23369SOL    HW272740   6.135   0.376   4.504 -0.6472 -0.2310  1.4375
23370SOL     OW72741   5.829   2.951   5.596 -0.2947  0.1514 -0.2965
23370SOL    HW172742   5.818   2.862   5.631 -0.6672  0.1651 -0.3689
23370SOL    HW272743   5.897   2.942   5.529  0.2609  0.0827  0.2704
23371SOL     OW72744   6.741   7.000   3.064  0.6159  0.5892  0.2119
23371SOL    HW172745   6.747   6.905   3.073 -0.3016  0.0461 -3.2558
23371SOL    HW272746   6.831   7.028   3.047  0.7280  0.1526  0.0731
23372SOL     OW72747   0.094  10.001   8.962 -0.2921 -0.4648 -0.0473
23372SOL    HW172748   0.065  10.088   8.934 -0.9486 -1.0353 -1.2011
23372SOL    HW272749   0.165  10.018   9.025 -0.3747  0.8953 -0.3011
23373SOL     OW72750   7.335   0.359   5.169 -0.2565 -0.0971  0.6261
23373SOL    HW172751   7.249   0.397   5.152  0.0707  0.2444 -0.3371
23373SOL    HW272752   7.378   0.423   5.227 -0.4083  0.0519  0.5754
23374SOL     OW72753   5.184   1.185   1.969  0.0983 -0.2417  0.4785
23374SOL    HW172754   5.188   1.171   2.063  0.9186 -2.0116  0.2114
23374SOL    HW272755   5.229   1.269   1.955 -0.0486  0.0412  1.6388
23375SOL     OW72756   4.521   1.181   6.349  0.3689 -0.0200  0.0862
23375SOL    HW172757   4.605   1.139   6.368  1.1769  1.7202  0.5037
23375SOL    HW272758   4.492   1.138   6.268  1.4512 -0.9501  0.1581
23376SOL     OW72759   9.314   3.089   6.643 -0.1521  0.0499 -0.2013
23376SOL    HW172760   9.367   3.114   6.568  0.7661 -0.6506  0.2035
23376SOL    HW272761   9.273   3.171   6.672  1.5689  0.8287  0.1568
23377SOL     OW72762   9.152  10.028   1.641 -0.4169 -0.4406  0.2803
23377SOL    HW172763   9.221  10.038   1.706 -1.3350 -0.6629  1.3227
23377SOL    HW272764   9.183  10.077   1.565 -0.6110  2.4282  1.9103
23378SOL     OW72765   0.954   1.759   9.713 -0.2271  0.3302 -0.1641
23378SOL    HW172766   1.041   1.731   9.686 -0.4343  0.9932 -1.6065
23378SOL    HW272767   0.932   1.830   9.653 -1.2761  0.9868  0.9535
23379SOL     OW72768   5.162   3.009   3.652 -0.1107 -0.0735  0.2705
23379SOL    HW172769   5.232   3.066   3.682  0.0666  0.9487 -1.8642
23379SOL    HW272770   5.160   2.937   3.714  2.1766  0.3770  0.9256
23380SOL     OW72771   2.810   0.584   4.662 -0.3796 -0.6225  0.2036
23380SOL    HW172772   2.859   0.620   4.736 -0.4081  1.0069 -0.5178
23380SOL    HW272773   2.724   0.564   4.698  0.1039 -1.3896  0.9681
23381SOL     OW72774   3.627   9.286  10.002 -0.3390  0.1106  0.4714
23381SOL    HW172775   3.604   9.198  10.032  1.5126 -0.0857  1.4680
23381SOL    HW272776   3.551   9.339  10.023 -0.8773 -0.9532  1.3105
23382SOL     OW72777   0.449   7.390   3.549  0.5563  0.0366 -0.2446
23382SOL    HW172778   0.407   7.376   3.634 -0.5202  0.1823 -0.7329
23382SOL    HW272779   0.439   7.307   3.503  0.5718  0.1585 -0.4698
23383SOL     OW72780   7.630   2.082   8.230 -0.9435 -0.8851  0.0483
23383SOL    HW172781   7.594   2.167   8.204  1.8898  0.2862 -0.4162
23383SOL    HW272782   7.664   2.044   8.148  1.8433 -0.3235  0.8205
23384SOL     OW72783   6.930   4.336   0.740  0.3821 -0.2855 -0.2085
23384SOL    HW172784   7.015   4.369   0.710  0.1736  1.1584  0.6802
23384SOL    HW272785   6.904   4.396   0.810 -1.2115 -0.9137 -0.2115
23385SOL     OW72786   0.696   9.479   3.863  0.2818  0.1974 -0.0021
23385SOL    HW172787   0.602   9.463   3.856  0.0552  1.1706  0.5794
23385SOL    HW272788   0.733   9.448   3.780 -0.2440 -2.1323  0.5693
23386SOL     OW72789   2.484   8.851   9.429 -0.2362 -0.2297  0.0592
23386SOL    HW172790   2.457   8.829   9.340 -2.1881 -3.0154  1.1979
23386SOL    HW272791   2.579   8.845   9.428 -0.0170  1.8805 -2.2387
23387SOL     OW72792   8.385   8.149   0.006  0.3323  0.3290 -0.1459
23387SOL    HW172793   8.376   8.235   0.047 -0.5833 -0.2163  0.8484
23387SOL    HW272794   8.329   8.092   0.058  0.9672 -0.8899 -0.7642
23388SOL     OW72795   3.317   2.956   3.417  0.1970 -0.7662  0.4147
23388SOL    HW172796   3.382   2.964   3.347 -0.1941 -0.0496  0.1206
23388SOL    HW272797   3.233   2.968   3.373 -0.0894 -0.9013  0.9152
23389SOL     OW72798   5.196   4.158   3.654 -0.1341 -0.0937 -0.0136
23389SOL    HW172799   5.225   4.166   3.745  1.6615 -0.0934 -0.5433
23389SOL    HW272800   5.206   4.246   3.617  0.5995 -0.4114 -0.5958
23390SOL     OW72801   2.674   3.846   6.650 -0.8817 -0.1093  0.6710
23390SOL    HW172802   2.655   3.938   6.668 -1.1494  0.1138 -0.6367
23390SOL    HW272803   2.769   3.838   6.664 -0.4801  0.8815 -1.1280
23391SOL     OW72804   1.376   4.383   1.159 -0.3716 -0.1678  0.2736
23391SOL    HW172805   1.289   4.348   1.142 -0.4053  0.4888 -0.9946
23391SOL    HW272806   1.430   4.348   1.088  1.3939 -3.7909  3.0791
23392SOL     OW72807   3.064   9.770   8.249  0.0021  0.0482  0.0832
23392SOL    HW172808   3.110   9.844   8.289  0.1826  0.7990 -1.4259
23392SOL    HW272809   2.971   9.790   8.262  0.0537  0.4619 -0.1637
23393SOL     OW72810   1.113   7.036   1.140  0.6142  0.3847  0.2687
23393SOL    HW172811   1.075   7.124   1.143  0.9115  0.4896  2.0162
23393SOL    HW272812   1.121   7.010   1.231 -3.9043 -3.4532 -0.0652
23394SOL     OW72813   4.637   0.069   6.418  0.0827 -0.4203  0.1358
23394SOL    HW172814   4.634   0.009   6.344  2.9866 -0.4621 -0.0636
23394SOL    HW272815   4.627   0.014   6.495 -1.4125 -0.5724 -0.1429
23395SOL     OW72816   4.584   2.104   8.263  0.3258 -0.3405  0.5911
23395SOL    HW172817   4.674   2.088   8.234  0.7334 -0.5618  1.9060
23395SOL    HW272818   4.539   2.021   8.252  0.3585 -0.3075  0.2048
23396SOL     OW72819   3.096   0.137  10.068 -0.3868 -0.1080  0.7186
23396SOL    HW172820   3.180   0.106  10.033 -1.2399  0.0745 -1.6895
23396SOL    HW272821   3.054   0.059  10.103  0.6443 -0.2449  1.7286
23397SOL     OW72822   7.842   8.597   8.090 -0.3852 -0.3668  0.0728
23397SOL    HW172823   7.867   8.523   8.035  2.0910 -1.7294  2.7860
23397SOL    HW272824   7.895   8.670   8.057  1.0807 -1.1660  0.5902
23398SOL     OW72825   1.922   8.672   2.038 -0.0509  0.1785 -0.3801
23398SOL    HW172826   1.946   8.762   2.058  0.2010 -0.1263  0.7770
23398SOL    HW272827   1.832   8.678   2.004 -0.3677  0.7794  0.5400
23399SOL     OW72828   8.606   6.119   1.548 -0.4721 -0.0440 -0.0418
23399SOL    HW172829   8.601   6.208   1.515  0.0576 -0.9266 -2.8418
23399SOL    HW272830   8.696   6.110   1.579 -0.7385  0.5863  0.9361
23400SOL     OW72831   4.234   6.800   4.799  0.6249 -0.2849  0.5833
23400SOL    HW172832   4.163   6.856   4.767  0.0567 -0.9666  0.6268
23400SOL    HW272833   4.239   6.819   4.892 -0.2796 -1.0552  0.8063
23401SOL     OW72834   7.733   6.344   2.024  0.1473 -0.0487 -0.1604
23401SOL    HW172835   7.765   6.369   1.937  0.3309  1.6379  0.3663
23401SOL    HW272836   7.734   6.425   2.075  2.0191 -1.3461  2.0656
23402SOL     OW72837   8.818   7.544   4.400 -0.1815  0.0371 -0.2000
23402SOL    HW172838   8.895   7.489   4.417 -0.9109 -1.1308 -0.5885
23402SOL    HW272839   8.803   7.590   4.482  0.1658 -0.6993  0.2896
23403SOL     OW72840   5.308   5.991   6.134  0.1918  0.2258  0.5061
23403SOL    HW172841   5.387   6.042   6.151  0.1760  0.5840 -0.4260
23403SOL    HW272842   5.237   6.044   6.173  0.0437  1.4852 -1.3335
23404SOL     OW72843   2.179   2.063   2.701  0.2233 -0.0180 -1.0244
23404SOL    HW172844   2.169   2.108   2.785  0.9008 -1.1164 -0.3246
23404SOL    HW272845   2.213   2.130   2.642  2.7528  0.0755  0.3888
23405SOL     OW72846   3.023   5.166   9.973 -0.6943  0.1575 -0.0012
23405SOL    HW172847   3.018   5.237   9.909 -0.3447 -0.1089 -0.3310
23405SOL    HW272848   3.062   5.206  10.051 -2.2995  0.7976  0.5084
23406SOL     OW72849   7.733   1.683   1.967  0.9554  0.5674 -0.1800
23406SOL    HW172850   7.759   1.765   1.925  0.7018  0.6213 -0.2369
23406SOL    HW272851   7.770   1.688   2.055  2.2681  0.0525 -0.6838
23407SOL     OW72852   4.084   4.886   1.951 -0.9272 -0.4496 -0.0331
23407SOL    HW172853   4.042   4.864   2.034 -0.9482  0.0273  0.0896
23407SOL    HW272854   4.136   4.809   1.929 -1.4132 -0.8226  0.1043
23408SOL     OW72855   5.454   8.801   4.815 -0.2218 -0.1839  0.1389
23408SOL    HW172856   5.481   8.725   4.866  0.6613  0.5747  0.8346
23408SOL    HW272857   5.494   8.876   4.859  0.4760  0.5283 -1.5810
23409SOL     OW72858   2.861   9.364   3.248  0.0847 -0.5597 -0.0677
23409SOL    HW172859   2.784   9.399   3.294  0.8180  0.3764  0.4663
23409SOL    HW272860   2.847   9.269   3.247 -0.9875 -0.4195  0.1786
23410SOL     OW72861   8.458  10.079   6.816 -0.2238 -0.0125  0.0440
23410SOL    HW172862   8.516  10.097   6.741  0.2857  1.5511  0.7550
23410SOL    HW272863   8.503  10.011   6.866  0.5295  0.4892  0.0632
23411SOL     OW72864   2.418   8.236   5.835  0.1290 -0.2787 -0.0133
23411SOL    HW172865   2.511   8.259   5.832  0.2329 -0.6995 -0.1730
23411SOL    HW272866   2.417   8.142   5.817 -0.3052 -0.3326  0.2972
23412SOL     OW72867   3.720   1.432   6.000  0.0952 -0.3488 -0.0060
23412SOL    HW172868   3.674   1.516   5.995  0.9019  0.1961  1.2216
23412SOL    HW272869   3.682   1.388   6.076 -0.7358 -1.3801 -0.9891
23413SOL     OW72870   7.650   5.713  10.272 -0.1239  0.7477  0.4554
23413SOL    HW172871   7.738   5.732  10.242  0.3947  0.6012  1.8192
23413SOL    HW272872   7.599   5.792  10.250  0.6949  1.4423  0.9849
23414SOL     OW72873   8.939   8.440   9.931  0.4032  0.0974  0.2196
23414SOL    HW172874   8.857   8.408   9.969  0.0922  2.1614  1.4446
23414SOL    HW272875   8.914   8.473   9.845 -0.6079  2.7736  1.4417
23415SOL     OW72876   4.065   2.476   3.392  0.2795 -0.1768 -0.0826
23415SOL    HW172877   4.009   2.520   3.328  0.1251  0.6864  0.6391
23415SOL    HW272878   4.112   2.410   3.340  0.0730  0.4279 -1.0682
23416SOL     OW72879   2.030   1.764   2.186 -0.2144 -0.2534  0.1099
23416SOL    HW172880   1.997   1.770   2.097  3.0189  1.8773 -1.1407
23416SOL    HW272881   2.119   1.728   2.176  1.1214  2.1710  2.0836
23417SOL     OW72882   3.687   0.350   4.718 -0.2976  0.1307  0.7407
23417SOL    HW172883   3.712   0.335   4.627 -0.9715  2.0965  0.1986
23417SOL    HW272884   3.765   0.326   4.768  0.0627 -1.0374 -0.3273
23418SOL     OW72885   8.977   1.110   8.810 -0.0013 -0.4336 -0.0680
23418SOL    HW172886   8.910   1.128   8.876  2.6103 -0.6496  2.8615
23418SOL    HW272887   8.955   1.023   8.777 -2.0897  0.2029 -0.5383
23419SOL     OW72888   8.407   7.494   5.668  0.7982  0.6973  0.2268
23419SOL    HW172889   8.359   7.546   5.604  0.8602  1.5467  0.8579
23419SOL    HW272890   8.492   7.538   5.676  1.1865 -0.0194  0.1078
23420SOL     OW72891   7.322   1.213   3.012  0.1777 -0.5173 -0.1280
23420SOL    HW172892   7.350   1.303   3.030 -1.0689 -0.1110 -0.1082
23420SOL    HW272893   7.351   1.163   3.088  0.2136  0.0174  0.2163
23421SOL     OW72894   3.119   4.809   5.308  0.4224  0.0787  0.3817
23421SOL    HW172895   3.046   4.750   5.292 -0.4758  1.1999  0.1803
23421SOL    HW272896   3.195   4.764   5.270 -0.1261 -1.1528  0.6972
23422SOL     OW72897   7.479   4.933   9.444 -0.0540  0.0283 -0.4072
23422SOL    HW172898   7.535   4.865   9.406 -0.9053 -1.4081  0.8389
23422SOL    HW272899   7.417   4.886   9.499 -2.4007  1.5871 -1.5565
23423SOL     OW72900   6.119   5.373   7.542  0.5495 -0.1644 -0.7928
23423SOL    HW172901   6.093   5.425   7.618  1.7429 -2.0127  0.9670
23423SOL    HW272902   6.206   5.405   7.519  1.1348 -1.0992  0.0671
23424SOL     OW72903   3.536   2.710   7.459  0.5324  0.5535 -0.2040
23424SOL    HW172904   3.505   2.630   7.501  0.5053  0.9088  0.4728
23424SOL    HW272905   3.466   2.736   7.400 -0.8639  1.7498  1.8299
23425SOL     OW72906   7.249   6.639   1.023 -0.1651 -0.6474  0.1075
23425SOL    HW172907   7.317   6.691   1.066 -1.1017  0.0423  0.7781
23425SOL    HW272908   7.259   6.660   0.930  0.3773 -0.3577  0.2248
23426SOL     OW72909   0.547   8.962   9.595  0.2811 -0.4802 -0.2538
23426SOL    HW172910   0.594   8.992   9.673  0.2028  0.4608 -0.5556
23426SOL    HW272911   0.567   8.868   9.589  2.8706  0.0328 -0.8713
23427SOL     OW72912   3.038   9.901   0.867  0.3743 -0.4823 -0.2263
23427SOL    HW172913   3.084   9.938   0.792  0.3515  0.2464  0.1067
23427SOL    HW272914   2.965   9.962   0.882 -2.1006 -2.7049 -2.1164
23428SOL     OW72915   5.203   9.330   1.539 -0.6310 -0.7770  0.6237
23428SOL    HW172916   5.121   9.285   1.519 -0.1503 -1.7463  0.7649
23428SOL    HW272917   5.177   9.418   1.567 -1.6459 -1.1925  1.0083
23429SOL     OW72918   2.005   2.352   9.066 -0.0278 -0.1996  0.0564
23429SOL    HW172919   1.981   2.373   8.976 -0.2342 -2.0641 -0.3703
23429SOL    HW272920   1.924   2.316   9.104 -0.0029  0.7524  1.0651
23430SOL     OW72921   4.465   5.393   0.385 -0.1956 -0.6136  0.4257
23430SOL    HW172922   4.431   5.454   0.450  0.3727 -0.3974  0.5317
23430SOL    HW272923   4.481   5.447   0.308  1.8553 -0.2511  1.0299
23431SOL     OW72924   8.165   9.672   0.583  0.0321 -0.5629 -0.1193
23431SOL    HW172925   8.120   9.608   0.638 -0.3031 -1.3851 -1.3342
23431SOL    HW272926   8.206   9.621   0.514 -0.2430  0.5292 -1.1239
23432SOL     OW72927   8.604   8.288   2.933 -0.2756  0.9576  0.1249
23432SOL    HW172928   8.538   8.251   2.990 -0.0960  0.5524  0.0766
23432SOL    HW272929   8.572   8.272   2.844 -0.1646  0.8529  0.1027
23433SOL     OW72930   6.410   8.785   5.515 -0.6756  0.1059  0.1207
23433SOL    HW172931   6.484   8.835   5.551 -0.4377 -0.1876  0.0493
23433SOL    HW272932   6.408   8.705   5.568 -1.7245  0.6548  0.9455
23434SOL     OW72933   5.589   7.613   6.266  0.2440  0.1171  0.4031
23434SOL    HW172934   5.552   7.701   6.273 -0.1926  0.0114 -0.4919
23434SOL    HW272935   5.678   7.622   6.301  0.0683  0.8177  0.6930
23435SOL     OW72936   1.803  10.066   1.011 -0.8870  0.0608  0.2027
23435SOL    HW172937   1.838  10.127   1.077  1.0583 -0.4848 -0.2759
23435SOL    HW272938   1.807   9.981   1.054  0.0540 -0.2474 -0.4827
23436SOL     OW72939   2.011   5.092   7.563  0.1410  0.4481  0.3073
23436SOL    HW172940   1.943   5.043   7.609  1.2003 -0.9283  0.4676
23436SOL    HW272941   1.963   5.147   7.500 -1.2204  1.0942  1.8427
23437SOL     OW72942   4.659   1.856   0.112  0.0005  0.8354 -0.0728
23437SOL    HW172943   4.680   1.763   0.123 -0.1010  1.0192  2.2271
23437SOL    HW272944   4.718   1.886   0.044  1.5156 -0.4542  0.6142
23438SOL     OW72945   2.647   1.363   6.324  0.3055 -0.6376 -0.1185
23438SOL    HW172946   2.625   1.454   6.344  1.3603 -0.4542  0.2300
23438SOL    HW272947   2.569   1.330   6.279 -1.0771 -0.2837  1.8737
23439SOL     OW72948   5.847   7.759   5.812  0.2088 -0.2894 -0.2950
23439SOL    HW172949   5.840   7.811   5.732  0.8643  1.5171  0.7748
23439SOL    HW272950   5.807   7.813   5.880  1.3811 -0.9355  0.9622
23440SOL     OW72951   8.023   8.570   5.437 -0.0739  0.2804  0.5002
23440SOL    HW172952   8.047   8.659   5.462  2.1399 -0.7212  2.3352
23440SOL    HW272953   8.089   8.544   5.373 -2.8853  1.1169 -3.0465
23441SOL     OW72954   4.418   2.111   9.117  0.1426  0.3349 -0.1655
23441SOL    HW172955   4.487   2.161   9.162 -0.2294  2.3957 -1.7522
23441SOL    HW272956   4.459   2.082   9.036  0.1808 -1.6145  0.4891
23442SOL     OW72957   4.480   9.938   9.433  0.1206 -0.2236 -0.2845
23442SOL    HW172958   4.494   9.952   9.339 -1.1448 -1.5409 -0.7078
23442SOL    HW272959   4.419   9.864   9.437  3.5985 -3.3412  1.6289
23443SOL     OW72960   6.288   9.361   5.333  0.7568  0.0758 -0.0058
23443SOL    HW172961   6.209   9.366   5.279  1.1944  1.4573 -0.5611
23443SOL    HW272962   6.357   9.335   5.272  0.5626 -2.3779  0.7122
23444SOL     OW72963   7.639   0.016   9.159 -0.3685  0.2933  0.0069
23444SOL    HW172964   7.544   0.022   9.169 -0.3483 -0.6982  1.0603
23444SOL    HW272965   7.664  -0.057   9.216  1.2309  1.6132  1.0478
23445SOL     OW72966   3.820   8.563   8.103  0.4452 -0.2590  0.0923
23445SOL    HW172967   3.757   8.625   8.067 -0.3873  0.5545  2.7069
23445SOL    HW272968   3.904   8.610   8.099 -0.1483  1.0697  1.8922
23446SOL     OW72969   7.444   7.641   7.962 -0.2011 -0.0800  0.1845
23446SOL    HW172970   7.441   7.726   8.006 -1.9084 -0.4490  0.8665
23446SOL    HW272971   7.352   7.620   7.944  0.2853 -1.2139 -1.0968
23447SOL     OW72972   9.528   8.589   5.938 -0.4594 -0.4454  0.0532
23447SOL    HW172973   9.501   8.681   5.936 -2.1334 -0.9355 -0.5993
23447SOL    HW272974   9.536   8.569   6.031  1.1061  0.6603  0.2047
23448SOL     OW72975   8.857   7.696   7.884  0.3031 -0.3853  0.0170
23448SOL    HW172976   8.896   7.702   7.971  0.7231  0.8607 -0.2300
23448SOL    HW272977   8.811   7.612   7.884 -0.4638 -0.0201  1.7548
23449SOL     OW72978   0.098   9.516   7.926  0.2143 -0.3829  0.7268
23449SOL    HW172979   0.032   9.585   7.921  1.9792  1.3051 -2.1507
23449SOL    HW272980   0.168   9.552   7.980 -0.0220 -1.0593  1.4997
23450SOL     OW72981   7.701   7.694   6.305  0.6421  0.1475 -0.1687
23450SOL    HW172982   7.779   7.745   6.325  0.8775 -0.7655  1.3598
23450SOL    HW272983   7.735   7.612   6.267  0.5038 -0.6077  1.2811
23451SOL     OW72984   6.725   3.383   0.071 -0.3368 -1.0815  0.0625
23451SOL    HW172985   6.714   3.330   0.149 -1.6978 -0.2275  0.4891
23451SOL    HW272986   6.636   3.414   0.050  0.5000  2.2748  0.7757
23452SOL     OW72987   4.099   5.471   2.254  0.6630 -0.1764  0.0836
23452SOL    HW172988   4.094   5.427   2.169 -1.7661  0.6323 -0.2690
23452SOL    HW272989   4.047   5.416   2.313  1.0638  0.0634  0.6722
23453SOL     OW72990  10.240   4.102   5.591  0.1808  0.0566 -0.2692
23453SOL    HW172991  10.331   4.074   5.578  0.0940 -0.9799  1.1294
23453SOL    HW272992  10.222   4.160   5.517  3.1283  3.2432  1.2372
23454SOL     OW72993   5.271   6.874   2.308  0.6464 -0.2045  0.1557
23454SOL    HW172994   5.359   6.859   2.342  0.3850 -1.5802  0.3011
23454SOL    HW272995   5.269   6.828   2.224 -0.1386 -0.7969  0.4845
23455SOL     OW72996   9.607   2.050   4.594  0.0105  0.0622  0.7307
23455SOL    HW172997   9.668   2.115   4.628  1.6476 -1.3577  0.6327
23455SOL    HW272998   9.660   1.995   4.537 -2.3106  1.5324 -3.2641
23456SOL     OW72999   7.272   5.580   8.896 -0.3277 -0.0165 -0.3637
23456SOL    HW173000   7.306   5.507   8.844 -0.3413  0.5603 -1.2066
23456SOL    HW273001   7.274   5.549   8.986 -0.8530 -1.2727 -0.7572
23457SOL     OW73002   2.697   0.459   0.665  0.6761 -0.4686  0.1890
23457SOL    HW173003   2.729   0.472   0.754  2.6711 -2.7633 -0.0954
23457SOL    HW273004   2.607   0.427   0.675  0.5300  0.2528  1.3025
23458SOL     OW73005   1.929   7.928  10.315 -0.0518 -0.0246 -0.4981
23458SOL    HW173006   1.965   7.977  10.388  0.0365  0.6381 -0.9777
23458SOL    HW273007   1.845   7.970  10.297  0.5114  0.6552 -1.6092
23459SOL     OW73008   2.587   5.524   0.638 -0.3142  0.2682 -0.1360
23459SOL    HW173009   2.532   5.602   0.645  0.3119  0.6395  0.8925
23459SOL    HW273010   2.661   5.551   0.584  0.7457  0.9193  1.5683
23460SOL     OW73011   0.324   0.981   6.745  0.0627 -0.0500 -0.0056
23460SOL    HW173012   0.361   0.928   6.673  0.1116 -0.5759  0.4013
23460SOL    HW273013   0.238   1.008   6.713  1.1554  2.0517 -1.3962
23461SOL     OW73014   7.645   7.555   1.552 -0.5243  0.0523 -0.4431
23461SOL    HW173015   7.626   7.515   1.637  1.4433 -0.9028 -0.4018
23461SOL    HW273016   7.710   7.497   1.512 -1.7038  0.2228 -2.8281
23462SOL     OW73017   7.587   0.519   4.463 -0.0589  0.3712  0.6192
23462SOL    HW173018   7.497   0.543   4.443 -1.4289 -3.5073  1.3613
23462SOL    HW273019   7.628   0.505   4.377 -1.5381 -1.9827  0.2038
23463SOL     OW73020   8.637   6.931   7.899 -0.3954 -0.0780 -0.8143
23463SOL    HW173021   8.601   7.019   7.911 -0.4512 -0.0766 -0.9751
23463SOL    HW273022   8.592   6.877   7.964  1.0727  0.3891  0.6333
23464SOL     OW73023   3.667   2.744   6.647  0.6442 -0.2903  0.4311
23464SOL    HW173024   3.701   2.708   6.728 -0.1696 -0.7233  0.5955
23464SOL    HW273025   3.612   2.818   6.674 -0.4183 -1.0340  0.3704
23465SOL     OW73026   1.489   0.311   0.578 -0.0968 -0.0938 -0.5213
23465SOL    HW173027   1.535   0.391   0.553 -2.0398  1.1978 -0.1938
23465SOL    HW273028   1.441   0.335   0.658  0.4814 -2.0571  0.4839
23466SOL     OW73029   8.550  10.191   3.287  0.9257 -0.4860  0.1469
23466SOL    HW173030   8.480  10.234   3.335  1.9095 -0.0932  1.2666
23466SOL    HW273031   8.561  10.244   3.208 -0.3320 -0.8233 -0.2758
23467SOL     OW73032   4.572   0.455   3.891  0.4548 -0.5260  0.3302
23467SOL    HW173033   4.513   0.524   3.861  1.8744  0.7074  0.2713
23467SOL    HW273034   4.530   0.373   3.863 -1.5332  0.2542  0.8800
23468SOL     OW73035   2.342   4.254   6.745 -0.3371 -0.5004  0.2441
23468SOL    HW173036   2.399   4.317   6.701 -0.2311 -0.4712  0.4190
23468SOL    HW273037   2.295   4.307   6.810 -0.1082 -0.6337  0.5215
23469SOL     OW73038   0.180   4.459   6.184 -0.1283 -0.3489  0.3059
23469SOL    HW173039   0.221   4.533   6.141 -1.7830  0.9200  0.7960
23469SOL    HW273040   0.100   4.495   6.223 -0.4988 -2.1880  1.3837
23470SOL     OW73041  10.046   0.361   9.413 -0.2376  0.3774 -0.2533
23470SOL    HW173042  10.047   0.428   9.481 -2.0094 -1.1081  1.3617
23470SOL    HW273043   9.973   0.385   9.357 -0.7255 -0.0351  0.1911
23471SOL     OW73044   4.941   9.097  10.181 -0.1164 -0.0186 -0.1816
23471SOL    HW173045   4.916   9.005  10.179  1.0746 -0.3487 -0.7170
23471SOL    HW273046   4.895   9.137  10.107  0.4956 -0.5042 -0.8380
23472SOL     OW73047   0.567   9.177   2.269 -0.4370 -0.3795 -0.9157
23472SOL    HW173048   0.573   9.127   2.188 -0.2524 -0.7940 -0.6502
23472SOL    HW273049   0.658   9.197   2.293 -0.4506 -0.8574 -0.4472
23473SOL     OW73050   1.345   3.524   7.509  0.3309  0.0683  0.1039
23473SOL    HW173051   1.406   3.584   7.552  0.4010 -0.1746  0.3442
23473SOL    HW273052   1.317   3.464   7.578  0.6385 -0.4811 -0.2446
23474SOL     OW73053   9.808   1.065   4.813 -0.0934  0.3940 -0.6141
23474SOL    HW173054   9.850   1.102   4.735  1.9561  0.0047  0.2315
23474SOL    HW273055   9.847   0.977   4.820  0.4350  0.7508  1.3087
23475SOL     OW73056   9.007   4.828   5.126  0.4390 -0.1725 -0.1258
23475SOL    HW173057   9.005   4.919   5.099 -0.4217 -0.4048 -0.9045
23475SOL    HW273058   8.916   4.807   5.148  0.5404 -0.9574 -0.4026
23476SOL     OW73059   7.706   1.502   2.774 -0.0846 -0.4701 -0.3840
23476SOL    HW173060   7.667   1.439   2.713  0.3712 -2.1691  1.0052
23476SOL    HW273061   7.702   1.459   2.859  1.5445  0.7922  0.3905
23477SOL     OW73062   9.671   7.590   7.486  0.3657 -0.1377  0.5614
23477SOL    HW173063   9.726   7.528   7.438 -0.2518  0.2883 -0.7186
23477SOL    HW273064   9.690   7.571   7.578  1.0740 -1.4137  0.1820
23478SOL     OW73065   5.564   9.158   8.894 -0.0574 -0.3021 -0.4691
23478SOL    HW173066   5.541   9.251   8.896  0.0184 -0.2989  0.4248
23478SOL    HW273067   5.648   9.155   8.849 -0.5424 -0.0474 -1.4121
23479SOL     OW73068   9.183   7.657  10.066  0.5703 -0.4787  0.1393
23479SOL    HW173069   9.154   7.567  10.052 -1.8760  0.1706  0.5769
23479SOL    HW273070   9.113   7.710  10.029  1.8532  1.2653  0.1048
23480SOL     OW73071   1.594   5.691   6.453 -0.0865  0.0278 -0.2742
23480SOL    HW173072   1.556   5.747   6.521 -0.8767 -0.8851  0.0642
23480SOL    HW273073   1.523   5.632   6.428  0.8826 -1.2517 -0.1483
23481SOL     OW73074   7.971   3.521   0.799  0.5124 -0.3231 -0.1350
23481SOL    HW173075   7.950   3.508   0.892 -0.0334 -1.4322 -0.3960
23481SOL    HW273076   7.994   3.433   0.768  0.7521  0.0536 -1.0363
23482SOL     OW73077   6.669   5.306   1.382  0.0670 -0.1698  0.0006
23482SOL    HW173078   6.685   5.261   1.465 -0.9184 -1.1867 -0.3228
23482SOL    HW273079   6.741   5.367   1.373  0.6789 -0.6885  1.1750
23483SOL     OW73080   7.512   1.536   5.455 -0.1751  0.0483  0.0526
23483SOL    HW173081   7.598   1.554   5.417  0.2928 -0.3582  0.8771
23483SOL    HW273082   7.526   1.458   5.510 -1.1192 -0.1452  0.0357
23484SOL     OW73083   0.828   1.794   0.972  0.4526  0.5151  0.1750
23484SOL    HW173084   0.839   1.849   0.895 -0.1472  1.7650  0.9427
23484SOL    HW273085   0.855   1.707   0.944 -1.6550  0.4647 -2.0394
23485SOL     OW73086  10.128   8.188   9.636 -0.3282  0.5045 -0.1447
23485SOL    HW173087  10.164   8.103   9.662 -0.1104  0.4491 -0.6305
23485SOL    HW273088  10.160   8.202   9.547 -2.9886 -0.4271 -1.3800
23486SOL     OW73089   0.363   6.563   9.950  0.6640 -0.6017 -0.2834
23486SOL    HW173090   0.326   6.638   9.903  0.3874 -1.5830 -1.6600
23486SOL    HW273091   0.342   6.581  10.042 -0.7834  0.2537 -0.7410
23487SOL     OW73092   8.874   5.709   3.556 -0.1197 -0.6904  0.4050
23487SOL    HW173093   8.833   5.794   3.545  0.2236 -0.6130 -0.3197
23487SOL    HW273094   8.967   5.728   3.570 -0.1710 -0.9083  1.0877
23488SOL     OW73095   8.880   0.887   7.791  0.1172  0.1385 -0.0652
23488SOL    HW173096   8.860   0.849   7.705  0.9377 -0.9933  0.2204
23488SOL    HW273097   8.910   0.976   7.772 -1.5621  0.5807 -0.7760
23489SOL     OW73098   1.511   5.821   7.766  0.3248  0.3776 -0.4659
23489SOL    HW173099   1.460   5.741   7.782 -1.8028  1.5652 -1.0034
23489SOL    HW273100   1.512   5.830   7.671  1.6706  0.3367 -0.4736
23490SOL     OW73101   8.219   9.316   0.619 -0.0840 -0.4515 -0.0288
23490SOL    HW173102   8.137   9.363   0.631 -0.2269 -0.0007 -2.2383
23490SOL    HW273103   8.192   9.227   0.595  0.1298 -0.7780  0.9001
23491SOL     OW73104   3.359   0.482   2.597  0.7608 -0.3202 -0.0885
23491SOL    HW173105   3.394   0.516   2.680 -1.9228  1.7633  0.3529
23491SOL    HW273106   3.366   0.555   2.536 -1.2752 -0.3212 -0.3889
23492SOL     OW73107   8.077  10.245  10.165 -0.1956 -0.2153  0.4027
23492SOL    HW173108   8.094  10.222  10.074  0.6878  0.1540  0.4641
23492SOL    HW273109   8.144  10.198  10.215  0.7217  1.2868  0.6543
23493SOL     OW73110   7.496   0.438   9.977  0.2086  0.1910 -0.5938
23493SOL    HW173111   7.563   0.388  10.024 -0.7097  0.3441  0.9697
23493SOL    HW273112   7.490   0.396   9.891  0.8561 -1.1239 -0.0292
23494SOL     OW73113   8.386   4.782   4.709 -0.3720 -0.4095  0.4705
23494SOL    HW173114   8.353   4.843   4.775 -0.7424 -0.7307  0.5922
23494SOL    HW273115   8.350   4.697   4.736 -0.7059 -0.5073 -0.2678
23495SOL     OW73116   7.792   2.431   3.475 -0.1634 -0.1112  0.1606
23495SOL    HW173117   7.737   2.389   3.542  0.4341 -1.5447 -0.2083
23495SOL    HW273118   7.848   2.490   3.525 -0.0158 -0.8470  0.8951
23496SOL     OW73119   0.217   2.191   5.928 -0.3416  0.5653  0.2302
23496SOL    HW173120   0.212   2.196   6.023 -0.6816  1.8316  0.1595
23496SOL    HW273121   0.189   2.277   5.897 -0.0440  0.2456 -1.0127
23497SOL     OW73122   6.123   3.675   8.778  0.3748 -0.3219 -0.1053
23497SOL    HW173123   6.087   3.623   8.850  0.6425 -0.3685 -0.0040
23497SOL    HW273124   6.111   3.619   8.701  0.3541 -0.3938 -0.0505
23498SOL     OW73125   5.964   9.377   0.494  0.7145 -0.1836  0.4603
23498SOL    HW173126   6.013   9.399   0.415 -0.3528  0.0384 -0.1753
23498SOL    HW273127   5.981   9.284   0.509  2.0698  0.1029  0.8232
23499SOL     OW73128   9.156   2.305   8.622 -0.1653  0.3941 -0.0739
23499SOL    HW173129   9.153   2.308   8.718 -0.2740 -1.0915 -0.0035
23499SOL    HW273130   9.249   2.298   8.601 -0.1996 -0.4142 -0.0035
23500SOL     OW73131   0.175   1.368   8.422 -0.0753  0.3482 -0.2828
23500SOL    HW173132   0.080   1.363   8.410 -0.2089 -2.2078  1.2810
23500SOL    HW273133   0.209   1.291   8.376  1.1429  0.6536  0.0813
23501SOL     OW73134   2.835   2.780   3.661  0.4447 -0.2010 -0.2153
23501SOL    HW173135   2.902   2.838   3.625  1.1973  0.6147  2.3218
23501SOL    HW273136   2.883   2.703   3.690  0.6729  1.0085  2.9951
23502SOL     OW73137   7.246   7.301   1.990 -0.0836 -0.2914 -0.4359
23502SOL    HW173138   7.241   7.307   1.895  1.4858  0.3692 -0.5012
23502SOL    HW273139   7.212   7.385   2.021  0.0306 -0.2455 -0.4362
23503SOL     OW73140   3.625   3.258   3.884  0.1009  0.2727 -0.3278
23503SOL    HW173141   3.670   3.334   3.920  1.8878 -0.3454 -1.1765
23503SOL    HW273142   3.543   3.294   3.848  0.8301  1.7602 -0.5707
23504SOL     OW73143   5.916   7.984   9.807  0.1177 -0.1422  0.0921
23504SOL    HW173144   5.848   7.918   9.797  0.6293 -0.5709 -0.5821
23504SOL    HW273145   5.959   7.988   9.722  1.7097 -0.7320  0.8284
23505SOL     OW73146   0.383   0.337   0.277 -0.0049 -0.2676 -0.0815
23505SOL    HW173147   0.401   0.317   0.369 -0.2395  0.8703  0.2333
23505SOL    HW273148   0.297   0.380   0.278 -0.0494 -0.3223 -0.8427
23506SOL     OW73149   9.214  10.108   5.221  0.5201 -0.7177  0.2058
23506SOL    HW173150   9.309  10.115   5.230  0.5360 -0.3915 -0.1679
23506SOL    HW273151   9.201  10.043   5.153  0.4168 -2.6027  1.9516
23507SOL     OW73152   6.189   0.487   9.935  0.0073 -0.1624  0.3318
23507SOL    HW173153   6.214   0.406   9.890  1.3181  1.3267 -1.7576
23507SOL    HW273154   6.097   0.499   9.913  0.2785 -0.1751 -0.8536
23508SOL     OW73155   8.202   3.151   3.672 -0.1595 -0.1608  0.4664
23508SOL    HW173156   8.202   3.246   3.679 -1.8359  0.1274 -2.0977
23508SOL    HW273157   8.268   3.131   3.605 -0.7831 -0.6663 -0.0119
23509SOL     OW73158   5.204   8.170   2.034  0.3017  0.9453 -0.2548
23509SOL    HW173159   5.264   8.185   2.107 -0.5152  0.5997  0.5038
23509SOL    HW273160   5.247   8.102   1.982 -0.5982 -1.2575  1.7017
23510SOL     OW73161   7.517   2.304   3.440  0.0076 -0.1007  0.1974
23510SOL    HW173162   7.459   2.319   3.515 -0.2264 -1.4030  0.2950
23510SOL    HW273163   7.458   2.296   3.365  0.1424 -0.2282  0.1045
23511SOL     OW73164   0.661   4.155   2.089  1.0480  0.1895 -0.0202
23511SOL    HW173165   0.615   4.118   2.163  1.0092  1.6065  0.6975
23511SOL    HW273166   0.646   4.093   2.017 -0.9302  0.0121  0.5047
23512SOL     OW73167   2.081   1.036   1.101 -0.2009 -0.3576  0.1919
23512SOL    HW173168   2.127   0.998   1.176  1.5983  0.3904 -0.4836
23512SOL    HW273169   2.063   0.961   1.044  0.8192 -0.5913  0.1588
23513SOL     OW73170   7.097   6.415   2.689 -0.1107 -0.2070  0.2992
23513SOL    HW173171   7.184   6.420   2.649  0.1311 -0.0005  0.8331
23513SOL    HW273172   7.107   6.460   2.773 -0.8075  0.0523  0.2457
23514SOL     OW73173   3.059   2.115   2.371  0.0192 -0.3268  0.0046
23514SOL    HW173174   3.084   2.173   2.300  1.1442 -0.8919 -0.0703
23514SOL    HW273175   3.115   2.141   2.444 -1.3211  0.4492  0.8111
23515SOL     OW73176   3.339   4.443   1.310 -0.6539 -0.0277 -0.1336
23515SOL    HW173177   3.348   4.517   1.250  0.6507  0.3919  0.5350
23515SOL    HW273178   3.296   4.481   1.387 -1.1209 -0.2661 -0.2698
23516SOL     OW73179   7.025  10.209   1.817  0.1383 -0.2219 -0.0080
23516SOL    HW173180   7.008  10.120   1.846  1.3478 -0.3591  0.3145
23516SOL    HW273181   7.084  10.245   1.884  0.0278  0.6626 -0.3777
23517SOL     OW73182   9.393   4.085   9.020 -0.1431  0.0900 -0.0483
23517SOL    HW173183   9.389   4.006   9.074 -0.4906 -1.0338 -1.6557
23517SOL    HW273184   9.376   4.054   8.931  0.0294  1.9406 -0.7616
23518SOL     OW73185   5.957   0.873   8.377 -0.6782  0.0071  0.1968
23518SOL    HW173186   5.867   0.900   8.358  0.1161  2.0341 -0.9648
23518SOL    HW273187   5.950   0.779   8.395 -2.8289 -0.1806 -1.2286
23519SOL     OW73188   1.259   8.615   0.706 -0.2045 -0.4184  0.0508
23519SOL    HW173189   1.272   8.677   0.635  1.3405 -1.0779 -0.2718
23519SOL    HW273190   1.271   8.529   0.666  0.6299 -0.8043  1.0851
23520SOL     OW73191   6.581   8.131   0.547 -0.3751  0.3712  0.2994
23520SOL    HW173192   6.609   8.045   0.580 -0.9208  0.5277  1.1901
23520SOL    HW273193   6.659   8.166   0.504 -0.4443 -1.0268 -1.0864
23521SOL     OW73194   0.677   3.750   9.136  0.0857  0.1614  0.1828
23521SOL    HW173195   0.624   3.697   9.196  0.1331  0.1242  0.1921
23521SOL    HW273196   0.615   3.783   9.072  0.0473  0.1360  0.2066
23522SOL     OW73197   8.387   0.267   0.305 -0.0085  0.3861  0.2005
23522SOL    HW173198   8.316   0.210   0.275 -0.9007  0.8469  1.3473
23522SOL    HW273199   8.413   0.229   0.389  1.4826 -0.0770 -0.4444
23523SOL     OW73200   0.343   2.744   1.398 -0.1969  0.4422 -0.3163
23523SOL    HW173201   0.406   2.672   1.401 -1.5019 -0.7538 -0.8312
23523SOL    HW273202   0.371   2.798   1.324  1.3712  1.0679  0.6731
23524SOL     OW73203   1.793   1.672   4.414 -0.1013 -0.2770 -0.0633
23524SOL    HW173204   1.822   1.738   4.476 -0.2988  0.3533 -0.6267
23524SOL    HW273205   1.751   1.722   4.344 -1.9275 -1.1029  0.3887
23525SOL     OW73206   3.876   0.486   1.031  0.5048  0.1022  0.5276
23525SOL    HW173207   3.818   0.557   1.003  1.1609 -0.2784 -2.0146
23525SOL    HW273208   3.863   0.480   1.126 -1.4611  1.8978  0.4297
23526SOL     OW73209   2.354   8.967   3.590  1.0117  0.2634 -0.4969
23526SOL    HW173210   2.390   9.006   3.511  1.9730 -0.5784 -0.4986
23526SOL    HW273211   2.424   8.911   3.623 -0.4299 -1.8209 -0.7438
23527SOL     OW73212  10.122   3.529   8.440 -0.0804 -0.3183 -0.0579
23527SOL    HW173213  10.057   3.540   8.510 -0.3137 -1.7076 -0.0279
23527SOL    HW273214  10.177   3.457   8.470 -1.0340 -1.9051 -1.8813
23528SOL     OW73215   1.273   9.029   7.930 -1.0240 -0.5555 -0.1143
23528SOL    HW173216   1.361   9.047   7.895 -0.9231  0.0085  0.4049
23528SOL    HW273217   1.215   9.088   7.882 -1.1438 -1.0251 -0.5531
23529SOL     OW73218   9.743   7.986   8.999  0.0979  0.0756 -0.4006
23529SOL    HW173219   9.674   7.939   8.951  0.5825 -1.4512  0.3351
23529SOL    HW273220   9.743   8.074   8.961 -1.7448 -0.1126 -0.9316
23530SOL     OW73221   3.062   3.453   6.860  0.3243  0.6388 -0.9059
23530SOL    HW173222   3.080   3.534   6.907  0.2682  0.2975 -0.2898
23530SOL    HW273223   3.103   3.385   6.913 -1.1070  0.0664 -0.4928
23531SOL     OW73224   2.507   7.635   3.408 -0.2819 -0.4328  0.4891
23531SOL    HW173225   2.472   7.597   3.488 -0.3614  1.0539  1.1980
23531SOL    HW273226   2.516   7.729   3.427 -0.9876  0.1064 -1.4613
23532SOL     OW73227   2.504   6.455   1.737  0.2397 -0.2561  0.4434
23532SOL    HW173228   2.450   6.378   1.752  0.2373 -0.1785  0.8495
23532SOL    HW273229   2.536   6.479   1.824  1.8533 -0.9728  0.1009
23533SOL     OW73230   6.852   1.460   1.355 -0.6696 -0.0963  0.3605
23533SOL    HW173231   6.912   1.444   1.428  0.0226  0.8019  0.0001
23533SOL    HW273232   6.868   1.551   1.330 -0.9433 -0.3762 -0.8743
23534SOL     OW73233   9.499   1.878   8.825 -0.4198  0.1560 -0.3412
23534SOL    HW173234   9.577   1.828   8.846  0.5998  2.5841  2.4307
23534SOL    HW273235   9.456   1.829   8.755  2.0509 -2.7804  0.0139
23535SOL     OW73236   3.286   5.181   9.248  0.2785 -0.2374  0.0451
23535SOL    HW173237   3.373   5.151   9.272 -0.8746 -1.9038  2.6059
23535SOL    HW273238   3.295   5.276   9.238  2.0773 -0.1249  1.9507
23536SOL     OW73239   2.848   7.180   1.195 -0.1491  0.1681 -0.2964
23536SOL    HW173240   2.816   7.259   1.152  0.0561  0.7307  0.5527
23536SOL    HW273241   2.925   7.154   1.144 -0.1300  0.6064 -0.4946
23537SOL     OW73242   2.511   1.761   0.068  0.5883 -0.9310 -0.0572
23537SOL    HW173243   2.539   1.791  -0.018  2.2537 -1.8432  0.1121
23537SOL    HW273244   2.430   1.809   0.086  2.7570  3.1226  0.0373
23538SOL     OW73245   2.682   2.088   6.408 -0.8554 -0.2279  0.0033
23538SOL    HW173246   2.674   2.042   6.325 -3.0682  0.1367 -0.0416
23538SOL    HW273247   2.726   2.170   6.386  0.8096 -1.1724 -0.3422
23539SOL     OW73248   8.885   5.495   5.803 -0.0466  0.0131 -0.4587
23539SOL    HW173249   8.971   5.476   5.765  0.1696  3.0974 -1.8695
23539SOL    HW273250   8.905   5.543   5.883 -0.2981  2.4186 -1.7357
23540SOL     OW73251   4.554   9.217   3.973 -0.1655  0.1273  0.0518
23540SOL    HW173252   4.614   9.154   4.013  0.7714  1.2689  0.4967
23540SOL    HW273253   4.584   9.303   4.003 -0.0620  0.9846 -2.2273
23541SOL     OW73254   2.441   5.022   8.113  0.5963 -0.6289 -0.2168
23541SOL    HW173255   2.386   4.965   8.168 -0.1310  0.1549 -0.0992
23541SOL    HW273256   2.492   5.073   8.176  0.0569 -0.0164 -0.2605
23542SOL     OW73257   5.451   8.969   0.647  0.2866 -0.1243 -0.0670
23542SOL    HW173258   5.505   8.897   0.678 -0.1509 -1.0478 -1.3686
23542SOL    HW273259   5.498   9.048   0.674  1.2379 -0.8835  0.5750
23543SOL     OW73260   8.038   6.373   9.019 -0.4960  0.9968 -0.6974
23543SOL    HW173261   8.133   6.367   9.032 -0.8910 -0.4196  2.4072
23543SOL    HW273262   8.018   6.299   8.962  0.2154  1.0526 -1.0388
23544SOL     OW73263   9.957   2.251   5.004  0.1886 -0.2723 -0.2787
23544SOL    HW173264   9.908   2.214   5.077  0.4783 -0.2497 -0.0687
23544SOL    HW273265   9.893   2.261   4.934  0.1080 -1.1753 -0.3425
23545SOL     OW73266   4.809   2.192   3.582  0.4298 -0.4460  0.2853
23545SOL    HW173267   4.859   2.112   3.592  2.2167  0.6972  0.9344
23545SOL    HW273268   4.863   2.260   3.623 -1.2160  1.0255  0.1572
23546SOL     OW73269   0.946   2.733   5.572 -0.4249 -0.1655  0.0153
23546SOL    HW173270   0.962   2.693   5.657 -1.3906 -0.7250 -0.0572
23546SOL    HW273271   0.931   2.660   5.513 -1.0205  0.2513 -0.3690
23547SOL     OW73272   1.084   4.998   7.364  0.6048 -0.3981  0.3695
23547SOL    HW173273   1.059   4.942   7.290  1.6501  1.3871 -1.4544
23547SOL    HW273274   1.001   5.029   7.400  0.0598 -1.7729  0.3488
23548SOL     OW73275   6.809   3.415   8.348 -0.0879  0.7824  0.4317
23548SOL    HW173276   6.873   3.481   8.373  0.1103  1.2845 -1.2983
23548SOL    HW273277   6.856   3.332   8.353  0.5955  1.1099 -0.4557
23549SOL     OW73278   3.999   8.856   8.245 -0.2958  0.1622 -0.3995
23549SOL    HW173279   4.087   8.882   8.220 -0.5582  1.3804 -0.1327
23549SOL    HW273280   4.010   8.776   8.296  0.7629  0.9327  0.6143
23550SOL     OW73281   4.724   4.945   4.225 -0.0413 -0.2657 -0.1013
23550SOL    HW173282   4.640   4.906   4.247  0.0553  0.0755  0.9470
23550SOL    HW273283   4.743   4.914   4.136 -1.1143 -0.5949 -0.2300
23551SOL     OW73284   7.121   4.223   9.512  0.0060 -0.2433 -0.2995
23551SOL    HW173285   7.151   4.175   9.434  0.4388  0.5090 -0.6043
23551SOL    HW273286   7.030   4.243   9.494  0.2925  0.5342 -0.9305
23552SOL     OW73287   3.422   1.804   9.512  0.5813  0.2227  0.2221
23552SOL    HW173288   3.372   1.772   9.586  0.5964 -0.4383 -0.0442
23552SOL    HW273289   3.410   1.737   9.444  0.1562  1.0641 -0.5416
23553SOL     OW73290   0.418  10.104   7.426 -0.3567  0.2219  0.2228
23553SOL    HW173291   0.444  10.173   7.488  0.7103  0.8515 -0.8644
23553SOL    HW273292   0.450  10.023   7.465  0.5599  0.6468  0.3891
23554SOL     OW73293   1.881   1.928   4.480  0.0056 -0.1033 -0.5467
23554SOL    HW173294   1.826   2.002   4.456 -1.6320 -1.6764 -1.9795
23554SOL    HW273295   1.944   1.919   4.408  1.6793  1.1767  0.6859
23555SOL     OW73296   2.287  10.332   3.703  0.2276 -0.2355  0.2102
23555SOL    HW173297   2.356  10.273   3.670 -1.8484 -2.2996 -0.7294
23555SOL    HW273298   2.296  10.411   3.651  1.0871 -0.9722 -0.8026
23556SOL     OW73299   0.719   5.176   7.905 -0.0715 -0.0857 -0.3875
23556SOL    HW173300   0.675   5.130   7.976 -2.0544  1.9839 -0.1606
23556SOL    HW273301   0.797   5.124   7.888  0.0816 -1.1013  2.7592
23557SOL     OW73302   8.864   9.358   5.394  0.3909 -0.1276 -0.1629
23557SOL    HW173303   8.876   9.280   5.449  2.5898  0.0768 -0.2543
23557SOL    HW273304   8.805   9.329   5.324  0.8966 -1.6249 -0.0178
23558SOL     OW73305   8.909   2.041   7.417  0.2164  0.1938  0.1863
23558SOL    HW173306   8.862   2.074   7.341 -1.4292 -0.7034  0.7584
23558SOL    HW273307   8.993   2.086   7.415  0.2013  0.2202 -2.1110
23559SOL     OW73308   4.318   8.934   1.185  0.0258  0.1853  0.1274
23559SOL    HW173309   4.391   8.951   1.126 -1.2658  0.4280 -1.4588
23559SOL    HW273310   4.333   8.844   1.215  0.8459  0.1521 -0.3400
23560SOL     OW73311   9.236   1.784   6.742 -0.0432  0.4429 -0.2823
23560SOL    HW173312   9.289   1.710   6.713 -0.2118  0.5251 -0.8108
23560SOL    HW273313   9.188   1.751   6.818  1.3009  0.5787  0.6720
23561SOL     OW73314   6.928   6.593   3.463 -0.3916  0.5235  0.2723
23561SOL    HW173315   6.943   6.680   3.500 -2.2380  0.6236  0.9228
23561SOL    HW273316   6.932   6.606   3.368  2.0314  0.7335  0.3339
23562SOL     OW73317   2.477  10.311   3.262  0.5643 -0.2825 -0.5283
23562SOL    HW173318   2.488  10.406   3.266 -0.8083 -0.0745 -1.2307
23562SOL    HW273319   2.507  10.287   3.175  0.1026 -0.3724 -0.6629
23563SOL     OW73320   4.061   0.221   7.899  0.2001  0.6491  0.4274
23563SOL    HW173321   4.008   0.286   7.945  0.4034  1.0627  0.0920
23563SOL    HW273322   4.114   0.273   7.837  0.8952  0.2361  0.6599
23564SOL     OW73323   6.580   4.143   3.148 -0.1992 -0.2901  0.5196
23564SOL    HW173324   6.509   4.106   3.201 -0.3016  0.3070  0.8156
23564SOL    HW273325   6.648   4.077   3.149  0.1642  0.0661  2.1814
23565SOL     OW73326   4.134   8.194   7.559 -0.0279  0.0447 -0.1517
23565SOL    HW173327   4.127   8.245   7.640 -0.7098  0.8953 -0.7315
23565SOL    HW273328   4.184   8.116   7.584  2.2053  1.5736  0.4995
23566SOL     OW73329   3.744   0.065   8.774  0.1689  0.3202  0.0269
23566SOL    HW173330   3.771   0.157   8.779 -0.2787  0.4143  1.1279
23566SOL    HW273331   3.652   0.068   8.749  0.3322  0.1370 -0.6068
23567SOL     OW73332   1.715   4.412   5.172 -0.1943 -0.2529  0.2543
23567SOL    HW173333   1.721   4.400   5.267  1.3802  1.5261  0.4464
23567SOL    HW273334   1.758   4.334   5.136 -1.5443 -1.3627  0.9139
23568SOL     OW73335   8.086   6.143   9.446 -0.3784  0.5281 -0.4072
23568SOL    HW173336   8.071   6.235   9.422 -1.0063  0.3711 -0.6144
23568SOL    HW273337   8.045   6.092   9.377  1.8840  0.0656 -1.4997
23569SOL     OW73338   9.408   4.715   3.285  0.4179 -0.2068  0.1342
23569SOL    HW173339   9.350   4.640   3.299  0.8161 -0.7019 -0.7319
23569SOL    HW273340   9.393   4.740   3.193 -0.7801  1.7199  0.8098
23570SOL     OW73341  10.078   8.372   7.935 -0.2599 -1.2600 -0.2834
23570SOL    HW173342  10.020   8.396   8.008  0.2555 -0.8155 -0.0153
23570SOL    HW273343  10.133   8.449   7.922 -1.5559 -0.6009 -2.3564
23571SOL     OW73344   8.982   1.237   2.196  0.9146 -0.0113  0.3636
23571SOL    HW173345   8.957   1.146   2.179 -1.3828  0.5133  0.6557
23571SOL    HW273346   9.077   1.234   2.205  0.9297 -2.3283  0.0660
23572SOL     OW73347   9.972   9.513   0.425 -0.5055 -0.2721  0.0632
23572SOL    HW173348   9.997   9.478   0.339  0.7619 -2.3986  1.2140
23572SOL    HW273349   9.989   9.607   0.418  0.9621 -0.6022 -1.5541
23573SOL     OW73350   3.378   5.411   6.482 -0.0201  0.2795 -0.3766
23573SOL    HW173351   3.376   5.443   6.572  0.7576 -2.0563  0.5423
23573SOL    HW273352   3.429   5.478   6.435  0.4535  1.0307  1.1288
23574SOL     OW73353   4.882   4.918   3.114 -0.0970 -0.4030  0.3778
23574SOL    HW173354   4.918   4.831   3.133  1.4873  0.5596  2.0126
23574SOL    HW273355   4.906   4.934   3.023  0.4272 -1.2858  0.3417
23575SOL     OW73356   2.466   7.563   8.067 -0.0173  0.2992 -0.1975
23575SOL    HW173357   2.462   7.490   8.004 -0.0406 -0.1648  0.3363
23575SOL    HW273358   2.415   7.533   8.142 -0.4749  1.0837 -0.1850
23576SOL     OW73359   2.381   6.158   0.882  0.0991 -0.5698  0.1162
23576SOL    HW173360   2.449   6.106   0.924  1.6549  0.2517 -1.2384
23576SOL    HW273361   2.321   6.094   0.845  0.2881 -1.3271  1.0917
23577SOL     OW73362   6.336   4.528   9.211 -0.3796  0.4815 -0.6401
23577SOL    HW173363   6.328   4.436   9.238 -1.2664  0.2819 -1.5385
23577SOL    HW273364   6.400   4.565   9.271 -2.1756  0.0338  1.6869
23578SOL     OW73365   8.594   5.213   2.975  0.1010  0.2188  0.2489
23578SOL    HW173366   8.651   5.177   3.043 -0.6327 -0.3569  0.5699
23578SOL    HW273367   8.617   5.164   2.896  0.5352  0.4721  0.2166
23579SOL     OW73368   6.347   6.445   9.764 -0.2732 -0.1136 -0.1612
23579SOL    HW173369   6.318   6.354   9.761  0.0028 -0.2097  0.0368
23579SOL    HW273370   6.414   6.446   9.832  0.5926 -0.0134 -0.9886
23580SOL     OW73371   4.332   0.537  10.122  0.2391  0.6378 -0.6985
23580SOL    HW173372   4.262   0.594  10.089  0.6478  0.9853 -0.9819
23580SOL    HW273373   4.396   0.598  10.159 -0.8430  0.2072  2.0896
23581SOL     OW73374   7.935   5.944   3.810  0.2987  0.7916 -0.1057
23581SOL    HW173375   7.906   5.899   3.889  1.8554  0.0978  0.0992
23581SOL    HW273376   7.921   6.037   3.829  0.4198  0.6178  0.8962
23582SOL     OW73377   3.248   3.949   6.500  0.4954 -0.2853  0.2946
23582SOL    HW173378   3.167   3.958   6.449  0.4220 -0.5445  0.3650
23582SOL    HW273379   3.302   4.023   6.473 -0.4136  0.8567  1.4461
23583SOL     OW73380   4.512   9.780   7.430  0.2863  0.2746  1.1362
23583SOL    HW173381   4.455   9.835   7.377  1.9756  0.6229 -0.4003
23583SOL    HW273382   4.577   9.840   7.466  0.4548 -0.3072  1.8307
23584SOL     OW73383   8.279   4.479   5.075  0.1172 -0.1879  0.4014
23584SOL    HW173384   8.335   4.530   5.133 -0.7935  0.6329  0.5710
23584SOL    HW273385   8.234   4.544   5.021  1.6522 -0.9279 -1.9543
23585SOL     OW73386   3.705   4.213   3.865 -0.4499  0.7719 -0.7430
23585SOL    HW173387   3.629   4.267   3.889  0.6987  2.2011 -0.1562
23585SOL    HW273388   3.755   4.269   3.805 -0.1753 -0.4136 -1.6602
23586SOL     OW73389   6.597   6.312  10.339  0.0699 -0.1091  0.1200
23586SOL    HW173390   6.594   6.249  10.267 -0.0669  0.7417 -0.6253
23586SOL    HW273391   6.677   6.362  10.324  1.7433 -1.8921  2.2782
23587SOL     OW73392   0.713   5.832   9.158 -0.5660 -0.3782  0.8437
23587SOL    HW173393   0.763   5.913   9.152 -0.5229 -0.5012 -0.9589
23587SOL    HW273394   0.625   5.859   9.184 -0.7223  0.3523 -0.3525
23588SOL     OW73395   1.735   2.290   4.256 -0.4188 -0.3334  0.0976
23588SOL    HW173396   1.819   2.335   4.245  0.5191 -2.0955 -0.4182
23588SOL    HW273397   1.707   2.269   4.167  1.0487 -3.8703  0.2741
23589SOL     OW73398   7.110   8.582   5.101  0.9301 -0.1916  0.1273
23589SOL    HW173399   7.126   8.671   5.069  0.5104 -0.2570 -0.2676
23589SOL    HW273400   7.016   8.577   5.114  0.9419 -0.6052  0.0785
23590SOL     OW73401   9.487   9.242   2.324  0.7307  0.0505  0.4852
23590SOL    HW173402   9.405   9.194   2.329  0.0265  0.8733 -1.7114
23590SOL    HW273403   9.462   9.330   2.295  2.4245 -0.0851 -1.6783
23591SOL     OW73404   4.409   5.980   2.251  0.1088 -0.0905 -0.2063
23591SOL    HW173405   4.499   6.009   2.264  0.1208 -0.0995 -0.2741
23591SOL    HW273406   4.370   6.045   2.193 -0.7167  1.4658  1.9625
23592SOL     OW73407   2.161   5.146   5.545 -0.4333 -0.3367  0.0530
23592SOL    HW173408   2.142   5.185   5.630  0.3321  0.8222 -0.2808
23592SOL    HW273409   2.219   5.209   5.503 -0.4097 -1.1300 -1.1347
23593SOL     OW73410  10.240   0.720   2.579  0.0892  0.1696  0.3347
23593SOL    HW173411  10.266   0.730   2.487  0.5863 -0.5356  0.3875
23593SOL    HW273412  10.231   0.810   2.612  1.1830  0.4380 -0.0557
23594SOL     OW73413   3.981   4.655   7.153  0.2150  0.2905 -0.1632
23594SOL    HW173414   4.068   4.638   7.187 -0.0388  1.1493  0.9563
23594SOL    HW273415   3.992   4.653   7.057  1.3406 -0.1596 -0.0353
23595SOL     OW73416   1.165   5.230   8.969 -0.2526  0.2305  0.1251
23595SOL    HW173417   1.112   5.221   8.890  0.0319 -1.1284  0.0605
23595SOL    HW273418   1.235   5.291   8.944  0.0448 -0.4701 -0.7994
23596SOL     OW73419   7.157   8.000   7.123  0.0383  0.0479 -0.3245
23596SOL    HW173420   7.110   7.921   7.149 -0.3447  0.0204 -1.0646
23596SOL    HW273421   7.119   8.069   7.178 -0.2972 -0.1190 -0.3401
23597SOL     OW73422   4.742   8.137   0.856  0.5784 -0.1177  0.0818
23597SOL    HW173423   4.800   8.164   0.927  0.7607 -2.4393  0.9143
23597SOL    HW273424   4.668   8.196   0.861  1.3755  0.8274  1.1020
23598SOL     OW73425   0.444   9.719   8.209  0.6416 -0.6916 -0.6761
23598SOL    HW173426   0.406   9.655   8.269  1.1421 -0.1009  0.2963
23598SOL    HW273427   0.533   9.732   8.241  1.1270 -0.8141 -1.9220
23599SOL     OW73428   6.599   9.261   6.056  0.0192 -0.0207  0.1783
23599SOL    HW173429   6.532   9.323   6.086  0.2170  0.7504 -0.9269
23599SOL    HW273430   6.682   9.300   6.084  0.1166 -0.0117 -0.1218
23600SOL     OW73431   2.617   6.350   3.784 -0.0811  0.7439  0.4039
23600SOL    HW173432   2.702   6.386   3.810 -0.5686  2.9871 -0.8580
23600SOL    HW273433   2.638   6.287   3.715  0.6362  0.4234  0.9018
23601SOL     OW73434   1.965   8.123   1.342 -0.3911  0.0180  0.2382
23601SOL    HW173435   1.887   8.168   1.373 -0.6915 -0.5482  0.3089
23601SOL    HW273436   1.963   8.135   1.247 -0.1216  0.7032  0.3143
23602SOL     OW73437   7.068   5.766   8.862  0.3539  0.5681  0.3732
23602SOL    HW173438   7.012   5.740   8.789 -0.2441 -0.4107  1.1558
23602SOL    HW273439   7.138   5.700   8.863  0.3585  0.5762  0.6863
23603SOL     OW73440   5.473  10.323   1.562  0.1790 -0.4408  0.0475
23603SOL    HW173441   5.403  10.378   1.597  0.3217  0.5595 -1.1758
23603SOL    HW273442   5.554  10.370   1.585  0.2713  0.2851 -1.6182
23604SOL     OW73443   9.694   4.028   1.595  0.4824 -0.0701 -0.1282
23604SOL    HW173444   9.785   4.019   1.624  0.0773  0.3716  1.3315
23604SOL    HW273445   9.660   3.938   1.597  0.2125  0.0526  1.6583
23605SOL     OW73446   7.682   3.950   7.192  0.2247  0.6746 -0.1693
23605SOL    HW173447   7.721   3.882   7.246  0.0712  0.4955 -0.2795
23605SOL    HW273448   7.704   3.925   7.102 -0.3632  0.4267 -0.2469
23606SOL     OW73449   0.909   5.378   1.833 -0.7925  0.3121 -0.4047
23606SOL    HW173450   0.852   5.415   1.901 -1.1824  0.7759 -0.9777
23606SOL    HW273451   0.849   5.356   1.761 -0.2079  1.1153 -1.1494
23607SOL     OW73452   6.656   1.942   6.829  0.1607  0.0723 -0.3533
23607SOL    HW173453   6.628   1.928   6.920  0.7586  1.9532  0.1667
23607SOL    HW273454   6.716   1.869   6.812 -0.5289 -0.7253  0.4983
23608SOL     OW73455   4.003  10.212   7.753 -0.2927  0.4649  0.0136
23608SOL    HW173456   4.065  10.283   7.735 -0.4803  0.8221  0.7472
23608SOL    HW273457   3.991  10.214   7.848  2.4985 -2.8557  0.6508
23609SOL     OW73458   2.683   9.467   6.184  0.1560  0.0547 -0.2558
23609SOL    HW173459   2.596   9.505   6.193  0.0752  0.0822 -1.0130
23609SOL    HW273460   2.729   9.489   6.265 -0.2700  0.7570 -0.2034
23610SOL     OW73461   7.170   7.019   2.052 -0.4018  0.2067  0.1334
23610SOL    HW173462   7.184   7.113   2.063 -2.2819  0.4289  0.9851
23610SOL    HW273463   7.115   6.994   2.127 -0.7244 -1.3842 -0.5979
23611SOL     OW73464   6.645   3.945   4.337  0.6114  0.3780  0.2134
23611SOL    HW173465   6.647   3.952   4.433  0.2976 -0.2552  0.2794
23611SOL    HW273466   6.662   4.033   4.306 -1.5767  1.1170  0.8907
23612SOL     OW73467   7.879   4.033   5.108  0.3238 -0.1415  0.3801
23612SOL    HW173468   7.880   3.966   5.041 -1.8583  0.7049 -0.5896
23612SOL    HW273469   7.957   4.086   5.092 -0.3242  0.2436 -1.7593
23613SOL     OW73470   8.028   9.675   3.301 -0.2040  0.3478 -0.0058
23613SOL    HW173471   8.063   9.763   3.310 -0.1174  0.2485  0.6898
23613SOL    HW273472   8.087   9.620   3.353  0.5793 -0.3535 -1.5697
23614SOL     OW73473   8.519   3.509   3.268  0.0570 -0.1458  0.2529
23614SOL    HW173474   8.491   3.420   3.247  1.8798 -0.5187 -0.8309
23614SOL    HW273475   8.600   3.497   3.318  0.5671  0.9012 -0.2972
23615SOL     OW73476   4.640   8.663   0.107  0.1338  0.0887 -0.4143
23615SOL    HW173477   4.580   8.707   0.047 -1.6032  0.4353  1.4871
23615SOL    HW273478   4.613   8.571   0.104 -1.4792  0.4318  1.4063
23616SOL     OW73479   5.116   7.930   9.571  0.3157  0.0481  0.0758
23616SOL    HW173480   5.170   8.006   9.594 -0.3610  0.2021  1.2420
23616SOL    HW273481   5.098   7.888   9.655 -0.2206 -0.7922 -0.4524
23617SOL     OW73482   9.312   6.570   7.592  0.0737 -0.3724 -0.2686
23617SOL    HW173483   9.381   6.588   7.529  0.3786  0.5943  0.3198
23617SOL    HW273484   9.350   6.595   7.677 -0.7692 -0.4527  0.1409
23618SOL     OW73485   7.895   0.609   5.196 -0.4181  0.4941 -0.1099
23618SOL    HW173486   7.850   0.533   5.230  1.0242 -0.1420  0.4587
23618SOL    HW273487   7.909   0.589   5.103 -0.9788  0.5516 -0.2116
23619SOL     OW73488   7.417   9.506   5.944 -0.0244 -0.5294 -0.2684
23619SOL    HW173489   7.399   9.412   5.939 -1.1407 -0.4443  1.4885
23619SOL    HW273490   7.333   9.546   5.964  0.4882  0.8357 -0.7076
23620SOL     OW73491   4.019   7.342   5.510 -0.0297 -0.0634  0.2605
23620SOL    HW173492   4.019   7.265   5.453  0.9248  0.4361 -0.4348
23620SOL    HW273493   4.105   7.341   5.552 -0.3538  0.1315  0.9515
23621SOL     OW73494   0.282   7.797   1.892  0.6120 -0.1449 -0.3223
23621SOL    HW173495   0.199   7.830   1.859 -0.4744 -3.0635 -0.7879
23621SOL    HW273496   0.334   7.780   1.814 -0.1358 -2.5179 -0.3873
23622SOL     OW73497   5.746   1.189   5.839 -0.2535 -0.3717  0.6437
23622SOL    HW173498   5.721   1.257   5.776  0.9724  0.5801  1.1492
23622SOL    HW273499   5.842   1.190   5.839 -0.2140 -0.1490  2.7100
23623SOL     OW73500   1.282   5.676   8.789  0.1757  0.1772  0.2562
23623SOL    HW173501   1.319   5.751   8.836  0.9284  0.5677 -0.9046
23623SOL    HW273502   1.206   5.712   8.742 -1.0062 -0.3625  1.6817
23624SOL     OW73503   1.343   8.186   2.995  0.3381  0.0034 -0.1262
23624SOL    HW173504   1.393   8.232   2.927  1.0289 -0.7446 -0.1410
23624SOL    HW273505   1.282   8.131   2.947  0.7487 -0.4406 -0.1497
23625SOL     OW73506   7.192   4.514   3.784 -0.2408 -0.1198 -0.1969
23625SOL    HW173507   7.199   4.610   3.780  1.4736 -0.2390 -1.1036
23625SOL    HW273508   7.157   4.497   3.871 -2.8893  1.3807 -0.8396
23626SOL     OW73509   4.160   6.879   6.369 -0.1204  0.1288  0.0357
23626SOL    HW173510   4.189   6.971   6.368  0.4735 -0.0555  0.0068
23626SOL    HW273511   4.154   6.855   6.277 -0.3504  0.1614  0.0425
23627SOL     OW73512   4.387   6.137   7.567 -0.4499 -0.5538  0.3056
23627SOL    HW173513   4.392   6.190   7.646 -0.1593  0.0438 -0.1071
23627SOL    HW273514   4.301   6.095   7.573  0.7713 -3.0218  2.4781
23628SOL     OW73515   4.458   0.667   2.713 -0.1720 -0.0031 -1.0804
23628SOL    HW173516   4.473   0.574   2.729 -0.6741 -0.0469 -0.8328
23628SOL    HW273517   4.541   0.700   2.679  0.3337 -0.3280 -0.1963
23629SOL     OW73518   3.110   2.758   5.439 -0.6390 -0.0480  0.1964
23629SOL    HW173519   3.108   2.697   5.365  1.6862 -0.2571  0.2525
23629SOL    HW273520   3.134   2.705   5.514 -1.8061  0.3834  0.9019
23630SOL     OW73521   5.115   5.374   9.836  0.6033  0.0392  0.2906
23630SOL    HW173522   5.066   5.454   9.855  0.2121 -0.1144 -0.0443
23630SOL    HW273523   5.175   5.399   9.766 -0.2076 -0.1907 -0.5192
23631SOL     OW73524  10.119   6.895   7.633  0.3424  0.2756  0.2286
23631SOL    HW173525  10.028   6.925   7.631  0.1678 -0.1801  0.8297
23631SOL    HW273526  10.161   6.951   7.698  0.1135 -0.4814  1.0544
23632SOL     OW73527   7.320   2.149   0.362 -0.0352 -0.1952  0.2770
23632SOL    HW173528   7.339   2.120   0.273 -2.6473  0.8451 -0.7365
23632SOL    HW273529   7.402   2.188   0.392  0.4396  1.1648 -2.4391
23633SOL     OW73530   5.794   3.146   6.112 -0.4230 -0.6354 -0.0822
23633SOL    HW173531   5.809   3.074   6.050 -0.8648  0.8635 -2.0477
23633SOL    HW273532   5.875   3.150   6.163  0.0727 -1.7829 -0.7318
23634SOL     OW73533   1.501   1.495   4.109 -0.5408 -0.2919 -0.1219
23634SOL    HW173534   1.549   1.556   4.053 -0.0394 -0.3956  0.1885
23634SOL    HW273535   1.455   1.550   4.172  0.8153 -0.2567  0.8833
23635SOL     OW73536   8.439   7.671   1.535  0.1194 -0.1067 -0.8430
23635SOL    HW173537   8.482   7.755   1.550 -0.9098  0.1643  0.7773
23635SOL    HW273538   8.362   7.692   1.483 -0.2226 -0.0066 -0.3062
23636SOL     OW73539   6.669   0.341  10.080 -0.0990 -0.3340  0.3732
23636SOL    HW173540   6.676   0.373  10.171  1.1660 -0.4183  0.3292
23636SOL    HW273541   6.601   0.396  10.041  0.0916  0.4383  1.0755
23637SOL     OW73542   9.947   6.282   5.819  0.2924  0.1195 -0.1585
23637SOL    HW173543   9.959   6.188   5.828 -2.5579 -0.2220  1.6563
23637SOL    HW273544  10.027   6.321   5.853  1.4378 -1.6320 -0.7632
23638SOL     OW73545   6.960   9.265   9.510 -0.0218  0.4590 -0.0592
23638SOL    HW173546   6.972   9.261   9.415 -0.2597 -2.1017 -0.0592
23638SOL    HW273547   7.044   9.297   9.543  1.4700 -2.1990 -0.9846
23639SOL     OW73548   9.891   8.289   5.010 -0.2517 -0.1269 -0.1472
23639SOL    HW173549   9.943   8.312   5.087 -1.4361  0.1213  0.5890
23639SOL    HW273550   9.803   8.321   5.029 -0.9140 -1.3667 -0.9721
23640SOL     OW73551   6.541   2.782   8.784 -0.0152  0.1547 -0.3346
23640SOL    HW173552   6.477   2.799   8.854 -0.3419 -0.2518 -0.5296
23640SOL    HW273553   6.488   2.749   8.711  0.3770  0.1640 -0.6247
23641SOL     OW73554   7.674   2.220   1.313  0.1933 -0.3130  0.0403
23641SOL    HW173555   7.588   2.206   1.273  0.2903  1.2564 -0.8056
23641SOL    HW273556   7.728   2.254   1.242  1.3542 -0.6685  0.7180
23642SOL     OW73557   8.930   8.434   6.699 -0.0547  0.4962  0.5100
23642SOL    HW173558   8.867   8.362   6.707 -1.3660  1.5900  0.2821
23642SOL    HW273559   8.895   8.489   6.629  1.0294  1.2712  0.5572
23643SOL     OW73560   7.790   8.220   3.572  0.2054  0.7130  0.4180
23643SOL    HW173561   7.823   8.232   3.483  1.6250  0.8264  0.9470
23643SOL    HW273562   7.849   8.270   3.627 -0.5474  0.4923  1.4609
23644SOL     OW73563   6.533   2.097   9.152 -0.0918  0.4475  0.5235
23644SOL    HW173564   6.514   2.100   9.246 -0.5128  0.2487  0.4478
23644SOL    HW273565   6.453   2.129   9.110 -0.8119 -1.7155  0.1337
23645SOL     OW73566   4.929   9.503   9.307  0.1276  0.0701  0.1965
23645SOL    HW173567   4.934   9.407   9.298 -0.1632 -0.2511  2.6534
23645SOL    HW273568   5.017   9.528   9.334 -0.0277  0.3539  0.4436
23646SOL     OW73569   6.970   1.152   4.853 -0.1691  0.0966  0.3669
23646SOL    HW173570   6.910   1.145   4.926 -0.2138  2.6830  0.6917
23646SOL    HW273571   6.915   1.176   4.779  0.2377  0.7505  0.2665
23647SOL     OW73572   1.186   3.312   3.011  0.2596 -0.4604  0.0677
23647SOL    HW173573   1.169   3.372   3.084 -0.9194 -1.9678  1.0906
23647SOL    HW273574   1.276   3.331   2.986  0.5728  0.3864  1.6487
23648SOL     OW73575   8.561   6.691   8.348 -0.0258  0.1214  0.2599
23648SOL    HW173576   8.555   6.603   8.385  1.5471  0.0036  0.3201
23648SOL    HW273577   8.496   6.742   8.396 -1.0709 -1.0254  0.1164
23649SOL     OW73578   5.561   8.013   3.621 -0.3337 -0.0597 -0.4668
23649SOL    HW173579   5.647   8.007   3.579  0.4845 -0.0167  1.1195
23649SOL    HW273580   5.518   7.930   3.599  0.2640 -0.2542 -0.9399
23650SOL     OW73581   4.707   0.958   7.309  0.1979  0.1369 -0.3712
23650SOL    HW173582   4.751   0.946   7.225  0.1587 -0.3850 -0.3247
23650SOL    HW273583   4.630   0.901   7.303  1.4092 -1.7461  0.8806
23651SOL     OW73584   7.476   1.593   6.861  0.4658 -0.0165  0.1803
23651SOL    HW173585   7.496   1.678   6.822  0.7049 -0.3611 -0.4472
23651SOL    HW273586   7.407   1.612   6.925 -1.8743  0.1999 -2.2170
23652SOL     OW73587   3.685   9.143  10.310  0.7690 -0.1576  0.6071
23652SOL    HW173588   3.706   9.056  10.342  1.8252  0.1064  0.6731
23652SOL    HW273589   3.671   9.196  10.389 -1.4767 -0.5871  0.5864
23653SOL     OW73590   7.903   6.447   4.536 -0.0123 -0.2801 -0.9101
23653SOL    HW173591   7.824   6.494   4.562  0.5828  1.0134 -1.3648
23653SOL    HW273592   7.928   6.485   4.452  1.2576 -0.4370 -0.6362
23654SOL     OW73593   7.979  10.215   1.431 -0.1000  0.3485  0.2416
23654SOL    HW173594   8.023  10.140   1.470  0.1059  1.4072  2.1838
23654SOL    HW273595   8.034  10.290   1.457 -1.1071  1.3180 -0.3660
23655SOL     OW73596   9.512   2.416   9.318  0.2933  0.0471 -0.4463
23655SOL    HW173597   9.580   2.439   9.255 -0.8237  1.6527 -1.1239
23655SOL    HW273598   9.508   2.491   9.377  1.2754 -1.3947  1.5681
23656SOL     OW73599   4.561   3.030   2.337 -0.5279 -0.2351  0.2273
23656SOL    HW173600   4.523   3.007   2.252 -1.3931  0.7566  0.3223
23656SOL    HW273601   4.637   2.973   2.345 -0.4763 -0.4136 -1.1783
23657SOL     OW73602   7.041  10.011   1.580  0.3763 -0.1344  0.1213
23657SOL    HW173603   6.958  10.042   1.617  1.1519 -2.1595  4.1605
23657SOL    HW273604   7.108  10.056   1.632  1.9704  1.4341 -3.0083
23658SOL     OW73605   1.333   7.712   0.186 -0.1848 -0.1684 -0.1049
23658SOL    HW173606   1.260   7.711   0.123 -0.0554 -0.9775 -0.2468
23658SOL    HW273607   1.291   7.700   0.271 -0.6304  3.2266  0.2999
23659SOL     OW73608   6.767   1.947   6.076 -0.6701  0.1560  0.0270
23659SOL    HW173609   6.705   1.888   6.118 -0.6540 -0.8768 -1.3322
23659SOL    HW273610   6.777   1.912   5.987 -0.6342  2.1829 -0.8269
23660SOL     OW73611   9.082   3.905   9.022  0.0218 -0.2306 -0.0462
23660SOL    HW173612   9.095   3.972   8.956 -1.4429 -0.3870 -0.5380
23660SOL    HW273613   9.002   3.932   9.069  0.3085 -0.7926  0.7984
23661SOL     OW73614   8.246   0.557   7.909  0.4593  0.0056 -0.2117
23661SOL    HW173615   8.317   0.492   7.916 -0.6658 -1.2105  0.4141
23661SOL    HW273616   8.284   0.637   7.945  2.0309 -0.1476 -1.3906
23662SOL     OW73617   2.706   5.675   6.760 -0.0098 -0.1841  0.0093
23662SOL    HW173618   2.692   5.770   6.755  2.6903  0.2477 -2.5744
23662SOL    HW273619   2.794   5.666   6.797 -0.9827 -1.8539  2.1115
23663SOL     OW73620   3.890   0.490   3.708 -0.1783 -0.1729 -0.0912
23663SOL    HW173621   3.930   0.452   3.787  0.7366  1.7715  0.4513
23663SOL    HW273622   3.872   0.414   3.652  0.6378 -1.4773  1.3088
23664SOL     OW73623   7.472   4.001   8.727 -0.3665 -0.3037 -0.6193
23664SOL    HW173624   7.459   4.047   8.644  2.8444 -0.7185 -1.4844
23664SOL    HW273625   7.562   3.967   8.722  0.3989  0.5920  3.4811
23665SOL     OW73626   8.896   8.742   8.681  0.5629  0.2793 -0.0598
23665SOL    HW173627   8.915   8.822   8.732 -0.5823 -0.7159  2.0648
23665SOL    HW273628   8.882   8.675   8.747 -0.3508 -1.2818 -1.7635
23666SOL     OW73629   7.508   3.547  10.200 -0.3627  0.8067 -0.4843
23666SOL    HW173630   7.438   3.487  10.176  1.3281 -1.3919 -0.3289
23666SOL    HW273631   7.550   3.570  10.117  0.2229  0.0824 -0.4083
23667SOL     OW73632   0.680   0.719   1.531  0.5476 -0.3024 -0.6790
23667SOL    HW173633   0.692   0.638   1.580  2.1841 -0.1544 -0.7720
23667SOL    HW273634   0.599   0.706   1.482 -1.1404 -0.4700  1.9754
23668SOL     OW73635   0.600   0.185   0.847 -0.2347  0.1278 -0.0113
23668SOL    HW173636   0.557   0.115   0.895  1.3743  0.4893  2.1392
23668SOL    HW273637   0.679   0.144   0.810 -0.6491  0.2290 -1.0500
23669SOL     OW73638   6.773   0.174   5.189 -0.2882  0.0649  0.1600
23669SOL    HW173639   6.782   0.269   5.183  0.9508 -0.0470 -0.0022
23669SOL    HW273640   6.718   0.161   5.266  0.5254  0.8862  0.9097
23670SOL     OW73641  10.326   7.616   6.410  0.3125  0.2891 -0.3021
23670SOL    HW173642  10.354   7.679   6.343 -0.7447  0.6993 -0.3779
23670SOL    HW273643  10.348   7.531   6.374  1.6480  0.5901 -0.2601
23671SOL     OW73644   4.661   3.150   6.696 -0.6679  0.3893  0.3077
23671SOL    HW173645   4.736   3.205   6.719 -0.2346  0.4176 -1.0927
23671SOL    HW273646   4.643   3.170   6.605 -1.6778 -0.4468  0.3012
23672SOL     OW73647   6.830   4.240  10.168  0.5991  0.5853 -0.0679
23672SOL    HW173648   6.902   4.224  10.229  1.0263  1.4453 -0.3302
23672SOL    HW273649   6.773   4.164  10.178  0.3299  0.9806  1.8574
23673SOL     OW73650   4.689   0.812   9.224 -0.5714  0.2881 -0.3823
23673SOL    HW173651   4.752   0.843   9.289  0.7017 -1.2007 -0.8374
23673SOL    HW273652   4.603   0.830   9.262  0.1414  0.5248  1.1582
23674SOL     OW73653   3.345   3.900  10.254  0.2995  0.4813 -0.5585
23674SOL    HW173654   3.273   3.949  10.214 -1.6510 -0.5974  1.4212
23674SOL    HW273655   3.364   3.830  10.191 -0.4319  0.7443 -1.0879
23675SOL     OW73656   7.963   3.711   8.829  0.0966 -0.0410 -0.2112
23675SOL    HW173657   7.882   3.679   8.870 -0.1244  0.5747 -0.1472
23675SOL    HW273658   7.999   3.772   8.893  0.4366 -0.0533 -0.3896
23676SOL     OW73659   7.256   4.052   2.849 -0.3140  0.2124 -0.3327
23676SOL    HW173660   7.263   4.135   2.802  0.6750  0.4574  0.2276
23676SOL    HW273661   7.290   4.071   2.936  2.5977 -1.4525 -1.0003
23677SOL     OW73662  10.015   2.530   6.801 -0.3446  0.3446  0.2459
23677SOL    HW173663  10.046   2.467   6.736 -1.0384  0.4111 -0.1616
23677SOL    HW273664  10.002   2.611   6.752  0.9371  0.9423  0.8434
23678SOL     OW73665   2.955   2.281   6.594  0.1026  0.0181  0.1773
23678SOL    HW173666   3.007   2.355   6.627 -0.2295  1.1831 -1.7159
23678SOL    HW273667   3.020   2.225   6.550 -0.0401  0.9448 -1.2880
23679SOL     OW73668   8.222   6.006   9.826  0.0086  0.3474  0.8863
23679SOL    HW173669   8.177   6.076   9.779 -2.5093 -0.9414  1.2238
23679SOL    HW273670   8.300   5.989   9.773 -1.1614  0.9833 -1.1696
23680SOL     OW73671   8.149   7.681   0.556  0.0232  0.2108 -0.1721
23680SOL    HW173672   8.213   7.732   0.506 -1.1731  2.4003  0.4070
23680SOL    HW273673   8.078   7.664   0.494 -0.4284  0.9373  0.1288
23681SOL     OW73674   5.061   3.430   1.956 -0.2013  0.7394  0.0715
23681SOL    HW173675   5.092   3.514   1.990 -0.0713 -0.2943  2.7415
23681SOL    HW273676   4.972   3.448   1.926 -0.6571  1.6214  1.7841
23682SOL     OW73677   6.507   1.331   3.393  0.0422 -1.1641  0.1341
23682SOL    HW173678   6.523   1.423   3.371 -0.8801 -1.0167  0.0037
23682SOL    HW273679   6.448   1.300   3.324  0.3614 -1.8572  0.1704
23683SOL     OW73680   1.841   7.114   0.512  0.2684  0.2952  0.7127
23683SOL    HW173681   1.808   7.139   0.598 -0.8323  1.5094 -0.0211
23683SOL    HW273682   1.763   7.094   0.461  0.9319 -1.0242  0.1355
23684SOL     OW73683   7.239   8.416  10.022  0.0735 -0.0827  0.2031
23684SOL    HW173684   7.241   8.321  10.033 -1.3851 -0.3379 -1.4282
23684SOL    HW273685   7.178   8.447  10.089  0.9328 -0.2099  1.0685
23685SOL     OW73686   6.570   2.584   9.497 -0.1511  0.5605  0.3493
23685SOL    HW173687   6.578   2.666   9.545  0.7896 -0.1067  1.4007
23685SOL    HW273688   6.478   2.558   9.507 -0.4517  1.4540  0.0133
23686SOL     OW73689  10.109   4.701  10.255 -0.6319  0.5199 -0.0226
23686SOL    HW173690  10.020   4.677  10.230 -0.0432 -3.6939  1.1954
23686SOL    HW273691  10.100   4.739  10.342 -1.2151 -1.3327  0.7788
23687SOL     OW73692   2.445   5.738   4.306  0.3435  0.4926  0.5223
23687SOL    HW173693   2.485   5.821   4.333  0.1787  0.5020  0.7417
23687SOL    HW273694   2.499   5.707   4.234  0.4563  0.7509  0.4961
23688SOL     OW73695   2.935   5.173   7.672 -0.2941 -0.0853  0.0836
23688SOL    HW173696   2.914   5.081   7.692 -2.6588 -0.1652 -2.1326
23688SOL    HW273697   3.014   5.168   7.618  0.4222 -0.6548  1.1456
23689SOL     OW73698   6.813   4.644   6.249  0.7449 -0.4996  0.0007
23689SOL    HW173699   6.775   4.727   6.219  0.2823 -0.3682  0.9240
23689SOL    HW273700   6.787   4.581   6.181  0.6925  0.0132 -0.4661
23690SOL     OW73701   9.280   0.696   1.806  0.3164  0.0675 -0.0481
23690SOL    HW173702   9.244   0.635   1.870 -0.7546  0.5044 -0.2135
23690SOL    HW273703   9.313   0.769   1.858 -1.7617  1.0527 -0.0059
23691SOL     OW73704   2.821   0.140   1.978  0.5236  0.4613 -0.0572
23691SOL    HW173705   2.904   0.118   2.020  1.0305  1.2420 -0.5979
23691SOL    HW273706   2.774   0.057   1.972  1.2868 -0.0038  0.2171
23692SOL     OW73707   1.245   6.674   6.681 -0.1140  0.7500  0.0482
23692SOL    HW173708   1.246   6.633   6.768 -0.7470  0.2209 -0.1841
23692SOL    HW273709   1.330   6.652   6.643 -0.4800 -0.4835 -0.1160
23693SOL     OW73710   1.575   6.904   0.742  0.4515  0.9492  0.1003
23693SOL    HW173711   1.637   6.833   0.760  0.2474  1.3556  2.8175
23693SOL    HW273712   1.619   6.982   0.775 -1.4784  1.2099  2.3382
23694SOL     OW73713   0.799   8.081   5.298 -0.5433  0.3762  0.3560
23694SOL    HW173714   0.737   8.079   5.225 -0.8687  0.6387  0.6176
23694SOL    HW273715   0.782   8.000   5.346 -2.2091  1.4314  1.6486
23695SOL     OW73716   0.566   7.126   3.873  0.6615  0.3644 -0.2022
23695SOL    HW173717   0.480   7.111   3.832  0.6931  1.0998 -0.5587
23695SOL    HW273718   0.612   7.043   3.862 -0.5697 -0.5785  1.4292
23696SOL     OW73719   8.912   8.774   5.717 -0.4847 -0.0449 -0.1390
23696SOL    HW173720   8.869   8.837   5.775  1.7220 -0.1703  1.8088
23696SOL    HW273721   8.923   8.821   5.634 -1.9071  0.8827  0.1708
23697SOL     OW73722   5.832   9.786   2.825 -0.3638  0.0619  0.1353
23697SOL    HW173723   5.855   9.849   2.757  1.1450  0.1899  0.7187
23697SOL    HW273724   5.832   9.701   2.781  3.1166 -0.2004  0.3724
23698SOL     OW73725   8.221   0.348   1.826 -0.3725 -0.0424 -0.3632
23698SOL    HW173726   8.209   0.284   1.896 -0.1600  2.1012  1.8034
23698SOL    HW273727   8.307   0.328   1.789 -0.0614 -0.6732  0.6588
23699SOL     OW73728   7.128   5.858   3.937 -0.7700 -0.2007 -0.2117
23699SOL    HW173729   7.121   5.770   3.972 -0.2954 -0.6739 -1.2514
23699SOL    HW273730   7.041   5.877   3.902 -0.8409 -0.3093 -0.0933
23700SOL     OW73731   7.863   8.284   8.474  0.2302 -0.2136  0.4236
23700SOL    HW173732   7.862   8.201   8.427 -1.7408 -0.7477  1.2976
23700SOL    HW273733   7.956   8.301   8.492  0.8633 -1.0202 -1.7839
23701SOL     OW73734   0.987   8.560   0.161  0.0591  0.5719  0.7022
23701SOL    HW173735   1.066   8.509   0.183 -0.7151 -0.2701  1.6315
23701SOL    HW273736   0.937   8.502   0.103  0.4347  1.3968 -0.4931
23702SOL     OW73737   0.881   1.994   7.101  0.2862 -0.8031  0.0584
23702SOL    HW173738   0.887   2.083   7.134  0.4520 -1.2306  1.2443
23702SOL    HW273739   0.972   1.967   7.086  0.3478 -1.2828  1.1869
23703SOL     OW73740   1.429   1.032   9.403 -0.2219  0.4084  0.2189
23703SOL    HW173741   1.403   0.953   9.450 -0.6466  0.5712  0.2670
23703SOL    HW273742   1.346   1.076   9.382 -0.1947 -0.6034 -2.3564
23704SOL     OW73743   9.898   6.838   8.913 -0.1715 -0.2650 -0.8839
23704SOL    HW173744   9.823   6.784   8.889  0.9219 -2.6633  0.6987
23704SOL    HW273745   9.974   6.784   8.892  0.9556 -0.2570  2.5487
23705SOL     OW73746   1.351   4.844   7.239 -0.7072 -0.0341 -0.0448
23705SOL    HW173747   1.293   4.771   7.256  0.6758 -1.3424 -0.6927
23705SOL    HW273748   1.298   4.906   7.189 -1.5522 -1.1672 -0.5964
23706SOL     OW73749   7.870   1.833   0.564  1.1004 -0.3028  0.0966
23706SOL    HW173750   7.793   1.777   0.566  0.5305  0.4377 -0.3652
23706SOL    HW273751   7.885   1.850   0.471  0.7590  0.9717  0.2532
23707SOL     OW73752   3.573   5.339   3.138  0.0660 -0.1039  0.1250
23707SOL    HW173753   3.605   5.420   3.177 -0.1925 -0.0682  0.2561
23707SOL    HW273754   3.488   5.323   3.179 -0.0112 -0.2914 -0.1055
23708SOL     OW73755   4.526   8.937   6.873  0.3839  0.3718 -0.0338
23708SOL    HW173756   4.432   8.934   6.856  0.5170  1.1643 -0.9948
23708SOL    HW273757   4.551   8.846   6.887 -0.4120  0.0859 -0.4153
23709SOL     OW73758   1.020   5.157   8.139  0.0851  0.0369 -0.0340
23709SOL    HW173759   0.977   5.110   8.211 -1.2194  1.3576  0.1066
23709SOL    HW273760   1.048   5.088   8.079 -3.0860 -0.9468 -0.5845
23710SOL     OW73761   7.581   4.141   6.487  0.4973  0.2608  0.7038
23710SOL    HW173762   7.552   4.078   6.421  1.8202 -0.7194  1.0350
23710SOL    HW273763   7.518   4.131   6.558 -0.4059  0.6781 -0.0161
23711SOL     OW73764   0.467   8.557   5.108  0.1825 -0.0494 -0.0760
23711SOL    HW173765   0.474   8.625   5.175  0.7668 -2.2192  2.2078
23711SOL    HW273766   0.523   8.587   5.037  1.7223  1.1279  1.5612
23712SOL     OW73767   4.737   0.839   2.345 -0.1016  0.1938  0.0785
23712SOL    HW173768   4.797   0.897   2.299  1.0763 -1.2039 -0.2504
23712SOL    HW273769   4.654   0.886   2.347  0.0781  0.7602 -2.5192
23713SOL     OW73770   7.907   6.794   4.501  0.5328  0.5875  0.0361
23713SOL    HW173771   7.972   6.823   4.438 -0.8107 -0.1202 -1.7407
23713SOL    HW273772   7.932   6.838   4.583  2.0359  1.9132 -1.0724
23714SOL     OW73773   8.639   7.184   8.031  0.3351  0.3499 -0.1014
23714SOL    HW173774   8.711   7.225   8.079  0.5165 -1.5910  1.4178
23714SOL    HW273775   8.561   7.202   8.085  0.5542 -1.9224  1.1000
23715SOL     OW73776   2.497   2.417   3.900 -0.3040  0.2092  0.3046
23715SOL    HW173777   2.589   2.394   3.913 -0.0928  0.9822  0.2327
23715SOL    HW273778   2.451   2.373   3.971 -0.2425 -2.2573 -1.0392
23716SOL     OW73779   4.396   1.289   9.632 -0.1668  0.8071 -0.3796
23716SOL    HW173780   4.454   1.240   9.690  1.8955  0.2152 -2.7636
23716SOL    HW273781   4.321   1.313   9.687  0.4836 -1.7811  1.8565
23717SOL     OW73782   5.678   7.739   7.740  0.0546  0.2006  0.2983
23717SOL    HW173783   5.599   7.787   7.714  0.7835  0.9078 -0.6589
23717SOL    HW273784   5.702   7.777   7.824  0.1150  0.9059 -0.0304
23718SOL     OW73785   5.844   3.460   4.917 -0.0731  0.2643 -0.0145
23718SOL    HW173786   5.800   3.540   4.888 -0.0810  0.1356 -0.3648
23718SOL    HW273787   5.922   3.455   4.862  0.7363  0.8417  1.0534
23719SOL     OW73788   9.992   3.948   4.269  0.2257  0.0631  0.3114
23719SOL    HW173789  10.035   3.953   4.354  0.6796 -1.8042  0.2298
23719SOL    HW273790  10.049   3.892   4.216  0.5501  2.0660 -1.6218
23720SOL     OW73791   1.103   1.002   9.142  0.5324  0.3680 -0.6535
23720SOL    HW173792   1.101   1.003   9.046 -0.6187 -0.0605 -0.6406
23720SOL    HW273793   1.087   1.092   9.167  0.5690  0.4326 -0.8585
23721SOL     OW73794   9.521   0.081   5.264  0.5606  0.1551 -0.4331
23721SOL    HW173795   9.491   0.068   5.354  0.9384  0.9475 -0.1797
23721SOL    HW273796   9.599   0.026   5.257 -0.0775 -0.7539 -0.6289
23722SOL     OW73797   4.987   5.948   7.899 -0.2661 -0.1194 -0.4421
23722SOL    HW173798   4.975   5.853   7.895  0.6778 -0.3106  0.8240
23722SOL    HW273799   5.033   5.970   7.818 -0.8008 -0.6739 -0.9082
23723SOL     OW73800   5.642   1.781   4.355  0.3779 -0.5925 -0.2877
23723SOL    HW173801   5.603   1.698   4.383 -2.1542  1.1786  1.8940
23723SOL    HW273802   5.621   1.787   4.262  0.6297 -2.3488 -0.5011
23724SOL     OW73803   8.440  10.023   6.333 -0.8005  0.3683  0.2352
23724SOL    HW173804   8.443   9.932   6.302  0.3019  0.4757 -0.0094
23724SOL    HW273805   8.402  10.072   6.260  1.3757  0.5499 -0.8551
23725SOL     OW73806   9.913   2.563   9.379 -0.0800 -0.7587 -0.6922
23725SOL    HW173807   9.880   2.646   9.415  1.8237  0.4624 -1.5917
23725SOL    HW273808   9.851   2.497   9.410  0.3663  0.4079  3.2957
23726SOL     OW73809   6.280   3.731   2.522  0.2840  0.0235 -0.0066
23726SOL    HW173810   6.273   3.782   2.603 -0.3738  0.9063 -0.5979
23726SOL    HW273811   6.204   3.672   2.525 -0.9084  1.4432 -0.8880
23727SOL     OW73812   6.772   5.137   1.582  0.1876  0.2538 -0.0256
23727SOL    HW173813   6.781   5.065   1.644  2.4588 -1.3374 -1.9764
23727SOL    HW273814   6.854   5.186   1.590 -0.6975  1.7548  0.2052
23728SOL     OW73815   6.243   4.234   4.371 -0.2711  0.2228 -0.5356
23728SOL    HW173816   6.192   4.197   4.298 -2.5642  0.8595  0.6446
23728SOL    HW273817   6.279   4.316   4.336  0.7436 -0.6813 -1.6708
23729SOL     OW73818   0.930   5.822   2.931  0.1151 -0.1978 -0.3552
23729SOL    HW173819   0.863   5.836   2.998 -0.9493 -1.8133 -1.0485
23729SOL    HW273820   0.905   5.880   2.859 -1.1991 -1.5664 -1.0475
23730SOL     OW73821   2.943   4.185  10.246 -0.0373 -0.0120 -0.1313
23730SOL    HW173822   2.961   4.111  10.305  1.4089  1.7617  1.8136
23730SOL    HW273823   2.924   4.258  10.305 -0.6800  1.3589 -1.9616
23731SOL     OW73824   9.917   7.369   7.805 -0.4651 -0.5655 -0.5474
23731SOL    HW173825  10.004   7.346   7.837 -0.9899  0.6854  2.0007
23731SOL    HW273826   9.927   7.458   7.772 -0.7105 -0.5296 -0.5231
23732SOL     OW73827   4.544   9.958   9.173 -0.3418  0.2099 -0.3267
23732SOL    HW173828   4.619   9.900   9.159 -0.3202  0.2397 -0.3363
23732SOL    HW273829   4.550  10.022   9.102  0.5536  1.1842  0.5846
23733SOL     OW73830   3.453   0.694   9.723 -0.1374 -0.1444  0.0736
23733SOL    HW173831   3.433   0.716   9.632 -1.2802  1.2104  0.6145
23733SOL    HW273832   3.368   0.691   9.766  0.3695 -1.0505  1.0613
23734SOL     OW73833   9.827   4.220   9.622  0.6898 -0.1578  0.2625
23734SOL    HW173834   9.780   4.215   9.705 -1.9541 -0.8822 -1.1573
23734SOL    HW273835   9.789   4.296   9.578  0.3830 -1.0952 -1.1682
23735SOL     OW73836   1.539   8.702   7.187 -0.0502 -0.0936 -0.0304
23735SOL    HW173837   1.621   8.677   7.228  0.2526 -2.0153 -1.6834
23735SOL    HW273838   1.528   8.641   7.115 -3.1577 -0.1565  0.3686
23736SOL     OW73839   4.517   4.161   5.339  0.0739 -0.2002  0.5360
23736SOL    HW173840   4.441   4.175   5.395  0.0461  0.1398  0.4167
23736SOL    HW273841   4.586   4.130   5.398 -0.0468 -0.1432  0.7056
23737SOL     OW73842   4.537   1.444   6.868 -0.5742 -0.2004  0.4416
23737SOL    HW173843   4.592   1.371   6.840 -3.1592 -2.5017  0.9182
23737SOL    HW273844   4.599   1.512   6.894  1.9686 -1.4755 -1.7635
23738SOL     OW73845   5.070   5.776   8.640 -0.0353  0.2058  0.7237
23738SOL    HW173846   5.018   5.808   8.713 -0.5068  0.7187  0.1738
23738SOL    HW273847   5.088   5.853   8.587  1.6128  0.0966  1.0947
23739SOL     OW73848   2.032   5.294   0.489  0.3574  0.0762 -0.0560
23739SOL    HW173849   2.000   5.359   0.551 -2.0315  0.7482 -1.8484
23739SOL    HW273850   2.067   5.346   0.416  1.6321 -0.7023 -0.0441
23740SOL     OW73851   1.187   4.176   6.271 -0.5423 -0.3121  0.1955
23740SOL    HW173852   1.187   4.181   6.176  0.9294  1.2634  0.2294
23740SOL    HW273853   1.263   4.228   6.298 -2.0717  1.0037  2.2848
23741SOL     OW73854   7.340   1.685  10.356 -0.0752  0.4352 -0.5305
23741SOL    HW173855   7.363   1.722  10.271  0.2094  0.3233 -0.5032
23741SOL    HW273856   7.395   1.733  10.418 -2.5005  2.7807 -0.0199
23742SOL     OW73857   4.781   0.051   8.152 -0.4268  0.2982  0.2970
23742SOL    HW173858   4.766   0.071   8.244 -1.2471  2.2300 -0.2263
23742SOL    HW273859   4.728   0.114   8.104  1.0809  0.2775 -1.5198
23743SOL     OW73860   8.189   1.276   8.050 -0.2423  0.3470  0.3623
23743SOL    HW173861   8.119   1.221   8.013 -1.1151  1.3070  0.5486
23743SOL    HW273862   8.268   1.245   8.006 -0.8487 -0.4247 -0.2350
23744SOL     OW73863   9.840   3.865   1.004 -0.1026  0.5166  0.0985
23744SOL    HW173864   9.907   3.926   0.971  0.6466 -0.6049 -0.5276
23744SOL    HW273865   9.789   3.917   1.065  0.6558  1.7179 -0.2438
23745SOL     OW73866   4.569   4.724   6.983  0.0841  0.2747 -0.4757
23745SOL    HW173867   4.557   4.634   7.014  0.5285  0.0590 -0.9142
23745SOL    HW273868   4.488   4.769   7.007 -0.2263 -0.2947 -0.4408
23746SOL     OW73869   6.830   3.001   1.838  0.5502  0.4729 -0.5206
23746SOL    HW173870   6.921   3.030   1.832  1.2131 -0.9824  1.4236
23746SOL    HW273871   6.812   2.999   1.932 -0.9488 -0.8101 -0.8028
23747SOL     OW73872   7.399   5.418   3.827  0.6832 -0.2752  0.4233
23747SOL    HW173873   7.489   5.394   3.847  1.1123  0.5660 -0.3837
23747SOL    HW273874   7.400   5.514   3.823 -0.2297 -0.2577  0.3514
23748SOL     OW73875   4.959   4.381   7.792 -0.0583  0.5800 -0.4194
23748SOL    HW173876   4.897   4.385   7.864 -2.1016 -2.0879 -1.8249
23748SOL    HW273877   4.904   4.378   7.713  1.9791  0.8126 -1.9387
23749SOL     OW73878   1.347   0.036   2.559 -0.0149  0.1169  0.1104
23749SOL    HW173879   1.394  -0.042   2.531  0.3728  0.5364 -0.4284
23749SOL    HW273880   1.383   0.106   2.505 -0.5835  0.6130  0.3670
23750SOL     OW73881   8.248   8.357   2.062 -0.2125 -0.2033 -0.2108
23750SOL    HW173882   8.170   8.401   2.094 -0.6815 -1.2584  0.1629
23750SOL    HW273883   8.321   8.399   2.107 -0.7667 -0.8576  1.3616
23751SOL     OW73884   6.615  10.092   4.724 -0.8997  0.1259 -0.5024
23751SOL    HW173885   6.617  10.110   4.818  2.5558  0.2917 -0.4621
23751SOL    HW273886   6.691  10.139   4.689  0.9687 -3.8798 -2.5099
23752SOL     OW73887   0.184   9.836   5.207 -0.4970 -0.4813  0.3070
23752SOL    HW173888   0.171   9.779   5.283 -0.0204  0.4372  1.1011
23752SOL    HW273889   0.097   9.870   5.187 -0.7927 -1.4677 -0.1900
23753SOL     OW73890   6.024   5.294   5.949 -0.3587 -0.4213 -0.2652
23753SOL    HW173891   5.934   5.324   5.960 -0.5282  0.4796 -3.2619
23753SOL    HW273892   6.073   5.339   6.018 -1.9234  0.3581  0.3918
23754SOL     OW73893   9.110   1.065   6.155 -0.2992  0.3815  0.4113
23754SOL    HW173894   9.080   1.121   6.084  1.9836  0.7609 -0.3406
23754SOL    HW273895   9.173   1.118   6.203  0.5126 -0.8970  0.8123
23755SOL     OW73896   5.021   3.483   6.150 -0.3432  0.1309 -0.6980
23755SOL    HW173897   5.073   3.408   6.182 -0.1235  0.2999 -0.6545
23755SOL    HW273898   5.070   3.516   6.075  0.1931  0.9544 -0.0144
23756SOL     OW73899   6.894   3.028   6.059  0.5846  0.3498  0.0390
23756SOL    HW173900   6.900   3.062   6.147  0.1793  0.0784  0.1755
23756SOL    HW273901   6.980   2.988   6.042  0.7799  0.7173  0.1748
23757SOL     OW73902  10.098   1.215   8.214 -0.0830 -0.3572 -0.5360
23757SOL    HW173903  10.172   1.216   8.153 -0.0254  1.3469 -0.4798
23757SOL    HW273904  10.073   1.123   8.220  0.8660 -0.7345 -1.9641
23758SOL     OW73905   0.619   6.512   6.643  0.0292  0.4422  0.4070
23758SOL    HW173906   0.691   6.491   6.583  1.5137 -1.3286  2.6118
23758SOL    HW273907   0.593   6.601   6.619  2.6854  1.0071 -0.7858
23759SOL     OW73908   5.120   8.460   2.559 -0.3792  0.0118 -0.0762
23759SOL    HW173909   5.039   8.485   2.604 -1.1849 -0.6562 -1.0975
23759SOL    HW273910   5.189   8.503   2.609 -1.0461 -1.9325  2.8069
23760SOL     OW73911   1.808   8.911   5.039  0.1236  0.2613 -0.0542
23760SOL    HW173912   1.901   8.927   5.028 -0.3111  2.2774 -1.3060
23760SOL    HW273913   1.786   8.844   4.975  1.2615 -2.8778  2.5797
23761SOL     OW73914   3.613   1.965   7.619 -0.1933 -0.0987 -0.1152
23761SOL    HW173915   3.562   1.888   7.643 -1.3802  0.6159 -0.2867
23761SOL    HW273916   3.549   2.035   7.611  0.5762  0.4562 -2.0634
23762SOL     OW73917   7.214   6.731   3.791 -0.5137  0.6537 -0.1132
23762SOL    HW173918   7.221   6.651   3.739 -0.9360  0.8622 -0.4962
23762SOL    HW273919   7.290   6.783   3.766 -1.3940  1.3165 -1.5018
23763SOL     OW73920   3.903   1.475   2.734  0.1184  0.5078 -0.4207
23763SOL    HW173921   3.813   1.496   2.709 -0.1922  1.7018  1.5128
23763SOL    HW273922   3.895   1.405   2.799  0.7582 -0.8188 -1.7019
23764SOL     OW73923   0.114   4.209   5.152 -0.2313  0.1265 -0.1443
23764SOL    HW173924   0.162   4.147   5.207  1.3182 -0.7896 -2.3852
23764SOL    HW273925   0.149   4.295   5.176  0.7610 -0.3024  0.0150
23765SOL     OW73926   6.557   2.714   6.955  0.0541 -0.0192  0.6059
23765SOL    HW173927   6.606   2.632   6.942  1.0198  0.4770  1.0430
23765SOL    HW273928   6.527   2.738   6.867 -1.4103 -1.5308  0.6314
23766SOL     OW73929   2.236   9.534   6.346 -0.0309  0.0599 -0.0820
23766SOL    HW173930   2.186   9.505   6.270 -0.8697 -1.3179  0.9554
23766SOL    HW273931   2.327   9.527   6.318 -0.1916 -2.9779 -0.1969
23767SOL     OW73932   1.597   5.740   1.518 -0.5404  0.1188 -0.2440
23767SOL    HW173933   1.506   5.753   1.491 -1.0213 -0.3381  1.0423
23767SOL    HW273934   1.600   5.772   1.608  0.8017  0.9305 -0.5453
23768SOL     OW73935   7.458   2.328   4.792 -0.1775 -0.2572 -0.0713
23768SOL    HW173936   7.553   2.337   4.791 -0.0220 -1.1021 -3.2670
23768SOL    HW273937   7.431   2.364   4.877  2.7161  2.5644 -0.1787
23769SOL     OW73938   4.830   0.433   1.472  0.1081 -0.3825 -0.2108
23769SOL    HW173939   4.916   0.471   1.452  0.6269 -1.7770 -0.7383
23769SOL    HW273940   4.771   0.472   1.408  0.0482  1.5828  0.9732
23770SOL     OW73941   2.892   5.359   3.263  0.0566  0.1952  0.1511
23770SOL    HW173942   2.853   5.306   3.332  1.9264 -0.1662  0.9712
23770SOL    HW273943   2.838   5.439   3.262 -1.6849 -0.9250  0.1061
23771SOL     OW73944  10.306   9.575   9.979  0.4554 -0.2538  0.6149
23771SOL    HW173945  10.292   9.657  10.026  1.8515  0.7881 -0.6914
23771SOL    HW273946  10.292   9.597   9.887  1.1039 -1.4189  0.2087
23772SOL     OW73947   8.861   3.944   7.206 -0.7526  0.0482 -0.2739
23772SOL    HW173948   8.826   3.927   7.294 -1.7155 -0.8057 -0.8023
23772SOL    HW273949   8.954   3.925   7.214 -0.6630  0.8051  0.7646
23773SOL     OW73950  10.102   0.104   5.654  0.1500  0.1027  0.2057
23773SOL    HW173951  10.117   0.198   5.640  0.3553  0.1160  0.5007
23773SOL    HW273952  10.077   0.097   5.746  1.1029 -0.2313  0.4549
23774SOL     OW73953   2.422   4.546   8.107  0.3617  0.6004  0.0679
23774SOL    HW173954   2.329   4.542   8.131  0.7647 -0.2621  1.6821
23774SOL    HW273955   2.429   4.492   8.029 -0.4974  0.7136 -0.1040
23775SOL     OW73956   0.043   4.438   9.936  0.0186 -0.3852  0.2264
23775SOL    HW173957   0.016   4.458  10.025 -0.5849  0.5982 -0.1685
23775SOL    HW273958   0.136   4.413   9.944 -0.1259 -0.6554  1.1597
23776SOL     OW73959   9.339   8.170   5.736  0.0311 -0.4699 -0.2142
23776SOL    HW173960   9.262   8.139   5.689 -0.1875  0.9069 -0.7832
23776SOL    HW273961   9.305   8.233   5.799  0.8193  1.3401 -1.5373
23777SOL     OW73962   4.264   9.412   8.926 -0.2479 -0.0209  0.2048
23777SOL    HW173963   4.242   9.414   9.019 -1.0673 -0.3163  0.0200
23777SOL    HW273964   4.351   9.453   8.922 -0.3481  0.3045  1.0529
23778SOL     OW73965   1.586   4.642   4.204  0.3280 -0.4977 -0.4287
23778SOL    HW173966   1.664   4.588   4.191 -0.1540 -1.2144 -0.3974
23778SOL    HW273967   1.514   4.587   4.174 -0.1912  0.0689 -0.2312
23779SOL     OW73968   1.672   1.126   9.360  0.0508 -0.1623  0.0923
23779SOL    HW173969   1.702   1.064   9.293  1.0261 -0.8464  1.1241
23779SOL    HW273970   1.584   1.097   9.381  0.2456 -0.7873  0.0704
23780SOL     OW73971   4.017   1.536   5.214  0.1422  0.4451 -0.0622
23780SOL    HW173972   3.924   1.531   5.192  0.1287 -0.0462  0.0913
23780SOL    HW273973   4.030   1.626   5.245 -0.4366  0.3087  0.6102
23781SOL     OW73974   8.869   6.998   2.658 -0.0770  0.4052  0.1794
23781SOL    HW173975   8.811   7.072   2.646 -0.7819 -0.3035 -0.9001
23781SOL    HW273976   8.957   7.037   2.664 -0.2649  1.2247 -1.8579
23782SOL     OW73977   3.501   8.134   8.932 -0.0187  0.4090 -0.2883
23782SOL    HW173978   3.469   8.062   8.987 -0.6269  1.5229  0.8574
23782SOL    HW273979   3.447   8.209   8.956  0.7875  1.3378 -1.2538
23783SOL     OW73980   8.972   4.233   7.467 -0.4104 -0.5213  0.1602
23783SOL    HW173981   8.971   4.139   7.484  0.2725 -0.5811 -0.1277
23783SOL    HW273982   9.026   4.243   7.390  1.4458  0.3246  1.4980
23784SOL     OW73983   3.091   2.695   6.149  0.0057 -0.2006 -0.3294
23784SOL    HW173984   3.135   2.780   6.142 -1.2740  0.6775  1.4060
23784SOL    HW273985   3.029   2.693   6.077  1.4544 -0.5995 -1.6145
23785SOL     OW73986   2.641   8.670   6.154  0.4963  0.0255 -0.2984
23785SOL    HW173987   2.553   8.667   6.115  0.0141 -0.6609  0.7875
23785SOL    HW273988   2.647   8.757   6.191 -1.1105 -0.9512  2.5769
23786SOL     OW73989   3.336   3.957   0.402  0.4756 -0.2267  0.1270
23786SOL    HW173990   3.316   3.887   0.464 -2.1516 -0.2126 -0.5826
23786SOL    HW273991   3.374   4.026   0.455 -0.7265 -0.6340  1.5867
23787SOL     OW73992   4.399   9.611   6.628 -0.1133 -0.9780  0.0258
23787SOL    HW173993   4.400   9.635   6.721  0.9360 -0.7047 -0.0482
23787SOL    HW273994   4.471   9.549   6.619 -0.9876 -1.9719 -0.3707
23788SOL     OW73995   1.545   0.973   0.516 -0.1662 -0.9326 -0.5951
23788SOL    HW173996   1.506   1.042   0.461 -1.9032 -0.5884  0.9429
23788SOL    HW273997   1.599   1.020   0.579 -0.1584 -1.1123 -0.4673
23789SOL     OW73998   1.570   6.503   2.945  0.1413  0.3394 -0.3782
23789SOL    HW173999   1.522   6.432   2.988  0.6670  0.2052 -0.0126
23789SOL    HW274000   1.548   6.581   2.995 -0.7050  0.5023 -0.9822
23790SOL     OW74001   9.809   9.651   3.395  0.3721  0.1479 -0.3658
23790SOL    HW174002   9.888   9.628   3.444 -0.6288  0.6270  1.5407
23790SOL    HW274003   9.739   9.652   3.460 -1.0295  0.8140 -1.8145
23791SOL     OW74004  10.162   9.716   0.632  0.2507 -0.3705 -0.0647
23791SOL    HW174005  10.143   9.798   0.587 -0.7018 -0.6418 -0.1787
23791SOL    HW274006  10.218   9.668   0.571 -1.8009 -1.1420 -1.4385
23792SOL     OW74007   5.319   7.336   7.442 -0.4043  0.0901  0.0880
23792SOL    HW174008   5.295   7.422   7.477 -0.0537 -0.3251  1.4033
23792SOL    HW274009   5.404   7.317   7.482  0.2955 -0.1901 -1.4353
23793SOL     OW74010   9.533   2.114   1.924 -0.8152 -0.3258  0.2513
23793SOL    HW174011   9.615   2.087   1.882 -0.2905  1.6047 -0.0415
23793SOL    HW274012   9.481   2.152   1.853 -1.0108  0.5606  0.8584
23794SOL     OW74013   1.765   8.924   8.181  0.0294  0.1352 -0.0835
23794SOL    HW174014   1.858   8.921   8.161  1.0187  1.4850  3.4618
23794SOL    HW274015   1.725   8.967   8.105  2.9081  2.8240 -0.2934
23795SOL     OW74016   9.141   1.707   1.351  0.1884 -0.1544 -0.3629
23795SOL    HW174017   9.210   1.741   1.408 -1.0214  1.6609  0.0830
23795SOL    HW274018   9.160   1.744   1.265  0.1294 -0.1783 -0.3864
23796SOL     OW74019   0.552   5.919   3.974  1.2240  0.2662  0.1308
23796SOL    HW174020   0.596   5.840   4.005  0.1551 -0.6300 -0.5633
23796SOL    HW274021   0.516   5.959   4.053  1.0548 -0.3999  0.3967
23797SOL     OW74022   4.706   3.712   2.552 -0.0004  0.6548 -0.3913
23797SOL    HW174023   4.702   3.620   2.526  1.1182  0.2895  0.7059
23797SOL    HW274024   4.768   3.752   2.490  0.2556  0.4680 -0.2535
23798SOL     OW74025   7.728   9.028   3.211 -0.3370 -0.0206  0.4039
23798SOL    HW174026   7.783   9.036   3.133 -1.1250  0.7808 -0.0932
23798SOL    HW274027   7.785   9.052   3.284  1.1009 -2.9891  0.4108
23799SOL     OW74028   2.085   1.345   9.940  0.4151 -0.7204  0.4963
23799SOL    HW174029   2.065   1.286   9.868 -0.0771  0.2268 -0.1779
23799SOL    HW274030   2.005   1.398   9.950  0.6923 -0.4475  1.3454
23800SOL     OW74031   8.273   7.860   5.203  0.1039  0.3827 -0.1969
23800SOL    HW174032   8.203   7.923   5.186  0.3348  1.0145  1.0511
23800SOL    HW274033   8.353   7.905   5.175  0.3114  0.8223  1.0409
23801SOL     OW74034   1.121   5.580   2.887 -0.1787  0.0605 -0.1373
23801SOL    HW174035   1.148   5.536   2.968 -0.4087 -0.2489 -0.2260
23801SOL    HW274036   1.047   5.635   2.913 -0.5847 -0.4321 -0.2337
23802SOL     OW74037   5.569   9.855   3.683 -0.2343  0.3314  0.0304
23802SOL    HW174038   5.572   9.771   3.729  0.2915 -0.3844 -1.2493
23802SOL    HW274039   5.646   9.853   3.626  0.9399  2.5598  1.4245
23803SOL     OW74040   5.308   5.504   2.908 -0.8684  0.3855  0.5837
23803SOL    HW174041   5.376   5.557   2.948 -1.0250  0.4457  0.7704
23803SOL    HW274042   5.337   5.414   2.920  1.0168  0.4201 -2.4942
23804SOL     OW74043   3.763   7.676   6.614 -0.5243 -0.4245  0.1149
23804SOL    HW174044   3.829   7.652   6.679 -0.3865  1.6031  0.7754
23804SOL    HW274045   3.711   7.744   6.656 -0.8822  0.4312 -1.6354
23805SOL     OW74046   7.391   2.785   2.595  0.1127 -0.1356 -0.8657
23805SOL    HW174047   7.425   2.826   2.515 -0.8697  0.1450 -1.1593
23805SOL    HW274048   7.469   2.761   2.645  0.7428  1.6890 -0.8966
23806SOL     OW74049   4.469   8.085   1.649 -0.2154  0.6410 -0.4265
23806SOL    HW174050   4.404   8.016   1.665 -1.0137  1.3827 -0.4031
23806SOL    HW274051   4.512   8.096   1.734  0.8155 -0.7054 -0.7430
23807SOL     OW74052   4.758   8.574   8.223 -0.1508  0.2100 -0.1172
23807SOL    HW174053   4.727   8.492   8.259  0.9698  0.0057  0.4276
23807SOL    HW274054   4.801   8.618   8.296  0.9434  0.4066 -0.8408
23808SOL     OW74055   3.186   6.453   3.882 -0.0250  0.6917 -0.3460
23808SOL    HW174056   3.246   6.380   3.896 -0.0607  0.8952  0.9714
23808SOL    HW274057   3.215   6.492   3.799  0.7811 -0.0575 -0.4270
23809SOL     OW74058   9.790   0.149   9.157 -0.0967  0.1771  0.1663
23809SOL    HW174059   9.809   0.061   9.190 -2.1079  0.1108  1.3166
23809SOL    HW274060   9.767   0.200   9.235 -1.1696  1.0968 -0.7169
23810SOL     OW74061   9.263   1.834   0.466  0.2783  0.0627  0.0436
23810SOL    HW174062   9.286   1.849   0.558  2.2172 -2.3954  0.0420
23810SOL    HW274063   9.330   1.882   0.417  0.8891 -0.8688 -0.0438
23811SOL     OW74064   6.939   1.574   2.005 -0.5653 -0.5665  0.1609
23811SOL    HW174065   6.971   1.630   2.075  1.4097 -0.7086 -0.5810
23811SOL    HW274066   6.848   1.603   1.991 -0.5115  0.4798  1.7107
23812SOL     OW74067   2.915   1.339   3.560 -0.3167  0.6001 -0.4028
23812SOL    HW174068   2.850   1.375   3.619 -1.5054 -0.8184 -0.7923
23812SOL    HW274069   2.999   1.364   3.599 -1.0708  1.0692  0.9957
23813SOL     OW74070   5.864   7.545   7.403  0.2106  0.1718  1.2029
23813SOL    HW174071   5.853   7.581   7.491  1.9379  2.0496  0.7304
23813SOL    HW274072   5.787   7.576   7.354 -0.2755 -0.0837  1.8024
23814SOL     OW74073   4.123   9.268   3.888  0.0697 -0.1827 -0.4376
23814SOL    HW174074   4.205   9.219   3.877 -0.2611 -0.8109 -0.1730
23814SOL    HW274075   4.132   9.311   3.973  0.2960  0.0861 -0.5972
23815SOL     OW74076   4.231   5.102   7.952 -0.3539  0.5739  0.1360
23815SOL    HW174077   4.282   5.172   7.911  0.8718 -0.8207 -0.8133
23815SOL    HW274078   4.295   5.033   7.970 -1.5155 -0.2833  1.1366
23816SOL     OW74079   5.081   5.928   8.257 -0.9097 -0.5809  0.6204
23816SOL    HW174080   5.119   5.928   8.345  1.2139 -1.6719 -0.2319
23816SOL    HW274081   5.110   6.011   8.218 -1.0417 -0.5361  0.6158
23817SOL     OW74082   9.127   7.014   2.817  0.1126 -0.1483  0.3463
23817SOL    HW174083   9.126   7.109   2.833  2.6956 -0.1061  0.6742
23817SOL    HW274084   9.216   6.996   2.789 -0.7637 -2.2710 -1.3586
23818SOL     OW74085   4.691   8.104   2.496 -0.0463  0.1376 -0.2750
23818SOL    HW174086   4.624   8.161   2.460  1.5679  0.8358 -2.3450
23818SOL    HW274087   4.764   8.163   2.517  0.0061 -0.6020  1.8914
23819SOL     OW74088   4.447   1.295   1.866 -0.3546 -0.5106  0.0422
23819SOL    HW174089   4.416   1.321   1.953  0.3410  0.4261  0.0265
23819SOL    HW274090   4.541   1.316   1.867 -0.5703  0.6537 -1.3402
23820SOL     OW74091   9.015   6.208   3.034  0.3180  0.1510 -0.2567
23820SOL    HW174092   8.985   6.293   3.066  0.5374 -0.4098  1.5436
23820SOL    HW274093   9.103   6.198   3.070  0.4008 -0.7389 -0.6623
23821SOL     OW74094   7.383   1.050  10.116  0.2211  0.3048 -0.7519
23821SOL    HW174095   7.428   1.118  10.167 -2.2114  1.0076  0.5984
23821SOL    HW274096   7.377   1.086  10.028  0.8688  0.8777 -0.5718
23822SOL     OW74097   2.133   1.297  10.204  0.2192 -0.9004  0.4416
23822SOL    HW174098   2.187   1.374  10.222 -1.1967  0.0618  0.7835
23822SOL    HW274099   2.107   1.306  10.113 -0.1541 -0.8412  0.5526
23823SOL     OW74100   7.695   1.457   3.945  0.1091 -0.4608 -0.6068
23823SOL    HW174101   7.696   1.552   3.956 -1.5483 -0.4882  0.0033
23823SOL    HW274102   7.730   1.423   4.028  1.4481 -0.4061 -1.1141
23824SOL     OW74103   6.903   0.738   3.217 -0.4465  0.1034  0.2815
23824SOL    HW174104   6.919   0.654   3.259  1.5992  0.1256 -0.3413
23824SOL    HW274105   6.897   0.800   3.290  1.1118 -0.1449  0.6564
23825SOL     OW74106   8.705   6.126   7.692  0.0035 -0.1552  0.2188
23825SOL    HW174107   8.614   6.157   7.692 -0.5392 -1.5687 -1.4591
23825SOL    HW274108   8.707   6.060   7.761 -0.5310 -0.7873 -0.3476
23826SOL     OW74109   5.184   4.780   9.462  0.3102  1.0631 -0.2878
23826SOL    HW174110   5.186   4.870   9.496  0.9418  1.3763 -1.0976
23826SOL    HW274111   5.192   4.791   9.367  2.3525  0.1000 -0.2852
23827SOL     OW74112   3.152   3.554   5.355  0.2233 -0.4631  0.0257
23827SOL    HW174113   3.237   3.536   5.315  1.2181  0.6370  1.5599
23827SOL    HW274114   3.170   3.621   5.421 -1.7043 -0.7772  0.9315
23828SOL     OW74115   3.093   3.026   6.858  0.9923 -0.0092 -0.2820
23828SOL    HW174116   3.020   3.087   6.871  1.2462 -0.1384  2.3715
23828SOL    HW274117   3.164   3.080   6.823  1.0242  1.1779  1.4715
23829SOL     OW74118   2.102   0.129   2.632 -0.3314 -0.0088 -0.0397
23829SOL    HW174119   2.047   0.172   2.698 -0.0305 -1.1524  0.9949
23829SOL    HW274120   2.040   0.090   2.571 -0.6747 -0.9300  0.8814
23830SOL     OW74121   6.265   9.100   0.634  0.7577 -0.4475  0.4514
23830SOL    HW174122   6.274   9.134   0.723  0.3450  0.1688  0.2638
23830SOL    HW274123   6.274   9.005   0.644 -0.2319 -0.4743  1.2933
23831SOL     OW74124   1.446   6.677   7.832  0.3855  0.4128 -0.0191
23831SOL    HW174125   1.479   6.710   7.748  0.9155  1.0721  0.4333
23831SOL    HW274126   1.439   6.755   7.887 -1.3410  0.1858  0.1117
23832SOL     OW74127   5.359  10.167   0.766 -0.0547 -0.0183 -0.7071
23832SOL    HW174128   5.323  10.083   0.794 -0.0699 -0.2247 -1.3424
23832SOL    HW274129   5.345  10.225   0.841  0.0426 -0.6045 -0.2264
23833SOL     OW74130   0.693   7.314   3.067  0.4245 -0.1590  0.3220
23833SOL    HW174131   0.600   7.338   3.068  0.1329 -1.2327  0.7510
23833SOL    HW274132   0.695   7.227   3.107  1.8201  0.5117  1.7653
23834SOL     OW74133   2.242   2.892   9.188  0.3064 -0.0567 -0.1760
23834SOL    HW174134   2.171   2.955   9.203  1.2801  0.7997  1.0111
23834SOL    HW274135   2.222   2.853   9.103 -0.5803  1.4988 -0.7119
23835SOL     OW74136   4.585   0.729   4.413 -0.2694  0.4231 -0.4109
23835SOL    HW174137   4.568   0.741   4.319  1.5190 -0.0832 -0.8424
23835SOL    HW274138   4.575   0.635   4.427 -3.1557  0.7668  0.5420
23836SOL     OW74139   1.392   0.904   9.671 -0.6237 -0.5664  0.5049
23836SOL    HW174140   1.480   0.940   9.682 -0.9658  0.7045 -0.6690
23836SOL    HW274141   1.405   0.809   9.666  0.8524 -0.3322 -0.9369
23837SOL     OW74142   0.024   4.254   5.782 -0.4091  0.3196  0.4159
23837SOL    HW174143   0.076   4.282   5.707 -0.7828  1.3147  0.5083
23837SOL    HW274144  -0.039   4.191   5.747  1.7858 -2.1311  0.5503
23838SOL     OW74145   5.962   5.538   1.197 -0.3110 -0.7130  0.1999
23838SOL    HW174146   5.895   5.582   1.143  1.3898 -0.1655 -1.5851
23838SOL    HW274147   5.961   5.587   1.279 -1.9709 -0.6251  0.1801
23839SOL     OW74148   1.116   8.113   0.928  0.3774  0.0660 -0.1237
23839SOL    HW174149   1.055   8.136   0.998 -0.3848  1.4870 -1.1940
23839SOL    HW274150   1.177   8.187   0.925 -1.1065  1.3300 -2.5522
23840SOL     OW74151   6.458   3.646   8.598  0.1722 -0.2553 -0.9601
23840SOL    HW174152   6.471   3.704   8.523 -2.4546  1.0082 -0.5525
23840SOL    HW274153   6.410   3.571   8.563 -0.0561 -0.2120 -0.7411
23841SOL     OW74154   5.190   6.752   0.919 -0.4409  0.2135  1.0420
23841SOL    HW174155   5.222   6.697   0.991  1.4505 -1.1772 -0.7269
23841SOL    HW274156   5.117   6.703   0.883 -0.1988 -0.0221  0.8679
23842SOL     OW74157   4.705   4.180   1.535  0.0855  0.0888  0.1169
23842SOL    HW174158   4.788   4.194   1.580  0.3710 -1.2153  0.0256
23842SOL    HW274159   4.709   4.238   1.458  0.8779  0.0783  0.1505
23843SOL     OW74160   3.205   8.771  10.340  0.3187  0.3228  0.3000
23843SOL    HW174161   3.175   8.805  10.424  0.3325 -0.4011  0.6052
23843SOL    HW274162   3.127   8.731  10.302  0.5070 -0.0925  0.3466
23844SOL     OW74163   5.578   6.880   7.611 -0.8172  0.0293 -0.2665
23844SOL    HW174164   5.507   6.921   7.659 -2.4826 -1.4148 -1.3501
23844SOL    HW274165   5.586   6.793   7.650 -0.1013 -0.0691 -0.6143
23845SOL     OW74166   5.873   3.100   4.231  0.1486 -0.0138  0.5380
23845SOL    HW174167   5.923   3.160   4.176 -0.0493 -0.6358 -0.3561
23845SOL    HW274168   5.803   3.153   4.269 -1.0517  0.0078 -1.5757
23846SOL     OW74169   4.584   7.436   6.543  0.5890  0.1780  0.0502
23846SOL    HW174170   4.530   7.358   6.528  0.3870  0.6920 -2.1781
23846SOL    HW274171   4.659   7.404   6.592 -0.0435 -1.2002  0.1574
23847SOL     OW74172   5.266   7.540   6.563 -0.4882 -0.1106  0.0964
23847SOL    HW174173   5.245   7.570   6.475  0.5111  0.4832  0.0491
23847SOL    HW274174   5.221   7.602   6.620 -0.5406 -0.0640  0.0047
23848SOL     OW74175   6.840   9.757   2.745 -0.1314  0.6778  0.2733
23848SOL    HW174176   6.922   9.800   2.769  0.4253 -0.7983  1.1769
23848SOL    HW274177   6.780   9.776   2.818 -1.0844  2.8436 -0.9753
23849SOL     OW74178   3.902   9.072   7.590  0.2603 -0.2868 -0.0840
23849SOL    HW174179   3.907   8.995   7.533 -1.6425 -1.6392  1.4674
23849SOL    HW274180   3.863   9.140   7.535  0.1688 -0.9961 -0.9202
23850SOL     OW74181   9.919   9.984   2.753 -0.1322 -0.2596 -0.1584
23850SOL    HW174182   9.906   9.889   2.747  2.7091 -0.7387 -0.2802
23850SOL    HW274183   9.957  10.008   2.668 -0.7430  0.9972 -0.0943
23851SOL     OW74184   0.570   2.985   0.386 -0.5145  0.2076 -0.0569
23851SOL    HW174185   0.620   3.049   0.438  0.3235  0.1312 -0.7508
23851SOL    HW274186   0.508   2.947   0.449 -1.1079  1.7598  0.3626
23852SOL     OW74187   0.269   8.354   7.050  0.4718 -0.3191 -0.1895
23852SOL    HW174188   0.276   8.259   7.053 -1.8040 -0.5553  2.6707
23852SOL    HW274189   0.246   8.374   6.960  2.7575 -2.2293 -1.3091
23853SOL     OW74190   3.331   9.636   5.926  0.0800 -0.1277 -0.2394
23853SOL    HW174191   3.251   9.602   5.967  0.2730  0.8481  0.9984
23853SOL    HW274192   3.309   9.726   5.904  0.7312  0.0307 -0.2335
23854SOL     OW74193   4.452   4.427   7.516  0.5233 -0.1341 -0.0503
23854SOL    HW174194   4.440   4.371   7.593  2.8250 -0.4823  0.1205
23854SOL    HW274195   4.432   4.516   7.548  2.6790 -0.0863  1.3711
23855SOL     OW74196   1.383   3.937   9.044  0.5546  0.1426  0.1621
23855SOL    HW174197   1.390   3.987   9.125 -0.4078  1.3030 -0.4387
23855SOL    HW274198   1.450   3.974   8.987  1.9142 -1.3490  0.7346
23856SOL     OW74199   8.190   0.756  10.242 -0.1122 -0.4613 -0.2041
23856SOL    HW174200   8.244   0.766  10.320 -0.1236 -0.4854 -0.1935
23856SOL    HW274201   8.252   0.735  10.172  0.0553  0.7808 -0.4568
23857SOL     OW74202   1.031   0.503   6.299 -0.3009  0.1230  0.3555
23857SOL    HW174203   1.029   0.591   6.338 -0.9295  0.8452 -1.1984
23857SOL    HW274204   1.067   0.447   6.367  0.2962  1.6244  1.3248
23858SOL     OW74205   8.366   1.641   0.886  0.0111  0.1021  0.1802
23858SOL    HW174206   8.288   1.681   0.849  0.3619  0.9166  0.2991
23858SOL    HW274207   8.337   1.554   0.914 -0.9859  0.5811  0.7061
23859SOL     OW74208   0.828   3.273   9.809 -0.7746  0.1099  0.1857
23859SOL    HW174209   0.811   3.192   9.858 -1.9463  0.7645  0.9357
23859SOL    HW274210   0.903   3.313   9.853 -0.2037 -0.5536 -0.1779
23860SOL     OW74211   8.992  10.286   5.194 -0.6544  0.2858  0.5350
23860SOL    HW174212   9.065  10.225   5.199 -1.4555 -0.7771 -0.1898
23860SOL    HW274213   8.923  10.238   5.147 -0.6535  2.4225 -1.8822
23861SOL     OW74214   5.729   2.208   9.013 -0.0113  0.5414  0.7943
23861SOL    HW174215   5.670   2.251   8.952  0.0680 -1.3001 -0.6431
23861SOL    HW274216   5.677   2.140   9.055  0.8857 -0.6978 -0.0363
23862SOL     OW74217   4.992   2.442   0.063 -0.4114 -0.0230 -0.1340
23862SOL    HW174218   5.022   2.517   0.113 -2.0846  1.5516 -1.3826
23862SOL    HW274219   5.069   2.384   0.058  0.6395  1.1550  1.6160
23863SOL     OW74220   2.693   0.253  10.057  0.6839  0.0684 -0.0327
23863SOL    HW174221   2.650   0.322  10.108  2.0037 -0.6357  2.1956
23863SOL    HW274222   2.781   0.287  10.041  1.1842 -0.8464  0.6551
23864SOL     OW74223   5.022   5.283   8.825 -0.2964  0.4451 -0.7548
23864SOL    HW174224   5.011   5.205   8.770 -0.0486 -0.6417  0.6709
23864SOL    HW274225   4.949   5.279   8.887  0.0451  1.0365 -0.3045
23865SOL     OW74226   7.118   8.469   4.091 -0.0343 -0.4809 -0.3027
23865SOL    HW174227   7.150   8.528   4.159  0.1571 -0.6168 -0.2725
23865SOL    HW274228   7.088   8.392   4.139  0.4086 -0.7132 -0.3951
23866SOL     OW74229   0.862   9.641   4.012  0.1322 -0.7436  0.8700
23866SOL    HW174230   0.810   9.570   3.976 -0.9762  0.6720 -0.4910
23866SOL    HW274231   0.800   9.695   4.060  1.0085 -0.8405  2.1482
23867SOL     OW74232   9.893   0.187   9.886  0.4912  0.0438  0.0566
23867SOL    HW174233   9.952   0.188   9.811 -1.0917  0.9102 -1.2367
23867SOL    HW274234   9.936   0.242   9.951  2.6769 -2.0284  0.4902
23868SOL     OW74235   3.851   5.019   7.317  0.3527  0.0192  0.1096
23868SOL    HW174236   3.845   5.005   7.223  0.0974 -0.9270  0.2536
23868SOL    HW274237   3.849   5.114   7.328  0.0663  0.1265 -0.8186
23869SOL     OW74238   5.384   6.007   3.574 -0.0392 -0.0369  0.4399
23869SOL    HW174239   5.292   6.025   3.555  0.2592 -0.1117 -1.2573
23869SOL    HW274240   5.384   5.919   3.611 -0.7609  0.4671  1.6867
23870SOL     OW74241   4.703   0.908   1.873 -0.4328  0.0880 -0.4451
23870SOL    HW174242   4.669   0.993   1.846 -1.1636 -0.2219 -0.5305
23870SOL    HW274243   4.694   0.908   1.969  1.4071  0.8671 -0.2205
23871SOL     OW74244   5.270   4.426   4.470 -1.1210 -0.2691 -0.0483
23871SOL    HW174245   5.254   4.336   4.442  0.6883 -0.9184  0.8484
23871SOL    HW274246   5.225   4.480   4.405 -0.5384 -1.7784 -1.7937
23872SOL     OW74247   5.844   4.155   7.032  0.4073  0.3558  0.0615
23872SOL    HW174248   5.893   4.238   7.031 -0.8156  1.1140  0.3697
23872SOL    HW274249   5.787   4.160   6.956 -3.7454  2.4500  2.8998
23873SOL     OW74250   3.732   7.969   1.979 -0.5923 -1.0237  0.7780
23873SOL    HW174251   3.813   7.991   2.024  0.0222  0.5606 -1.0117
23873SOL    HW274252   3.663   8.004   2.036  0.1368  0.3471  0.8552
23874SOL     OW74253   4.954   1.309   7.001 -0.1973  0.1627 -0.2995
23874SOL    HW174254   4.910   1.325   7.084  0.2378 -2.5278  0.5523
23874SOL    HW274255   4.890   1.259   6.950  0.4583 -0.4585 -0.5338
23875SOL     OW74256   3.223   3.776   8.410  0.3535  0.1019  0.2765
23875SOL    HW174257   3.295   3.739   8.359 -0.9798 -1.9597 -0.2335
23875SOL    HW274258   3.170   3.824   8.347  0.0180 -0.3810  0.1890
23876SOL     OW74259   2.102   4.247   4.099 -0.1618 -0.4431 -0.2432
23876SOL    HW174260   2.190   4.259   4.063 -0.1391  1.7967  0.4016
23876SOL    HW274261   2.055   4.327   4.074 -1.9811 -1.5166 -0.4169
23877SOL     OW74262   4.666   7.274   8.319  0.5003 -0.3107 -0.0076
23877SOL    HW174263   4.705   7.187   8.311  1.2931  0.1270 -1.2832
23877SOL    HW274264   4.739   7.334   8.305  0.9026  0.7307  4.8903
23878SOL     OW74265   6.938   7.649   6.359 -0.2953  0.0348 -0.3773
23878SOL    HW174266   6.966   7.735   6.390  3.8829 -1.2376 -0.0206
23878SOL    HW274267   6.952   7.591   6.433 -2.3565 -1.1560 -0.8352
23879SOL     OW74268   6.024   4.271   6.571 -0.2425 -0.1394  0.2556
23879SOL    HW174269   6.119   4.261   6.563 -0.2504 -1.1368  1.2032
23879SOL    HW274270   6.007   4.276   6.665 -1.0948  0.4012  0.0823
23880SOL     OW74271   3.753   5.609   6.515 -0.1269 -0.2508 -0.2864
23880SOL    HW174272   3.702   5.680   6.553 -0.3710 -0.3584 -0.4106
23880SOL    HW274273   3.750   5.539   6.581  0.7190  0.1115  0.1528
23881SOL     OW74274   6.560   6.285   4.951  0.1657 -0.1799  0.7130
23881SOL    HW174275   6.498   6.252   5.016 -1.7027  0.0212 -0.8684
23881SOL    HW274276   6.548   6.228   4.875  0.6087  0.9908 -0.2705
23882SOL     OW74277   4.520   3.884   3.921  0.3231 -0.0496  0.4697
23882SOL    HW174278   4.493   3.960   3.869  0.5431 -0.5442 -0.3896
23882SOL    HW274279   4.560   3.921   4.000 -0.5954  0.7097  0.5880
23883SOL     OW74280   4.643   5.877   3.106 -0.4336 -0.0736 -0.0222
23883SOL    HW174281   4.611   5.815   3.041 -0.4194  0.6180 -0.7084
23883SOL    HW274282   4.566   5.929   3.129 -0.3341 -0.0033  0.1542
23884SOL     OW74283   8.024   6.822   3.920 -0.4172  0.0495  0.5207
23884SOL    HW174284   8.046   6.895   3.863 -1.3790 -0.1542 -0.1464
23884SOL    HW274285   8.075   6.836   4.000  2.9530 -0.9706 -1.2605
23885SOL     OW74286   9.361   6.792   1.505  0.0415  0.2744 -1.0130
23885SOL    HW174287   9.345   6.857   1.437 -2.9647 -0.5427 -1.2007
23885SOL    HW274288   9.316   6.713   1.475  1.1895 -1.0539  0.5380
23886SOL     OW74289   6.159   5.408   1.323 -0.0324  0.4196  0.4012
23886SOL    HW174290   6.165   5.325   1.277 -2.1468 -0.5241  1.6721
23886SOL    HW274291   6.102   5.462   1.269  0.9139  0.8837 -0.1582
23887SOL     OW74292   5.526   3.081   3.149 -0.0109 -0.0252  0.0102
23887SOL    HW174293   5.613   3.104   3.114  0.3853 -0.3449  0.7602
23887SOL    HW274294   5.528   2.986   3.157 -0.8147 -0.1388 -0.9294
23888SOL     OW74295   7.066   2.151   1.690 -0.3994  0.1191 -0.3038
23888SOL    HW174296   7.099   2.191   1.610  0.4279  0.4103  0.1606
23888SOL    HW274297   7.118   2.191   1.760 -0.7657 -0.4814  0.3320
23889SOL     OW74298   0.012   3.530   5.505 -0.4233  0.2396 -0.0758
23889SOL    HW174299   0.037   3.528   5.597 -1.1855  0.0985  0.1351
23889SOL    HW274300   0.034   3.618   5.476  0.6600  0.0083 -0.0120
23890SOL     OW74301   0.697   3.113  10.117  0.0879 -0.4866  0.1412
23890SOL    HW174302   0.643   3.060  10.059 -1.8939  0.5398  0.9446
23890SOL    HW274303   0.722   3.053  10.188 -0.1383 -0.9390 -0.1592
23891SOL     OW74304   9.377   1.277   0.534  0.1388  0.0506 -0.1564
23891SOL    HW174305   9.393   1.187   0.504 -0.5412  0.0464 -0.5259
23891SOL    HW274306   9.282   1.289   0.524  0.1880  0.7227  0.1374
23892SOL     OW74307   4.031   5.545   7.714  0.4874  0.6259 -0.2844
23892SOL    HW174308   4.091   5.589   7.653  0.2185  0.6409 -0.5452
23892SOL    HW274309   4.000   5.468   7.665  0.7711  0.2809  0.0798
23893SOL     OW74310   5.442   9.598   1.583  0.0936  0.1979  0.0499
23893SOL    HW174311   5.379   9.620   1.515  1.1903  1.1380 -0.7039
23893SOL    HW274312   5.389   9.572   1.658 -1.2016  1.7243 -0.2990
23894SOL     OW74313   6.244   5.725   0.773 -0.2531  0.4935  0.0389
23894SOL    HW174314   6.170   5.720   0.712 -1.7164 -1.3955  1.8131
23894SOL    HW274315   6.211   5.687   0.854  3.1295 -2.0483  0.4728
23895SOL     OW74316   1.691   2.931   8.349 -0.3415  0.3469  0.2525
23895SOL    HW174317   1.602   2.930   8.313 -0.2503  2.6034 -0.1290
23895SOL    HW274318   1.690   3.002   8.413  1.1087  0.1949  0.4701
23896SOL     OW74319   9.895   4.552   9.282  0.0794 -0.0131  0.4685
23896SOL    HW174320   9.921   4.480   9.225  0.0210  0.0708  0.3344
23896SOL    HW274321   9.968   4.614   9.277 -0.5550  0.6913 -0.7027
23897SOL     OW74322   1.957   7.632   9.014  0.2582  0.0756  0.1104
23897SOL    HW174323   2.024   7.693   8.983 -0.3194  0.7497  0.1909
23897SOL    HW274324   1.993   7.597   9.095  1.8725 -1.8262 -1.2967
23898SOL     OW74325   7.646   3.717   5.755  0.1397 -0.5927 -0.1056
23898SOL    HW174326   7.741   3.720   5.771  0.3480  0.3530 -1.3205
23898SOL    HW274327   7.635   3.762   5.671 -1.5765  1.0057  0.8943
23899SOL     OW74328   8.772   5.006   2.487 -0.1073 -0.0251  0.0580
23899SOL    HW174329   8.840   4.944   2.513 -0.4109 -0.0583  0.8051
23899SOL    HW274330   8.796   5.033   2.399 -0.1328 -1.4537 -0.4181
23900SOL     OW74331   3.313   4.109   7.494 -0.0750  0.6594  0.3142
23900SOL    HW174332   3.292   4.019   7.470 -2.5270  1.2440 -0.0265
23900SOL    HW274333   3.355   4.145   7.415 -0.0120  0.0949  0.0859
23901SOL     OW74334   4.700   6.711   1.373 -0.1444 -0.5568  0.6553
23901SOL    HW174335   4.738   6.759   1.299  0.4349  0.5266  1.6199
23901SOL    HW274336   4.644   6.775   1.417 -1.5456 -1.5672  0.4175
23902SOL     OW74337   4.801   9.842   3.052  0.3363 -0.2335 -0.3391
23902SOL    HW174338   4.785   9.749   3.063  0.7205 -0.5049 -1.8463
23902SOL    HW274339   4.737   9.885   3.109  0.7593 -1.4043  1.0710
23903SOL     OW74340   8.921   1.599   6.057  0.3505  0.3078  0.0208
23903SOL    HW174341   8.916   1.576   6.150 -2.2434 -2.9932 -0.7226
23903SOL    HW274342   8.873   1.682   6.050 -0.6755 -0.1103  1.4964
23904SOL     OW74343   0.630   6.772   0.807 -0.0816  0.5707 -0.7100
23904SOL    HW174344   0.600   6.801   0.893 -2.8871  0.2331 -1.4619
23904SOL    HW274345   0.702   6.831   0.785 -0.1005  1.4239  1.3298
23905SOL     OW74346   8.925   1.506   3.172 -0.0493  0.7540 -0.2824
23905SOL    HW174347   8.896   1.415   3.170  0.8982  0.4364 -0.3146
23905SOL    HW274348   9.020   1.501   3.159  0.0357  1.7379 -0.1399
23906SOL     OW74349   8.728   1.710   7.659  0.1707 -0.0249 -0.0156
23906SOL    HW174350   8.670   1.785   7.644  0.9149  0.8111  1.1595
23906SOL    HW274351   8.772   1.729   7.741  0.6602 -1.5948  0.1218
23907SOL     OW74352   7.448   3.112   7.568  0.0367 -0.4281 -0.1259
23907SOL    HW174353   7.376   3.091   7.628  2.6346 -0.4505  3.3090
23907SOL    HW274354   7.443   3.206   7.556 -1.3068 -0.5966 -1.0438
23908SOL     OW74355   1.933   0.375   1.603 -0.2613 -0.2499 -0.2497
23908SOL    HW174356   1.902   0.404   1.517 -1.3368 -0.5478  0.0207
23908SOL    HW274357   1.958   0.456   1.647 -3.6441  0.4961  0.6597
23909SOL     OW74358   6.139   3.088   9.369  0.3068 -0.6995 -0.1946
23909SOL    HW174359   6.216   3.033   9.385  0.7998  0.1307  0.3400
23909SOL    HW274360   6.100   3.050   9.290  1.3032 -1.0931 -0.5267
23910SOL     OW74361   4.762   6.442   1.046 -0.5455  0.1874 -0.2036
23910SOL    HW174362   4.803   6.457   1.132  2.8992  0.9323 -1.7892
23910SOL    HW274363   4.684   6.497   1.047 -0.9028 -0.2160  2.5945
23911SOL     OW74364   1.778  10.313   6.980  0.2862  0.0475  0.0208
23911SOL    HW174365   1.775  10.232   6.931 -0.2304 -0.5277  0.9661
23911SOL    HW274366   1.866  10.317   7.016  0.5390  0.2746 -0.6187
23912SOL     OW74367   9.891   1.708   6.574 -0.0859 -0.5828  0.1367
23912SOL    HW174368   9.884   1.616   6.549 -1.2305 -0.7654  1.0215
23912SOL    HW274369   9.800   1.739   6.574  0.0716 -0.0311  1.8771
23913SOL     OW74370   4.933   0.690   8.249 -0.2457 -0.2739 -0.6046
23913SOL    HW174371   4.893   0.606   8.272 -0.7493  0.2084  0.3421
23913SOL    HW274372   4.935   0.690   8.153  0.2634 -1.5941 -0.6236
23914SOL     OW74373   8.693   0.997   9.043 -0.4253 -0.4127 -0.0298
23914SOL    HW174374   8.753   1.017   9.115  0.6796  0.4123 -1.1357
23914SOL    HW274375   8.680   1.081   8.999 -1.8416 -0.7162 -0.2546
23915SOL     OW74376   1.710   7.414   9.235 -0.0522  0.4501  0.2826
23915SOL    HW174377   1.704   7.412   9.139 -0.5808  1.8370  0.2543
23915SOL    HW274378   1.652   7.344   9.264 -0.4638  0.4857 -0.4142
23916SOL     OW74379   9.369   8.142   0.696  0.3077 -0.2840  0.0986
23916SOL    HW174380   9.280   8.111   0.677  0.1422 -0.1141  0.5629
23916SOL    HW274381   9.382   8.122   0.789  0.3408  0.6677  0.3159
23917SOL     OW74382   3.946   2.247   8.428 -0.4418  0.0395 -0.5616
23917SOL    HW174383   4.019   2.308   8.414 -2.3095  2.5414 -0.1928
23917SOL    HW274384   3.911   2.272   8.514 -1.3669 -1.5274 -0.4520
23918SOL     OW74385   2.823   3.075   8.852  0.5137  0.5295  0.4622
23918SOL    HW174386   2.788   3.154   8.811 -1.3255 -0.9176 -0.9619
23918SOL    HW274387   2.837   3.099   8.943  0.4612  2.6241 -0.0455
23919SOL     OW74388   3.591   1.699   9.868 -0.2009 -0.6418 -0.2454
23919SOL    HW174389   3.609   1.790   9.842  0.9858 -1.0858 -1.0846
23919SOL    HW274390   3.666   1.675   9.923 -1.6868 -0.3779  2.0553
23920SOL     OW74391   8.344   7.104   8.355  0.2880 -0.2969  0.1299
23920SOL    HW174392   8.379   7.015   8.348  1.8685  0.1626  1.5565
23920SOL    HW274393   8.385   7.151   8.282  0.1767 -0.5276 -0.0817
23921SOL     OW74394   9.950   8.108   9.196 -0.3898  0.2048  0.0635
23921SOL    HW174395   9.898   8.076   9.122 -0.2572  2.0491 -0.9051
23921SOL    HW274396   9.911   8.067   9.273 -1.1332 -1.0421 -0.9387
23922SOL     OW74397   7.980   3.905   4.032 -0.0803 -0.0262 -0.1139
23922SOL    HW174398   7.902   3.890   4.086 -0.8638 -0.6587 -1.3696
23922SOL    HW274399   7.988   3.825   3.979  1.4895 -0.0057  0.0664
23923SOL     OW74400   2.375   5.891   0.152 -0.1505  0.3367 -0.5397
23923SOL    HW174401   2.362   5.966   0.094 -2.0864  0.5375  0.0744
23923SOL    HW274402   2.309   5.902   0.220 -1.1748 -2.4482 -0.9657
23924SOL     OW74403   0.542   5.241   2.686 -0.0484  1.2173  0.0547
23924SOL    HW174404   0.473   5.307   2.681 -0.5824  0.5883 -1.5841
23924SOL    HW274405   0.525   5.194   2.768 -1.0525  1.6093  0.0802
23925SOL     OW74406   3.548   9.975   5.034  0.2041  0.2652 -0.3634
23925SOL    HW174407   3.483  10.030   5.077 -1.6785 -3.2489  1.6806
23925SOL    HW274408   3.502   9.933   4.962  0.4859 -1.3074  0.3226
23926SOL     OW74409   2.190   3.452   6.730 -0.1930 -0.3604  0.0074
23926SOL    HW174410   2.152   3.484   6.812  0.3000 -0.2395  0.1944
23926SOL    HW274411   2.201   3.530   6.676  1.5278 -0.0945  0.6766
23927SOL     OW74412   9.593   1.297   2.883 -0.2413  0.2936 -0.1279
23927SOL    HW174413   9.522   1.239   2.856  2.5718 -2.5973 -2.1336
23927SOL    HW274414   9.607   1.354   2.807  0.0770  0.2746 -0.0838
23928SOL     OW74415   9.659   1.723   2.419 -0.4877 -0.0838 -0.2791
23928SOL    HW174416   9.595   1.654   2.440  0.3856 -0.7945  0.0827
23928SOL    HW274417   9.705   1.739   2.501 -1.0781  1.3805 -0.2085
23929SOL     OW74418   6.411   2.919   9.757 -0.3895  0.5007 -0.3167
23929SOL    HW174419   6.324   2.953   9.736  0.0599  2.7755  1.1579
23929SOL    HW274420   6.455   2.992   9.801  2.6579 -0.2017 -1.9601
23930SOL     OW74421   8.828   8.573   7.552  0.1626 -0.5204 -0.0371
23930SOL    HW174422   8.914   8.608   7.529 -0.4959  0.9531 -0.3966
23930SOL    HW274423   8.786   8.554   7.468  0.2557 -1.5531  0.1425
23931SOL     OW74424   7.838   9.943   6.864  0.4071 -0.2396  0.2502
23931SOL    HW174425   7.751   9.975   6.841  0.9554  0.4303 -1.0094
23931SOL    HW274426   7.824   9.854   6.894 -0.8096  0.1486  0.9150
23932SOL     OW74427   9.857   2.646   1.226  0.2143  0.4894 -0.0317
23932SOL    HW174428   9.905   2.726   1.205 -2.3345  2.1114 -0.2044
23932SOL    HW274429   9.766   2.667   1.204 -0.6946 -2.1505  0.8370
23933SOL     OW74430   5.886   2.873   7.953  0.6723 -0.2567 -0.0717
23933SOL    HW174431   5.903   2.958   7.912  0.9312 -0.7597 -1.0560
23933SOL    HW274432   5.861   2.817   7.880  1.8916 -1.3941  0.3430
23934SOL     OW74433   3.026   6.220   5.082 -0.1218  0.1358  0.5759
23934SOL    HW174434   2.950   6.259   5.039  0.9875  0.7088 -0.9431
23934SOL    HW274435   3.010   6.126   5.079  0.0971  0.1230 -1.5263
23935SOL     OW74436   7.738   7.676   9.358  0.0103  0.3681 -0.4155
23935SOL    HW174437   7.778   7.735   9.422  0.7236  0.7596 -1.1899
23935SOL    HW274438   7.701   7.605   9.410 -1.9752  2.0750  0.6610
23936SOL     OW74439   7.285   0.057   6.501  0.5128 -0.3727 -0.2180
23936SOL    HW174440   7.346   0.066   6.574 -0.5840 -0.2726  0.7041
23936SOL    HW274441   7.202   0.092   6.534 -0.0980 -0.6548 -1.3943
23937SOL     OW74442   6.540   6.485   2.050  1.2908 -0.1707  0.0169
23937SOL    HW174443   6.544   6.437   1.967  0.5001  1.0685 -0.7869
23937SOL    HW274444   6.532   6.577   2.023  1.1135  0.2630  1.4773
23938SOL     OW74445   1.558  10.057   7.769 -0.3990 -0.4783  0.5411
23938SOL    HW174446   1.519   9.973   7.795 -0.4434  0.1089  2.5947
23938SOL    HW274447   1.492  10.122   7.793 -0.0931  0.2006 -0.4231
23939SOL     OW74448   4.776   7.212   5.119 -0.7025  0.2495 -0.5246
23939SOL    HW174449   4.817   7.293   5.090  0.1185 -0.0939 -0.3583
23939SOL    HW274450   4.741   7.233   5.206 -0.3714  0.3909 -0.4239
23940SOL     OW74451   9.136   6.135   0.728 -0.4424  0.0705 -0.3726
23940SOL    HW174452   9.124   6.158   0.636  1.8265  1.3392 -0.4162
23940SOL    HW274453   9.231   6.134   0.740 -0.6892  1.3532  2.2840
23941SOL     OW74454   2.712   7.673   3.996 -0.4765  0.4887 -0.2825
23941SOL    HW174455   2.748   7.695   4.082 -1.6504  2.2964 -0.2087
23941SOL    HW274456   2.785   7.686   3.936 -0.2369  1.4726  0.1926
23942SOL     OW74457   4.913   6.954   3.816 -0.5714 -0.5350  0.0440
23942SOL    HW174458   4.996   7.001   3.810 -0.9133 -0.0090 -0.7164
23942SOL    HW274459   4.935   6.870   3.856  0.7812 -1.4603 -2.4139
23943SOL     OW74460   2.270   2.278   9.447  0.5344 -0.2477 -0.1569
23943SOL    HW174461   2.343   2.337   9.465  1.2471 -0.8435 -1.0056
23943SOL    HW274462   2.283   2.205   9.508 -0.1807  0.3161  0.6889
23944SOL     OW74463   3.722   1.862   1.146  0.1841 -0.1878  0.2017
23944SOL    HW174464   3.718   1.767   1.162 -3.8608 -0.5980 -1.7707
23944SOL    HW274465   3.755   1.899   1.227 -1.9028 -3.0954  2.5856
23945SOL     OW74466   9.840   7.554   6.707  0.2509  0.7478  0.9197
23945SOL    HW174467   9.926   7.595   6.704 -0.1730  1.6079 -1.2015
23945SOL    HW274468   9.858   7.462   6.726  1.7412  0.7358 -0.3708
23946SOL     OW74469   9.390   3.429   7.706 -0.2111  0.7417  0.7740
23946SOL    HW174470   9.409   3.353   7.650  3.0630  0.8607  1.5356
23946SOL    HW274471   9.335   3.393   7.776 -1.4161 -0.1724 -0.5873
23947SOL     OW74472   7.985   6.852   9.568 -0.5857 -0.1245  0.7794
23947SOL    HW174473   8.056   6.870   9.629 -0.2545  0.1141  0.3299
23947SOL    HW274474   7.914   6.911   9.595  0.0689  1.0275  0.0541
23948SOL     OW74475   0.448   8.952   0.466 -0.4126 -0.2021  0.2148
23948SOL    HW174476   0.369   8.918   0.425 -1.2712  0.2695  1.4177
23948SOL    HW274477   0.467   8.889   0.536 -0.7150  0.5649  1.0104
23949SOL     OW74478   0.656   7.377   5.711 -0.4048 -0.1647 -0.2034
23949SOL    HW174479   0.678   7.324   5.788  0.6368 -0.7657 -0.8789
23949SOL    HW274480   0.663   7.468   5.742  0.4203 -0.3891  0.3191
23950SOL     OW74481   9.855   0.922   6.526  0.4060 -0.0600  0.0071
23950SOL    HW174482   9.881   0.837   6.491 -0.5700 -2.0966  3.7079
23950SOL    HW274483   9.906   0.985   6.475  0.6794 -2.7100 -3.3723
23951SOL     OW74484   7.273   3.818   9.019  0.5229  0.9583  0.0410
23951SOL    HW174485   7.213   3.744   9.012  1.3135  0.1537  1.4072
23951SOL    HW274486   7.235   3.885   8.962 -1.1075  0.1176  0.0840
23952SOL     OW74487   2.937   8.073   2.545  0.2251 -0.1024  0.0706
23952SOL    HW174488   2.923   8.079   2.639 -1.2869 -2.0199  0.0447
23952SOL    HW274489   2.913   8.160   2.512 -0.0665  0.3388  1.3710
23953SOL     OW74490   9.487   5.523   8.671  0.2728 -0.2452  0.3578
23953SOL    HW174491   9.569   5.499   8.628 -0.6426 -1.1889 -0.9816
23953SOL    HW274492   9.496   5.616   8.691  2.0746 -0.5649  1.2467
23954SOL     OW74493   3.220   2.198   8.683 -0.6400  0.7444 -0.3325
23954SOL    HW174494   3.188   2.169   8.598  1.5374 -1.5181 -0.5182
23954SOL    HW274495   3.315   2.196   8.675 -0.2531  4.9331  0.8336
23955SOL     OW74496   6.554   0.042   4.260 -0.3454  0.1963  0.3832
23955SOL    HW174497   6.489   0.089   4.208  0.1566  0.1268 -0.3303
23955SOL    HW274498   6.508  -0.034   4.293 -0.9997  0.8578  1.0310
23956SOL     OW74499   4.485   3.301   4.464 -0.0493 -0.3777 -0.1150
23956SOL    HW174500   4.392   3.318   4.478 -0.1903  0.2626 -1.6220
23956SOL    HW274501   4.488   3.246   4.385  0.8122 -1.2668  0.5065
23957SOL     OW74502   4.389   5.791   0.253  0.0431 -0.4401  0.0995
23957SOL    HW174503   4.319   5.759   0.197 -0.4079  1.9385 -0.8351
23957SOL    HW274504   4.369   5.884   0.265  1.5099 -0.3173  2.1683
23958SOL     OW74505   2.220   8.830   8.639  1.1051  0.5447 -0.0033
23958SOL    HW174506   2.275   8.805   8.564  2.0383  2.5680 -0.0528
23958SOL    HW274507   2.277   8.817   8.715  0.8631  0.4505  0.1598
23959SOL     OW74508   2.617   4.677   4.797  0.0979  0.0684 -0.1835
23959SOL    HW174509   2.686   4.618   4.827 -0.0457  0.1504  0.3032
23959SOL    HW274510   2.608   4.657   4.704 -0.1201 -0.8433  0.0305
23960SOL     OW74511   2.590   7.882   5.829  0.1225 -0.1332  0.0557
23960SOL    HW174512   2.665   7.896   5.771  0.1638 -1.7398 -0.3183
23960SOL    HW274513   2.625   7.894   5.917  0.6749 -0.2314 -0.1472
23961SOL     OW74514  10.318   5.244   2.633 -0.4283  0.0545  0.0938
23961SOL    HW174515  10.402   5.199   2.638 -0.9953 -1.0244  0.1254
23961SOL    HW274516  10.295   5.263   2.724  0.2468  1.2760  0.0331
23962SOL     OW74517   2.396   3.528   4.421  0.6799  0.2010 -0.3478
23962SOL    HW174518   2.374   3.619   4.403  1.5630  0.6197  0.6445
23962SOL    HW274519   2.470   3.508   4.363  0.1449 -0.0674 -0.9568
23963SOL     OW74520   6.032   7.002   6.200  0.1783  0.1464  0.2511
23963SOL    HW174521   6.107   7.050   6.237 -0.3181  2.1227 -1.1501
23963SOL    HW274522   5.956   7.055   6.223 -0.4904 -0.4038 -0.6353
23964SOL     OW74523   0.724   7.080   4.956  0.6850  0.2461  0.0104
23964SOL    HW174524   0.790   7.115   5.016 -0.3716  3.0454 -0.2853
23964SOL    HW274525   0.730   7.136   4.878 -0.4299 -0.9745 -1.0057
23965SOL     OW74526   4.797   3.616   4.184 -0.7712 -0.4674  0.1379
23965SOL    HW174527   4.775   3.643   4.095  2.3300 -0.8869 -0.8546
23965SOL    HW274528   4.809   3.521   4.178  1.0676 -0.2969  0.5571
23966SOL     OW74529   9.992   8.628   8.197  0.5230  0.4555  0.0763
23966SOL    HW174530  10.058   8.570   8.236 -1.1533 -0.9143  1.0005
23966SOL    HW274531   9.937   8.654   8.271  0.5503  2.3345 -0.5285
23967SOL     OW74532   6.128   6.544   9.384  0.6655 -0.1094  0.0865
23967SOL    HW174533   6.159   6.461   9.421 -0.5839 -0.8296 -0.3936
23967SOL    HW274534   6.118   6.526   9.291 -1.5527 -0.0908  0.2551
23968SOL     OW74535   9.727   3.576   4.006 -0.2120 -0.3187 -0.0560
23968SOL    HW174536   9.762   3.569   4.095  0.7976  0.1758 -0.4023
23968SOL    HW274537   9.694   3.488   3.987 -1.3854 -0.1736  1.1787
23969SOL     OW74538   9.992   7.124   2.086  0.0295 -0.3156 -0.0315
23969SOL    HW174539  10.024   7.149   2.000 -0.0028 -0.8626 -0.2015
23969SOL    HW274540  10.005   7.203   2.140  0.6809 -0.1971 -0.3570
23970SOL     OW74541   2.016   6.104   1.119  0.0630 -0.2086 -0.6812
23970SOL    HW174542   2.089   6.090   1.179  1.3385  2.2274 -1.5184
23970SOL    HW274543   1.964   6.024   1.126  0.1354 -0.1457  3.6042
23971SOL     OW74544   5.332   7.163   5.525 -0.3686  0.2216  0.6408
23971SOL    HW174545   5.412   7.182   5.476 -1.0727 -1.3589 -1.2719
23971SOL    HW274546   5.362   7.127   5.608  0.8873  0.4645  0.3074
23972SOL     OW74547   1.796   9.385   3.132 -0.6663  0.3909  0.3387
23972SOL    HW174548   1.760   9.310   3.083  1.2324 -0.5493  0.3094
23972SOL    HW274549   1.753   9.461   3.093 -1.0131 -0.5138 -1.1320
23973SOL     OW74550   9.971   4.481   2.483  0.4920 -0.3014  0.3236
23973SOL    HW174551   9.905   4.541   2.518  1.2561  0.2166  0.9064
23973SOL    HW274552   9.922   4.402   2.461 -1.0225  1.2882 -2.7468
23974SOL     OW74553   5.744   4.225   8.644  0.4769 -0.1772  0.2080
23974SOL    HW174554   5.786   4.310   8.661 -1.2983  0.7457  0.2256
23974SOL    HW274555   5.768   4.204   8.554 -0.0248  0.9681 -0.2176
23975SOL     OW74556   6.255   4.498   6.251 -0.5304 -0.1670 -0.2392
23975SOL    HW174557   6.284   4.498   6.342  1.8033 -2.5855 -0.8579
23975SOL    HW274558   6.163   4.470   6.255 -0.4197 -0.3892  1.3654
23976SOL     OW74559   4.369   3.795   3.594 -0.1841 -0.8490  1.1345
23976SOL    HW174560   4.402   3.720   3.644  0.9557 -0.5180  0.8980
23976SOL    HW274561   4.443   3.855   3.588 -0.7939 -0.1389  0.4693
23977SOL     OW74562   6.857   9.689   3.861  0.4412  0.1245 -0.1491
23977SOL    HW174563   6.917   9.630   3.816  0.2904 -1.2255  1.3179
23977SOL    HW274564   6.776   9.640   3.870 -0.9985  1.9424 -2.1472
23978SOL     OW74565   8.149   2.990   5.390 -0.3773 -0.0586  0.1956
23978SOL    HW174566   8.206   3.037   5.329 -0.2848  1.2175  1.2253
23978SOL    HW274567   8.208   2.959   5.459 -0.4125 -1.8622 -0.5136
23979SOL     OW74568   1.946   7.600   1.883 -0.1679 -0.1176  0.5645
23979SOL    HW174569   1.865   7.596   1.933 -0.9704  1.1087 -0.5699
23979SOL    HW274570   1.939   7.681   1.833  1.9408  0.2287  0.7360
23980SOL     OW74571   8.841   3.094   3.962  0.3424 -0.0539  0.4492
23980SOL    HW174572   8.771   3.039   3.928 -0.2966  1.3528 -0.6510
23980SOL    HW274573   8.859   3.156   3.891  1.1906  0.9954  1.5366
23981SOL     OW74574   9.361   3.092   2.056  0.4331 -0.5550  0.8787
23981SOL    HW174575   9.407   3.008   2.051 -0.6063 -1.2032  1.7630
23981SOL    HW274576   9.306   3.093   1.978  1.0053 -0.3408  0.4703
23982SOL     OW74577   2.660   7.979   7.452 -0.1125 -0.0527  0.5014
23982SOL    HW174578   2.624   7.964   7.365  1.0238  1.3020 -0.2500
23982SOL    HW274579   2.747   8.015   7.436  0.6869 -1.0486  2.2188
23983SOL     OW74580   5.042   8.662   3.355  0.3881  0.1897 -0.5729
23983SOL    HW174581   4.973   8.681   3.292  0.7399  1.2073 -0.6750
23983SOL    HW274582   5.038   8.567   3.368 -0.6211  0.1605 -1.0313
23984SOL     OW74583   9.713   5.656   2.020  0.1907 -0.0139  0.0721
23984SOL    HW174584   9.734   5.608   2.100  2.4126  1.1056  0.2383
23984SOL    HW274585   9.728   5.593   1.950  1.7173 -0.0215  0.3670
23985SOL     OW74586   4.672   5.185   4.512  0.0908 -0.1318  0.7515
23985SOL    HW174587   4.764   5.163   4.526  0.8529  1.4163 -1.2971
23985SOL    HW274588   4.647   5.237   4.588  1.1901  0.1712  0.9113
23986SOL     OW74589   0.917  10.190   4.344  0.3335 -0.5621 -0.1205
23986SOL    HW174590   0.873  10.254   4.289  1.7041  0.7788  0.2499
23986SOL    HW274591   0.903  10.106   4.301 -0.0171  0.2364 -1.6079
23987SOL     OW74592   5.007   8.854   8.412  0.1460  0.6562 -0.3590
23987SOL    HW174593   5.074   8.888   8.471 -0.2779  0.1432  0.4352
23987SOL    HW274594   4.926   8.895   8.442 -0.1202  0.1500 -0.3755
23988SOL     OW74595   6.485   2.112  10.358  0.4246 -0.5007  0.3217
23988SOL    HW174596   6.537   2.059  10.298  0.8041 -0.7570  0.8636
23988SOL    HW274597   6.395   2.107  10.324  0.6865 -0.3749 -0.3981
23989SOL     OW74598   5.452   2.059   2.092 -0.2642 -0.2864  0.3841
23989SOL    HW174599   5.447   2.077   2.186 -2.8203  0.0774  0.2329
23989SOL    HW274600   5.517   1.990   2.084 -0.0612 -0.3799  2.4255
23990SOL     OW74601   0.256   3.009   0.580 -0.0812 -0.0062  0.0659
23990SOL    HW174602   0.335   2.975   0.622 -0.6937 -0.7132  0.6548
23990SOL    HW274603   0.268   3.104   0.581 -0.1603  0.0158  2.0281
23991SOL     OW74604   5.247   6.691   7.866 -0.5740 -0.4698 -0.0561
23991SOL    HW174605   5.169   6.729   7.906 -0.3722  1.9731 -1.7972
23991SOL    HW274606   5.318   6.749   7.893  0.3394 -1.4782 -0.1978
23992SOL     OW74607   2.909   2.042   7.341  0.2467  0.1318 -0.0533
23992SOL    HW174608   2.925   1.948   7.349  3.1762  0.5158 -0.2753
23992SOL    HW274609   2.918   2.075   7.430 -0.9885  0.2301  0.0577
23993SOL     OW74610   8.330   3.990   9.102 -0.2875  0.2145 -0.0802
23993SOL    HW174611   8.347   4.020   9.013 -0.6812  1.2406  0.1776
23993SOL    HW274612   8.325   4.071   9.154 -0.7241 -0.3358  0.7563
23994SOL     OW74613   0.383   5.530   7.276  0.0146 -0.0399  0.1663
23994SOL    HW174614   0.313   5.491   7.223 -0.6030  1.2419  0.0129
23994SOL    HW274615   0.457   5.471   7.264 -0.1091  0.1784 -2.1204
23995SOL     OW74616   9.385   5.571   6.208 -0.1581 -0.1762 -0.6320
23995SOL    HW174617   9.418   5.651   6.247  0.2437 -0.7111  0.1607
23995SOL    HW274618   9.456   5.540   6.151  0.5384 -1.0517  0.6703
23996SOL     OW74619   5.424   7.221   3.858 -0.5742 -0.1389 -0.1815
23996SOL    HW174620   5.503   7.168   3.847 -0.0124  0.6249  0.1450
23996SOL    HW274621   5.436   7.296   3.800 -1.4385 -0.4235 -0.7578
23997SOL     OW74622   9.983   6.375   2.604 -0.2438 -0.1145  0.0535
23997SOL    HW174623   9.976   6.424   2.686 -0.0150 -0.2738  0.1698
23997SOL    HW274624  10.025   6.436   2.543  0.6876 -0.3957  0.3981
23998SOL     OW74625   2.884   7.380   2.727 -0.1111  0.0308  0.3889
23998SOL    HW174626   2.976   7.370   2.751 -0.1041  0.3811  0.5102
23998SOL    HW274627   2.850   7.446   2.787 -0.7664 -1.0004  1.1885
23999SOL     OW74628   7.509   0.460   3.142 -0.5585  0.0773  0.5383
23999SOL    HW174629   7.461   0.391   3.097  0.2758 -0.1548 -0.0213
23999SOL    HW274630   7.583   0.479   3.085  1.1216 -0.9190  2.2497
24000SOL     OW74631   7.806   0.470   6.321  0.0773  0.1511  0.2552
24000SOL    HW174632   7.739   0.442   6.382  0.7587 -1.4315  0.3276
24000SOL    HW274633   7.829   0.391   6.272  0.3509  1.1231 -1.2770
24001SOL     OW74634  10.032   8.292   2.255 -0.6472  0.3492  0.0174
24001SOL    HW174635  10.050   8.198   2.258  0.4223  0.4829 -1.4844
24001SOL    HW274636   9.946   8.299   2.214 -0.6668  0.0481  0.0039
24002SOL     OW74637   7.349   3.421   0.540 -0.1150  0.1651  0.1817
24002SOL    HW174638   7.427   3.475   0.543 -0.4082  0.7582 -1.5082
24002SOL    HW274639   7.289   3.460   0.603  0.0842  1.1691 -0.2388
24003SOL     OW74640   6.167   5.524   4.682 -0.0263 -0.3763  0.0657
24003SOL    HW174641   6.115   5.444   4.681 -2.1160  0.8534  1.7014
24003SOL    HW274642   6.136   5.572   4.759  1.8033  1.6035 -0.3321
24004SOL     OW74643   6.819   5.779   9.855  0.6472  0.5844 -0.2185
24004SOL    HW174644   6.883   5.810   9.791  1.4169  0.0375  0.2694
24004SOL    HW274645   6.859   5.702   9.894  0.5079  1.3172  1.4357
24005SOL     OW74646   3.661   9.593   6.442 -0.3780  0.3288 -0.0897
24005SOL    HW174647   3.636   9.628   6.357 -1.6158 -0.5115 -0.1054
24005SOL    HW274648   3.735   9.535   6.424 -0.8202 -0.0666 -0.6442
24006SOL     OW74649   4.929   1.450   9.469 -0.1375 -0.1854 -0.1094
24006SOL    HW174650   4.878   1.481   9.394  0.6743  0.4908 -0.3967
24006SOL    HW274651   4.954   1.360   9.444 -1.0270 -0.4631 -0.0363
24007SOL     OW74652   5.614   7.006   0.190  0.0881  0.2456 -0.0677
24007SOL    HW174653   5.540   7.044   0.142 -0.5632  0.1248  0.8087
24007SOL    HW274654   5.678   6.985   0.123 -0.8189  0.0484 -0.8911
24008SOL     OW74655   0.349   4.706   8.725  0.0497 -0.1329 -0.7136
24008SOL    HW174656   0.418   4.744   8.780 -0.1593  0.7055 -1.0193
24008SOL    HW274657   0.394   4.640   8.672  0.5427  0.1375 -0.6392
24009SOL     OW74658   8.806   6.069   2.216  0.2887 -0.3791 -0.0383
24009SOL    HW174659   8.780   6.039   2.129 -0.3535  0.6682 -0.2164
24009SOL    HW274660   8.866   6.142   2.200 -0.7330  0.5767  0.3800
24010SOL     OW74661   3.161   2.746   9.618 -0.3561  0.4667  0.0947
24010SOL    HW174662   3.136   2.662   9.656 -0.3825  0.4720  0.0889
24010SOL    HW274663   3.096   2.808   9.651 -0.4073  0.4621  0.0019
24011SOL     OW74664   6.075   4.606   9.263  0.5682 -0.0782  0.1006
24011SOL    HW174665   6.164   4.588   9.233  1.3400 -0.9947  2.6809
24011SOL    HW274666   6.086   4.662   9.340 -1.1486  0.2811  0.1349
24012SOL     OW74667   9.936   2.667   3.617  0.4389  0.9743  0.6716
24012SOL    HW174668   9.857   2.708   3.654  0.6412  2.0301 -0.0256
24012SOL    HW274669   9.949   2.712   3.534  1.1144 -0.0119  0.2347
24013SOL     OW74670   8.246   1.449   1.684  0.3767  0.1388  0.8856
24013SOL    HW174671   8.200   1.393   1.622  2.5083  1.5344 -2.2387
24013SOL    HW274672   8.179   1.511   1.715 -0.8072 -0.7467  0.1595
24014SOL     OW74673   0.484   2.569   8.402 -0.1977  0.3619 -0.4953
24014SOL    HW174674   0.515   2.551   8.491  0.7573 -0.3138 -0.9439
24014SOL    HW274675   0.434   2.650   8.410 -0.0659  0.3519  0.6412
24015SOL     OW74676   5.040   5.604   0.535 -0.1855 -0.0657 -0.2677
24015SOL    HW174677   5.044   5.523   0.484  0.8649  0.1690 -0.5928
24015SOL    HW274678   4.972   5.588   0.600 -0.1659 -1.1179 -0.4839
24016SOL     OW74679   8.756   1.000   4.003  0.6227  0.2062  0.5952
24016SOL    HW174680   8.723   0.990   3.914  1.5952 -1.7057  0.4085
24016SOL    HW274681   8.761   1.095   4.016  0.3178  0.5244 -1.3155
24017SOL     OW74682   1.818   7.369   4.651  0.3002  0.0989 -0.3190
24017SOL    HW174683   1.767   7.325   4.719  0.0856  0.8025 -0.0071
24017SOL    HW274684   1.907   7.372   4.685  0.2431  0.2260 -0.1804
24018SOL     OW74685   3.464   4.806   9.147  0.4076 -0.1562  0.0380
24018SOL    HW174686   3.449   4.716   9.117 -0.9079  0.3965 -1.0556
24018SOL    HW274687   3.442   4.803   9.241  0.9922 -1.1035  0.1600
24019SOL     OW74688   3.766   0.685   4.418 -0.5647  0.5133 -0.2157
24019SOL    HW174689   3.729   0.760   4.371  3.6065  1.2249 -2.8978
24019SOL    HW274690   3.830   0.724   4.478 -1.2458 -0.7741  1.4171
24020SOL     OW74691   9.531   1.978   8.097  0.5466  0.0098 -0.0619
24020SOL    HW174692   9.549   2.061   8.054  2.8084  0.0168  0.7713
24020SOL    HW274693   9.608   1.961   8.151 -0.8121 -1.5442  1.5291
24021SOL     OW74694   5.274   5.623  10.056 -0.0547 -0.0799 -0.0984
24021SOL    HW174695   5.308   5.633  10.145  1.8860 -0.5184 -0.7433
24021SOL    HW274696   5.186   5.661  10.060  0.4948  1.1593  1.6785
24022SOL     OW74697   4.374   5.623   0.576 -0.7050 -0.1334 -0.2338
24022SOL    HW174698   4.287   5.625   0.536 -1.3011  0.3961  1.0493
24022SOL    HW274699   4.405   5.713   0.571 -0.1821 -0.3393 -0.7710
24023SOL     OW74700  10.123   2.758   2.227 -0.2016  0.3844 -0.6881
24023SOL    HW174701  10.179   2.788   2.299  0.4471 -1.5549 -0.3330
24023SOL    HW274702  10.075   2.836   2.200 -0.7891  1.0876  2.1195
24024SOL     OW74703   6.255   7.070  10.104 -0.0605 -0.0590 -0.5245
24024SOL    HW174704   6.229   7.153  10.065 -0.5713 -0.2078 -0.5126
24024SOL    HW274705   6.303   7.025  10.034 -0.1436  0.0719 -0.6657
24025SOL     OW74706   9.405   1.618   8.316 -0.8708  0.1072  0.0288
24025SOL    HW174707   9.480   1.619   8.257 -1.4995  0.2376 -0.7924
24025SOL    HW274708   9.355   1.697   8.293 -0.5961  0.7347  1.4516
24026SOL     OW74709   1.293   8.145   0.341 -0.0525  0.1645 -0.1403
24026SOL    HW174710   1.381   8.125   0.372 -0.9904 -0.7989  2.1805
24026SOL    HW274711   1.299   8.145   0.246  2.2003 -1.0312 -0.0473
24027SOL     OW74712   3.108   7.181   9.167  0.0442 -0.0588 -0.2093
24027SOL    HW174713   3.178   7.142   9.219  0.5217  1.5874  0.4678
24027SOL    HW274714   3.108   7.274   9.193 -0.4963  0.5791 -2.2739
24028SOL     OW74715   1.369   9.681   9.582 -0.2592  0.4405 -0.3263
24028SOL    HW174716   1.382   9.607   9.523 -0.4892 -0.1845  0.3989
24028SOL    HW274717   1.342   9.753   9.524 -2.2678 -0.6214 -0.8129
24029SOL     OW74718   5.617   4.945   4.589  0.1166 -0.3587 -0.1062
24029SOL    HW174719   5.711   4.926   4.592  0.4700  0.8833 -1.9170
24029SOL    HW274720   5.608   5.025   4.641  0.1835 -0.0776 -0.5239
24030SOL     OW74721   8.405   9.779   1.365 -0.5152 -0.0982  0.5305
24030SOL    HW174722   8.417   9.811   1.454  0.7051 -0.6209  0.5808
24030SOL    HW274723   8.391   9.685   1.376 -0.2932 -0.1733  0.1730
24031SOL     OW74724   3.299   0.013   0.542  0.3026 -0.8035  0.3938
24031SOL    HW174725   3.318  -0.080   0.532  2.3471 -0.3858 -0.1962
24031SOL    HW274726   3.344   0.039   0.622 -0.6507 -0.4001  0.8168
24032SOL     OW74727   5.403   6.637   5.655 -0.5639 -0.0250 -0.1736
24032SOL    HW174728   5.318   6.643   5.612 -0.6395  0.3107  0.0172
24032SOL    HW274729   5.421   6.543   5.660 -0.2027 -0.0618 -1.6156
24033SOL     OW74730   1.356   0.002   2.826  0.7277 -0.6574 -0.1734
24033SOL    HW174731   1.451   0.011   2.828  0.8608 -1.8230 -0.7044
24033SOL    HW274732   1.332   0.019   2.735  0.2053  1.4070  0.2905
24034SOL     OW74733  10.128   1.711   9.952  0.2429 -0.0963 -0.5535
24034SOL    HW174734  10.079   1.752  10.024 -0.8177 -1.0052 -0.7284
24034SOL    HW274735  10.132   1.779   9.885  0.1346  0.3387 -0.1306
24035SOL     OW74736   4.706   6.821   8.604  0.2263 -0.5004  0.5497
24035SOL    HW174737   4.718   6.760   8.678 -0.1528 -2.1557 -0.6881
24035SOL    HW274738   4.627   6.871   8.627  0.9036  0.0029  1.8819
24036SOL     OW74739   1.429   9.396   7.530  0.1379 -0.0400  0.1780
24036SOL    HW174740   1.475   9.312   7.525 -0.4511 -0.3254 -0.7531
24036SOL    HW274741   1.337   9.374   7.518 -0.0391  0.7256  0.0448
24037SOL     OW74742   9.820   0.692   4.337 -0.2930  0.2016 -0.3970
24037SOL    HW174743   9.853   0.631   4.404  0.2564  1.2228  0.3021
24037SOL    HW274744   9.731   0.711   4.364 -0.5509 -0.4723 -0.7564
24038SOL     OW74745   2.831   1.252   9.372  0.4023 -0.2470 -0.7753
24038SOL    HW174746   2.789   1.170   9.398 -0.6170 -0.3117 -2.5127
24038SOL    HW274747   2.895   1.226   9.306  0.2759  0.3246 -1.1271
24039SOL     OW74748   4.609   9.930   0.333  0.0766  0.0515 -0.1561
24039SOL    HW174749   4.696   9.931   0.375  0.2845  0.1540 -0.5848
24039SOL    HW274750   4.618   9.870   0.260 -0.4159 -0.4702  0.2057
24040SOL     OW74751   1.807   6.246   0.515 -0.7305  0.3349  0.4500
24040SOL    HW174752   1.895   6.285   0.517 -0.8411  0.6580 -0.6710
24040SOL    HW274753   1.751   6.315   0.479 -1.3847 -0.0048  0.8048
24041SOL     OW74754   2.501   3.802   1.929  0.0441 -0.3771 -0.1717
24041SOL    HW174755   2.432   3.768   1.873 -0.5350  0.1308  0.2194
24041SOL    HW274756   2.455   3.860   1.991  0.8401  0.1138 -0.0302
24042SOL     OW74757   1.787   9.268   3.546  0.1856  0.2624  0.2616
24042SOL    HW174758   1.742   9.221   3.476  2.1065 -0.3877 -0.5812
24042SOL    HW274759   1.779   9.360   3.522 -0.3757  0.1400 -0.0536
24043SOL     OW74760  10.195   4.281   4.075  0.1555 -0.2675 -0.1869
24043SOL    HW174761  10.153   4.272   4.160  1.6604  1.7355  0.8661
24043SOL    HW274762  10.255   4.207   4.070  0.7188  0.0919  0.9349
24044SOL     OW74763   4.683   8.751   1.675  0.1398  0.4107 -0.3821
24044SOL    HW174764   4.647   8.836   1.700  0.6779  0.5834 -0.1815
24044SOL    HW274765   4.759   8.740   1.732  0.1290 -0.1592 -0.4774
24045SOL     OW74766   0.799   6.602   1.585  0.1721 -0.1402 -0.0097
24045SOL    HW174767   0.882   6.642   1.559  0.9555 -1.5430  0.2762
24045SOL    HW274768   0.749   6.595   1.504 -0.2034  1.8527  0.0022
24046SOL     OW74769   1.819   5.797   7.764 -0.0544 -0.1968  0.3778
24046SOL    HW174770   1.736   5.790   7.810 -0.0820 -0.5405  0.2741
24046SOL    HW274771   1.868   5.864   7.812  0.3218 -1.2579  1.5111
24047SOL     OW74772   1.819   0.171   9.583 -0.5314 -0.2514 -0.2101
24047SOL    HW174773   1.911   0.168   9.557 -0.5717  1.9370 -0.8154
24047SOL    HW274774   1.820   0.205   9.672 -0.6556 -3.2604  1.0543
24048SOL     OW74775   5.682   4.576   6.363  0.0251 -0.1271  0.3130
24048SOL    HW174776   5.685   4.653   6.420 -0.5310 -1.8161  2.7862
24048SOL    HW274777   5.711   4.504   6.419 -2.8815 -2.2972 -0.7255
24049SOL     OW74778   8.295   4.772   5.727  0.0612  0.5082  0.0623
24049SOL    HW174779   8.289   4.810   5.814 -1.1884 -0.1196  0.2804
24049SOL    HW274780   8.242   4.830   5.672 -0.0531  0.2985 -0.0516
24050SOL     OW74781   3.363   5.772   8.527 -0.4755  0.2061 -0.6374
24050SOL    HW174782   3.378   5.771   8.433  0.8303  0.9950 -0.4677
24050SOL    HW274783   3.393   5.858   8.555  1.8316 -0.9835  0.8726
24051SOL     OW74784   2.203  10.194   1.178 -0.3763 -0.0881  0.3258
24051SOL    HW174785   2.233  10.246   1.253  1.3415 -0.9207  0.2719
24051SOL    HW274786   2.108  10.186   1.190 -0.5467  2.2290  0.8259
24052SOL     OW74787   7.805   4.597   0.908  0.3213 -0.1623  0.2422
24052SOL    HW174788   7.822   4.551   0.826 -0.5406  1.1955 -0.7341
24052SOL    HW274789   7.786   4.687   0.882  0.2980  0.3702  1.9589
24053SOL     OW74790   7.148   0.095   8.309  0.5781  0.2604 -0.0262
24053SOL    HW174791   7.091   0.155   8.261  0.0187 -0.1432  0.1108
24053SOL    HW274792   7.215   0.069   8.246 -0.2290 -0.3720 -0.6467
24054SOL     OW74793   3.515   9.158   3.770 -0.0134  0.1193 -0.5512
24054SOL    HW174794   3.573   9.117   3.706 -0.2494  0.3152 -0.8928
24054SOL    HW274795   3.548   9.247   3.780  0.1159  0.0415 -0.2847
24055SOL     OW74796   6.162   2.567   8.658  0.6835  0.0801  0.1881
24055SOL    HW174797   6.241   2.541   8.611  1.3490  1.6670  0.3702
24055SOL    HW274798   6.182   2.552   8.750  0.6321  0.1212  0.2066
24056SOL     OW74799   2.281   7.343   9.091  0.1281 -0.0480 -0.1263
24056SOL    HW174800   2.357   7.387   9.052  0.7101 -0.0444  0.9769
24056SOL    HW274801   2.317   7.267   9.135 -0.3382  0.5364  1.3449
24057SOL     OW74802   0.084   6.735   5.240  0.1410  0.2789  0.1067
24057SOL    HW174803   0.055   6.763   5.153 -1.9537 -1.2285  0.2336
24057SOL    HW274804   0.050   6.646   5.249 -0.0693  0.5399  2.6217
24058SOL     OW74805   1.394   3.604  10.245  0.1342 -0.3000 -0.1223
24058SOL    HW174806   1.421   3.599  10.336 -0.0126  1.4881  0.0571
24058SOL    HW274807   1.457   3.663  10.204  0.5207 -1.4852 -1.3326
24059SOL     OW74808   8.607   8.746   2.437  0.6422 -0.8915  0.0271
24059SOL    HW174809   8.629   8.805   2.365  1.6647 -0.0394  0.9940
24059SOL    HW274810   8.686   8.742   2.490 -0.6560  0.1662  2.2166
24060SOL     OW74811   2.201   9.921   8.336 -0.2410  0.5639 -0.9520
24060SOL    HW174812   2.211   9.831   8.308 -1.0758  0.4803 -1.0045
24060SOL    HW274813   2.195   9.971   8.255  0.2841  0.6818 -0.9236
24061SOL     OW74814   7.343   0.521   6.425  0.1218  0.3080 -0.4109
24061SOL    HW174815   7.252   0.489   6.424 -0.3099  1.4047  1.2057
24061SOL    HW274816   7.337   0.612   6.399  0.7386  0.4562 -0.0460
24062SOL     OW74817   5.263   2.271   4.210  0.2249 -0.3440  0.2360
24062SOL    HW174818   5.285   2.344   4.268 -1.6376 -0.0812  0.6849
24062SOL    HW274819   5.257   2.310   4.123  3.2189 -0.7735 -0.2766
24063SOL     OW74820  10.195   8.139   3.289  0.2880  0.6581 -0.2943
24063SOL    HW174821  10.190   8.226   3.329 -1.4115  1.3792 -1.9264
24063SOL    HW274822  10.105   8.107   3.288  0.8519 -1.0533  0.0741
24064SOL     OW74823   1.996   0.659   6.052 -0.6816  0.4906  0.3085
24064SOL    HW174824   2.019   0.727   5.989  0.1508  0.3431  0.4443
24064SOL    HW274825   2.079   0.621   6.078 -1.1070 -0.2777  0.5823
24065SOL     OW74826   1.723   1.900   0.750 -0.1799 -0.1200 -0.1806
24065SOL    HW174827   1.744   1.812   0.717  0.0851 -0.2165  0.2351
24065SOL    HW274828   1.748   1.959   0.679 -1.3750 -0.4483 -0.8960
24066SOL     OW74829   4.403   1.888   8.324 -0.2555 -0.2581 -0.3304
24066SOL    HW174830   4.399   1.793   8.335 -0.0387 -0.3144 -0.7026
24066SOL    HW274831   4.321   1.910   8.281 -0.5010 -0.2180  0.1573
24067SOL     OW74832   1.065   6.425   5.219 -0.1272  0.2037  0.0608
24067SOL    HW174833   1.090   6.389   5.134  0.3754 -0.4449  0.4766
24067SOL    HW274834   0.988   6.375   5.245 -0.7858  0.9600 -0.3765
24068SOL     OW74835   3.446   2.485   9.633 -0.0645  0.2011 -0.0560
24068SOL    HW174836   3.481   2.555   9.577  1.2924  0.1676  0.6986
24068SOL    HW274837   3.469   2.512   9.722 -0.0694 -0.9069  0.2905
24069SOL     OW74838   3.170   9.170   8.384 -0.2580 -0.3604  0.7681
24069SOL    HW174839   3.210   9.088   8.415  1.4828 -0.1464 -0.7023
24069SOL    HW274840   3.188   9.170   8.290  1.7085  2.6846  1.0127
24070SOL     OW74841   8.291   3.466   7.852 -0.1394  0.6050  0.1571
24070SOL    HW174842   8.357   3.510   7.797 -0.1347 -0.5552 -0.8318
24070SOL    HW274843   8.234   3.536   7.883  0.3998  1.4067 -0.6131
24071SOL     OW74844   1.521   7.688  10.318  0.4228  0.6267  0.5346
24071SOL    HW174845   1.453   7.694  10.385  0.4612  3.0937  0.4396
24071SOL    HW274846   1.598   7.655  10.366  0.0973  1.1229  1.4250
24072SOL     OW74847   0.493   9.889   9.158  0.5228 -0.2672 -0.1076
24072SOL    HW174848   0.573   9.929   9.123  0.6635 -1.0611 -0.7489
24072SOL    HW274849   0.512   9.795   9.159 -0.1079 -0.3956  0.5220
24073SOL     OW74850   5.644   9.496   4.522  0.3967  0.2689  0.7077
24073SOL    HW174851   5.691   9.579   4.532 -1.3042  1.1852  1.4712
24073SOL    HW274852   5.591   9.488   4.601 -0.9961 -0.5207 -0.2599
24074SOL     OW74853   9.436   4.789   6.448  0.2845  0.2667  0.0906
24074SOL    HW174854   9.344   4.766   6.454  0.0105  1.1727 -0.5331
24074SOL    HW274855   9.472   4.767   6.534 -0.5681  0.1924  0.4346
24075SOL     OW74856   0.061   4.591   0.568 -0.3527  0.1258 -0.0842
24075SOL    HW174857  -0.015   4.593   0.509 -0.6191  0.1859  0.2599
24075SOL    HW274858   0.053   4.507   0.614  0.0356 -0.0710 -0.3638
24076SOL     OW74859   3.523   1.154   9.545 -0.5408 -0.1651  0.6140
24076SOL    HW174860   3.521   1.098   9.622  2.9371 -1.6429 -0.1800
24076SOL    HW274861   3.536   1.094   9.471 -0.1456  1.4157 -0.6702
24077SOL     OW74862   5.182   0.852   9.290 -0.1568  0.3917 -0.7132
24077SOL    HW174863   5.264   0.898   9.309 -0.1853  0.3846 -0.5714
24077SOL    HW274864   5.114   0.919   9.299 -0.4089 -0.0668  1.4061
24078SOL     OW74865   2.756   3.220   2.513  0.0689  0.6258 -0.1153
24078SOL    HW174866   2.744   3.308   2.550 -2.8524  0.6111 -0.7891
24078SOL    HW274867   2.753   3.232   2.419 -0.9324 -0.2226 -0.2156
24079SOL     OW74868   7.948   9.846   6.119 -0.1473  0.0736 -0.1402
24079SOL    HW174869   8.019   9.826   6.058 -0.1980 -0.1266 -0.1358
24079SOL    HW274870   7.991   9.894   6.190  0.1829 -0.9445  0.3684
24080SOL     OW74871   1.729   3.907   0.258  0.4617  0.6036  0.3646
24080SOL    HW174872   1.682   3.968   0.202 -0.1106 -1.0979 -1.1333
24080SOL    HW274873   1.739   3.828   0.204  0.6985 -0.8146  2.3510
24081SOL     OW74874   9.854   2.781   3.097  0.2055  0.1320  0.3013
24081SOL    HW174875   9.832   2.741   3.181 -0.7197 -0.2724 -0.1094
24081SOL    HW274876   9.949   2.789   3.097  0.2600 -0.4658  1.1178
24082SOL     OW74877   4.209   0.021   7.674 -0.0884  0.3509 -0.3720
24082SOL    HW174878   4.218  -0.005   7.582 -1.9776 -1.6113 -0.0794
24082SOL    HW274879   4.258  -0.044   7.723  0.1199  0.8381  0.0785
24083SOL     OW74880   2.717   2.214   2.017 -0.5510 -0.1959  0.4031
24083SOL    HW174881   2.698   2.303   1.990 -1.4789 -0.6600 -0.5600
24083SOL    HW274882   2.781   2.182   1.952 -2.1679 -1.0431 -0.8645
24084SOL     OW74883   0.504   4.390   0.699  0.0345  0.1438 -0.3805
24084SOL    HW174884   0.472   4.327   0.764  2.4402 -0.2511  0.5266
24084SOL    HW274885   0.466   4.360   0.616 -2.2117  0.0072  0.6307
24085SOL     OW74886   8.680   1.843   3.313 -0.1163 -0.6045  0.2884
24085SOL    HW174887   8.741   1.887   3.255  0.3755 -0.2085  1.0889
24085SOL    HW274888   8.625   1.913   3.348  0.2254 -0.7036  1.0426
24086SOL     OW74889   9.247   6.187   1.586  0.1647  0.3531 -0.1098
24086SOL    HW174890   9.326   6.206   1.536  0.4494 -1.1463 -0.2752
24086SOL    HW274891   9.276   6.184   1.677  0.5537 -1.2719 -0.2578
24087SOL     OW74892   2.241   2.487   8.709 -0.2696 -0.3281 -0.4746
24087SOL    HW174893   2.255   2.434   8.630  0.4887 -0.6886 -0.1033
24087SOL    HW274894   2.202   2.568   8.676  0.1628 -0.4201 -1.2437
24088SOL     OW74895   7.767   6.649   6.394  0.6869 -0.5734  0.5845
24088SOL    HW174896   7.832   6.697   6.342 -0.3229 -1.2013 -1.3608
24088SOL    HW274897   7.751   6.705   6.470  1.9500  0.5752  0.0481
24089SOL     OW74898   5.052   8.628   5.789  0.3639  0.7935  0.4894
24089SOL    HW174899   4.989   8.699   5.795  0.0553  0.6186 -0.5166
24089SOL    HW274900   5.017   8.560   5.846 -1.1698  0.1205 -1.1564
24090SOL     OW74901   1.075   3.049   3.014 -0.3806 -0.0432  0.3826
24090SOL    HW174902   1.031   3.024   2.932 -1.3566  1.6889  0.3472
24090SOL    HW274903   1.111   3.136   2.997  2.8964 -1.2193  0.5200
24091SOL     OW74904   1.323   0.231   2.259 -0.7579  0.1285  0.2571
24091SOL    HW174905   1.394   0.248   2.322  0.5258 -0.2533 -1.0413
24091SOL    HW274906   1.334   0.140   2.234 -1.2292  0.2836 -0.5457
24092SOL     OW74907   9.737   6.929   0.783  0.1008 -0.4421  0.2005
24092SOL    HW174908   9.764   6.837   0.786 -0.8626 -0.8253 -1.3745
24092SOL    HW274909   9.642   6.926   0.794  0.3366  0.6897  3.4588
24093SOL     OW74910   8.746   1.792   0.046  0.1733  0.5658 -0.0493
24093SOL    HW174911   8.809   1.845  -0.003  0.9875  0.4115  0.7973
24093SOL    HW274912   8.729   1.716  -0.009 -0.5835  1.4242 -1.0349
24094SOL     OW74913   5.028   0.495   1.835  0.0350  0.0493  0.0975
24094SOL    HW174914   4.992   0.583   1.844 -0.6360 -0.2854  0.7868
24094SOL    HW274915   5.069   0.494   1.749 -1.8659  0.3561 -0.8404
24095SOL     OW74916   6.039   3.896   3.446 -1.1598  0.3142 -0.3374
24095SOL    HW174917   6.113   3.838   3.461 -1.3990  0.4495  1.6836
24095SOL    HW274918   6.002   3.911   3.534 -1.8629  2.5121 -0.9468
24096SOL     OW74919   4.851   5.381   4.287  0.3982 -0.0327  0.2078
24096SOL    HW174920   4.927   5.435   4.308  0.1767 -0.4535  2.2662
24096SOL    HW274921   4.864   5.301   4.338 -1.0119 -0.4603 -0.0772
24097SOL     OW74922   8.891   3.153   1.460  0.2240  0.0100 -0.3385
24097SOL    HW174923   8.984   3.162   1.475  0.1495  2.2687 -0.8861
24097SOL    HW274924   8.853   3.139   1.546  0.9173  0.8420  0.1143
24098SOL     OW74925   8.514   7.161   2.352  0.1778 -0.5907 -0.0666
24098SOL    HW174926   8.449   7.215   2.396 -0.0685 -0.0869 -1.0384
24098SOL    HW274927   8.561   7.221   2.294 -0.7394 -1.5715 -1.8893
24099SOL     OW74928   2.525   8.796   6.497  0.1697 -0.3522  0.1427
24099SOL    HW174929   2.575   8.836   6.568  1.3316 -0.0659 -0.7920
24099SOL    HW274930   2.571   8.824   6.417 -1.1018 -0.6534 -0.7227
24100SOL     OW74931   4.820   1.123   5.687 -0.2849  0.0314 -0.1735
24100SOL    HW174932   4.725   1.114   5.686 -0.2334 -0.6532 -1.5705
24100SOL    HW274933   4.852   1.034   5.670  0.5581  0.5148 -1.2395
24101SOL     OW74934   7.899   7.726   1.433  0.5641  0.1206  0.1889
24101SOL    HW174935   7.925   7.695   1.346  1.5869  0.3215  0.4061
24101SOL    HW274936   7.852   7.652   1.471 -1.1487  0.5023 -1.0274
24102SOL     OW74937   9.759   5.105   7.297  1.0895  0.4864 -0.4010
24102SOL    HW174938   9.791   5.184   7.340  1.8351 -1.0258  2.0181
24102SOL    HW274939   9.832   5.043   7.302 -0.6313 -1.6099  1.3489
24103SOL     OW74940   3.260   8.019   7.326 -0.4550 -0.0489 -0.4701
24103SOL    HW174941   3.212   7.959   7.383 -1.4992  1.5373  0.3806
24103SOL    HW274942   3.199   8.039   7.255  0.5410 -1.3611 -1.7523
24104SOL     OW74943   9.528   3.616   6.456  0.7603  0.3803 -0.6185
24104SOL    HW174944   9.530   3.553   6.384 -0.5542  1.1847 -1.4081
24104SOL    HW274945   9.614   3.657   6.454  1.1581 -0.4520 -0.9592
24105SOL     OW74946   8.339   1.451   6.008 -0.0654 -0.6695  0.6836
24105SOL    HW174947   8.383   1.462   5.924  1.4382  1.8589  1.7043
24105SOL    HW274948   8.258   1.502   6.000  0.0919 -0.4050  0.7810
24106SOL     OW74949   8.528   2.578   0.253 -0.3672 -0.0360 -0.4470
24106SOL    HW174950   8.576   2.645   0.204 -0.6178  0.7860  0.4101
24106SOL    HW274951   8.521   2.505   0.191 -1.2082  1.1883 -1.8653
24107SOL     OW74952   5.207   0.705   8.804  0.0712  0.2053  0.3524
24107SOL    HW174953   5.135   0.755   8.767 -0.1265 -0.2584  0.1001
24107SOL    HW274954   5.251   0.766   8.863 -1.0962  0.2135  1.2508
24108SOL     OW74955   9.575   8.830   6.451 -0.8301 -0.4087  0.2420
24108SOL    HW174956   9.597   8.813   6.543  0.2530  0.4627  0.1698
24108SOL    HW274957   9.638   8.897   6.424 -1.7817  0.0706 -0.8528
24109SOL     OW74958   3.415   6.620   4.772  0.2495  0.1058  0.0352
24109SOL    HW174959   3.324   6.600   4.792 -0.3371  0.2741 -2.2364
24109SOL    HW274960   3.429   6.707   4.809 -1.1459  0.9149 -1.2172
24110SOL     OW74961   5.400   6.373   0.946 -0.8505  0.2400 -0.1595
24110SOL    HW174962   5.312   6.334   0.949 -0.4021 -0.7870  0.0184
24110SOL    HW274963   5.437   6.355   1.032 -0.2364  0.1268 -0.4416
24111SOL     OW74964   6.559   3.424   1.196 -0.2962 -0.5184 -0.1860
24111SOL    HW174965   6.540   3.454   1.285  0.4179 -0.0988 -0.1676
24111SOL    HW274966   6.617   3.349   1.209  0.2911 -0.0900 -0.3095
24112SOL     OW74967   3.109   6.135  10.017 -0.0027  0.5133  0.1368
24112SOL    HW174968   3.039   6.189  10.055 -1.4645 -0.4418 -1.0682
24112SOL    HW274969   3.115   6.060  10.076  1.4049  1.5131  1.3156
24113SOL     OW74970   5.939   2.946   7.030  0.0749  0.2716 -0.2932
24113SOL    HW174971   5.863   2.930   7.087 -0.2579  0.6233 -0.6305
24113SOL    HW274972   5.930   2.881   6.960 -0.3409  0.7918 -0.7406
24114SOL     OW74973   2.942   2.395   2.527  0.3476  0.0742 -0.5466
24114SOL    HW174974   2.900   2.317   2.562  0.0921 -0.0084 -1.0286
24114SOL    HW274975   2.999   2.426   2.598  0.1485 -0.3198 -0.2134
24115SOL     OW74976   3.400   2.259   7.830 -0.7783  0.2426 -0.7116
24115SOL    HW174977   3.404   2.163   7.823 -1.8092  0.2692 -1.8748
24115SOL    HW274978   3.490   2.287   7.814  0.3355 -0.6433  2.9208
24116SOL     OW74979   8.191   1.066   3.510 -0.4684  0.8431  0.3931
24116SOL    HW174980   8.280   1.085   3.541 -1.2032  3.9423  0.9203
24116SOL    HW274981   8.196   1.079   3.416 -0.2726  0.5475  0.3604
24117SOL     OW74982   7.411   9.228   5.908  0.0580  0.1470  0.0885
24117SOL    HW174983   7.339   9.228   5.846  0.4692 -0.3374 -0.4112
24117SOL    HW274984   7.438   9.136   5.913  1.6854  0.5211 -0.9991
24118SOL     OW74985   7.879   6.881   9.301 -0.3405  0.1600  0.4195
24118SOL    HW174986   7.952   6.849   9.354  0.2174  0.6104 -0.0639
24118SOL    HW274987   7.861   6.810   9.240  0.1694  0.3281  0.0705
24119SOL     OW74988   8.969   7.908   5.945  0.0226  0.1198 -0.7553
24119SOL    HW174989   8.884   7.953   5.940  1.5458  3.4967  0.3010
24119SOL    HW274990   8.951   7.830   5.998 -2.1155  1.7705  1.2018
24120SOL     OW74991   1.856   1.294   3.257  0.4536  0.4303 -0.6727
24120SOL    HW174992   1.943   1.263   3.234  0.4705  0.1279 -0.2154
24120SOL    HW274993   1.844   1.374   3.206  1.0460  0.5414 -0.6427
24121SOL     OW74994   6.277   5.876   4.605 -0.0137 -0.2248 -0.1228
24121SOL    HW174995   6.211   5.808   4.587 -1.0224  0.0974  2.0845
24121SOL    HW274996   6.343   5.831   4.658  0.4435  0.0070 -0.4888
24122SOL     OW74997   9.462   9.827   6.927 -0.2664  1.0490 -0.2968
24122SOL    HW174998   9.494   9.859   7.011 -0.2215  0.5494 -0.1252
24122SOL    HW274999   9.539   9.830   6.869  0.1749 -0.4220  0.1904
24123SOL     OW75000   2.266   7.845   1.750  0.2282  0.0558  0.0793
24123SOL    HW175001   2.318   7.862   1.828 -0.8724  0.3119  0.7811
24123SOL    HW275002   2.284   7.919   1.692  1.8984 -0.6776 -0.4065
24124SOL     OW75003   0.894   3.563   3.688  0.1468 -0.4405  0.2198
24124SOL    HW175004   0.857   3.561   3.600 -0.6219 -0.3958  0.5309
24124SOL    HW275005   0.845   3.496   3.736  0.5471 -0.4531  0.6226
24125SOL     OW75006   1.064   5.558   5.224  0.1581  0.5421 -0.2578
24125SOL    HW175007   1.105   5.491   5.169 -0.5145 -0.3942  0.3332
24125SOL    HW275008   1.119   5.635   5.214 -0.1454  0.5307 -2.5199
24126SOL     OW75009   2.617   2.881   9.325 -0.1761  0.7904  0.2732
24126SOL    HW175010   2.539   2.836   9.295 -0.5196  1.5106  0.0616
24126SOL    HW275011   2.683   2.864   9.258  0.3521 -1.1064  1.1854
24127SOL     OW75012   5.049   2.023   0.483  0.2668  0.0830 -0.0892
24127SOL    HW175013   4.986   1.972   0.534 -0.6896  1.5793  0.3044
24127SOL    HW275014   5.133   2.009   0.527 -0.2153 -0.1165  0.8039
24128SOL     OW75015   8.718   8.837   0.483  0.1878 -0.2325 -0.1959
24128SOL    HW175016   8.651   8.795   0.538 -0.1922 -2.7963 -2.4056
24128SOL    HW275017   8.674   8.852   0.399  1.5710  0.7779 -0.7822
24129SOL     OW75018   1.292   7.477  10.081  0.3344 -0.3686  0.2310
24129SOL    HW175019   1.255   7.392  10.104 -0.8298  0.4353  1.4747
24129SOL    HW275020   1.229   7.541  10.116  0.9073  1.0067 -1.1166
24130SOL     OW75021   6.141   5.393   1.806  0.2819  0.0374 -0.1968
24130SOL    HW175022   6.125   5.354   1.720 -1.4530  0.0278  0.0882
24130SOL    HW275023   6.053   5.412   1.840  0.9958  3.3470  0.0937
24131SOL     OW75024   3.589   8.877   7.404  0.4568  0.1293 -0.1181
24131SOL    HW175025   3.526   8.934   7.447  0.5907  0.1474  0.0516
24131SOL    HW275026   3.576   8.894   7.311  0.6450  0.5928 -0.0597
24132SOL     OW75027   1.665   6.747   5.267 -0.0311  0.1228  0.6096
24132SOL    HW175028   1.642   6.839   5.270 -1.3229 -0.1953  1.2691
24132SOL    HW275029   1.674   6.727   5.174  1.7709  1.2387  0.5026
24133SOL     OW75030   6.844   6.547   8.630  0.3867  0.1854  0.0077
24133SOL    HW175031   6.930   6.588   8.616  0.1560  1.0365  0.9552
24133SOL    HW275032   6.843   6.527   8.723 -0.0831 -0.6910 -0.1803
24134SOL     OW75033   8.450   3.450   0.215  0.3058  0.6244 -0.1643
24134SOL    HW175034   8.441   3.458   0.310  1.2856 -0.3002  0.0293
24134SOL    HW275035   8.367   3.483   0.180 -1.0375 -1.1631  1.1211
24135SOL     OW75036   5.920   6.431   1.046 -0.0662  0.5865  0.1438
24135SOL    HW175037   5.990   6.445   1.109  0.6101  1.1762 -0.7075
24135SOL    HW275038   5.865   6.364   1.085  0.9410  0.1559  0.8571
24136SOL     OW75039   5.892   5.806   6.387  0.0673  0.2581  0.0217
24136SOL    HW175040   5.872   5.895   6.418  0.5414 -0.4444  2.5682
24136SOL    HW275041   5.807   5.769   6.364 -0.1386  1.3265 -1.0444
24137SOL     OW75042   6.684   0.259   6.330 -0.1644 -0.2852  0.2078
24137SOL    HW175043   6.680   0.342   6.283  0.0130 -0.6367 -0.4420
24137SOL    HW275044   6.772   0.226   6.311 -0.4208 -0.8704  0.0307
24138SOL     OW75045   0.456   4.990   9.852  1.0244 -0.7554 -0.1872
24138SOL    HW175046   0.430   4.954   9.937 -0.0808 -2.9855 -1.3799
24138SOL    HW275047   0.417   4.931   9.788  0.6897  1.6124 -2.3126
24139SOL     OW75048   5.830   4.575   7.292 -0.3668  0.0540 -0.0345
24139SOL    HW175049   5.815   4.594   7.200  0.0121  0.8667  0.0602
24139SOL    HW275050   5.771   4.634   7.339  1.2866  1.5370  0.2795
24140SOL     OW75051   0.943   2.744   6.935  0.2561 -0.4904 -0.2837
24140SOL    HW175052   0.981   2.830   6.916  0.3533 -0.5286 -0.2649
24140SOL    HW275053   0.882   2.760   7.007  2.4000 -0.9149  1.7438
24141SOL     OW75054   7.219   6.447   3.022 -0.0236  0.0926 -0.0948
24141SOL    HW175055   7.225   6.536   2.989  1.1033  0.2790  0.5578
24141SOL    HW275056   7.150   6.451   3.089 -0.1787  0.4039 -0.2717
24142SOL     OW75057   6.876   3.271   6.531 -0.0678  0.3093  0.2767
24142SOL    HW175058   6.871   3.311   6.618  2.2841 -0.8525  1.0415
24142SOL    HW275059   6.937   3.327   6.483 -1.1398  0.7868 -0.5814
24143SOL     OW75060   6.821   9.196   7.759 -0.8223  0.4913  0.0216
24143SOL    HW175061   6.866   9.184   7.842 -0.3866 -2.0040 -0.4997
24143SOL    HW275062   6.839   9.115   7.710 -2.1698  1.3245 -1.9644
24144SOL     OW75063   3.865   8.473   4.692  0.8789 -0.3251  0.5228
24144SOL    HW175064   3.872   8.408   4.762  0.3696 -0.3609  0.5418
24144SOL    HW275065   3.894   8.426   4.613  1.3185 -0.3246  0.6787
24145SOL     OW75066   7.990   6.220   1.110 -0.1346  0.5334 -0.1577
24145SOL    HW175067   8.010   6.135   1.148  0.3653  0.9532  0.5445
24145SOL    HW275068   7.966   6.202   1.019 -2.1267 -0.5998  0.5313
24146SOL     OW75069   3.376   7.595   0.738  0.1108 -0.4625  0.3273
24146SOL    HW175070   3.402   7.647   0.814  0.5889 -0.8642  0.4473
24146SOL    HW275071   3.343   7.513   0.776 -0.3164 -0.3875  0.1275
24147SOL     OW75072   8.458   2.529   2.579 -0.2445  0.1303 -0.0200
24147SOL    HW175073   8.477   2.580   2.657  2.3211 -0.3902 -0.2410
24147SOL    HW275074   8.454   2.439   2.609  1.9028 -0.2052 -0.5863
24148SOL     OW75075   8.612   8.031   5.635 -0.1781 -0.1024  0.1458
24148SOL    HW175076   8.533   8.033   5.689 -0.3543 -2.3416  0.0403
24148SOL    HW275077   8.580   8.028   5.545  0.0882  0.8579  0.0029
24149SOL     OW75078   7.691   0.678   9.058  0.0438 -0.0628  0.2413
24149SOL    HW175079   7.652   0.757   9.022  0.7078 -0.1636 -0.7533
24149SOL    HW275080   7.785   0.688   9.042 -0.0112 -1.9500 -1.8912
24150SOL     OW75081   9.231   4.605  10.190  0.1768  0.4281 -0.4922
24150SOL    HW175082   9.145   4.647  10.190  0.1329  0.3730 -1.6469
24150SOL    HW275083   9.249   4.588  10.283 -1.7437 -0.9801 -0.3100
24151SOL     OW75084   5.368   6.528   1.855  0.2868 -0.4379 -0.0200
24151SOL    HW175085   5.416   6.452   1.889  2.7513  0.6018 -0.9944
24151SOL    HW275086   5.374   6.593   1.925  0.3401 -0.2688 -0.1835
24152SOL     OW75087   4.716   4.675   4.454  0.1004  0.0297 -0.2879
24152SOL    HW175088   4.643   4.727   4.487 -0.0643 -0.2559 -0.2028
24152SOL    HW275089   4.793   4.730   4.470 -0.1662  0.6184 -0.9941
24153SOL     OW75090   2.459   9.156   4.051  0.1756 -0.0680  0.2176
24153SOL    HW175091   2.457   9.220   3.980  1.4815  1.3581  1.3880
24153SOL    HW275092   2.404   9.084   4.020  0.0647  0.8428 -1.8839
24154SOL     OW75093   7.421   3.628   5.305 -0.6014 -0.5702  0.7290
24154SOL    HW175094   7.385   3.539   5.312 -0.5975 -0.5995  0.3794
24154SOL    HW275095   7.386   3.673   5.382 -0.0788 -1.0558  1.2676
24155SOL     OW75096   6.261   3.630   5.193 -0.3033 -0.1418 -0.7040
24155SOL    HW175097   6.328   3.687   5.231 -0.8987  0.4964 -0.6103
24155SOL    HW275098   6.293   3.542   5.210  0.2680  0.1529 -0.2111
24156SOL     OW75099   3.682   5.868   6.573  0.1547  0.1920 -0.3230
24156SOL    HW175100   3.748   5.938   6.570  1.1729 -0.6541  1.0500
24156SOL    HW275101   3.632   5.885   6.653  0.8147 -0.9500  0.3674
24157SOL     OW75102   0.229   9.708   9.741  0.4998  0.7053 -0.2165
24157SOL    HW175103   0.238   9.791   9.788  1.5075  0.4259  0.0894
24157SOL    HW275104   0.317   9.689   9.708  0.2920 -0.2753 -0.2304
24158SOL     OW75105   2.619   2.266   6.893 -0.3791 -0.0011  0.2937
24158SOL    HW175106   2.657   2.243   6.808 -0.3595  2.3846 -0.3967
24158SOL    HW275107   2.599   2.181   6.933  0.4216 -1.2114 -1.6980
24159SOL     OW75108  10.098   2.699   8.198  0.6885 -0.0651 -0.3173
24159SOL    HW175109  10.130   2.655   8.120 -0.1736 -1.1352 -0.0934
24159SOL    HW275110  10.136   2.649   8.271 -1.1868 -1.1807 -0.0508
24160SOL     OW75111   2.862   9.872   8.634 -0.0781 -0.4588 -0.8343
24160SOL    HW175112   2.826   9.923   8.707 -0.5959 -0.7068 -0.9125
24160SOL    HW275113   2.950   9.849   8.662 -0.2200 -0.4194 -0.3512
24161SOL     OW75114   6.629   3.224   7.265  0.3744  0.1007 -0.4435
24161SOL    HW175115   6.700   3.286   7.280  2.2864 -2.0699  0.0127
24161SOL    HW275116   6.601   3.198   7.353 -0.7034  0.5998 -0.6249
24162SOL     OW75117   7.502   5.816   5.518  0.3287  0.4488 -0.0575
24162SOL    HW175118   7.549   5.886   5.473  1.2704 -0.0983  0.0634
24162SOL    HW275119   7.421   5.805   5.467  1.0062  0.3915 -1.1448
24163SOL     OW75120   6.871   0.661   7.877  0.0334 -0.0631 -0.1556
24163SOL    HW175121   6.918   0.602   7.936  0.3093  1.4031  1.1214
24163SOL    HW275122   6.847   0.736   7.931  0.3347  1.3554 -1.9019
24164SOL     OW75123   3.437   7.782   0.944  0.0734  0.0155  0.6798
24164SOL    HW175124   3.446   7.878   0.947 -2.6278  0.3038  2.3118
24164SOL    HW275125   3.484   7.751   1.022  0.7642  0.0231  0.2693
24165SOL     OW75126   5.363   8.981   0.386 -0.0666  0.3484 -0.0877
24165SOL    HW175127   5.384   8.960   0.477 -0.5544 -1.0726 -0.2841
24165SOL    HW275128   5.446   8.971   0.340 -0.5148 -2.9666 -0.4542
24166SOL     OW75129   7.964   9.501   6.795  0.0382 -0.4916 -0.7014
24166SOL    HW175130   7.975   9.549   6.877  0.4858  0.0256 -1.0599
24166SOL    HW275131   7.920   9.420   6.821  1.6549 -1.0968  0.2853
24167SOL     OW75132   7.316   7.218   8.050 -0.6400 -0.2193  0.0707
24167SOL    HW175133   7.323   7.272   8.129 -0.0440  0.6641 -0.5658
24167SOL    HW275134   7.406   7.193   8.030 -0.4378  1.7250 -1.7732
24168SOL     OW75135   8.953   5.115   5.030 -0.1367  0.2426 -0.0814
24168SOL    HW175136   9.001   5.093   4.950 -0.5430  0.7714 -0.4833
24168SOL    HW275137   8.862   5.125   5.002 -0.1016  1.5840  0.2129
24169SOL     OW75138   9.203   4.094   0.097  0.5455  0.8212  0.0606
24169SOL    HW175139   9.141   4.041   0.047  0.5085  1.4492 -0.5689
24169SOL    HW275140   9.286   4.047   0.088  0.1092 -0.2321  1.2295
24170SOL     OW75141   9.743   4.805   2.116  0.3203  0.2644 -0.2539
24170SOL    HW175142   9.742   4.715   2.147 -0.2528 -0.9069 -3.2809
24170SOL    HW275143   9.661   4.843   2.149 -0.0514 -0.7356  0.0152
24171SOL     OW75144   1.293   7.277   8.264  0.5308 -0.3936  0.1506
24171SOL    HW175145   1.205   7.264   8.301  0.4110 -1.9221 -0.6257
24171SOL    HW275146   1.320   7.191   8.235  0.5652  0.7028 -3.4944
24172SOL     OW75147   7.428   6.063   2.837  0.0329  0.2694  0.2286
24172SOL    HW175148   7.416   6.135   2.775  0.4207  1.7869  1.8500
24172SOL    HW275149   7.362   6.078   2.904 -0.3657 -1.3396  0.2451
24173SOL     OW75150   6.321   8.132   1.412 -0.3822 -0.5007  0.3319
24173SOL    HW175151   6.367   8.052   1.387 -2.7641 -1.6590 -0.6844
24173SOL    HW275152   6.234   8.102   1.439 -0.9324  1.6556  1.1304
24174SOL     OW75153   5.370   9.374   9.978  0.5855 -0.7830  0.4013
24174SOL    HW175154   5.282   9.408   9.992  0.3312 -1.4188  0.3722
24174SOL    HW275155   5.410   9.377  10.065  0.2441 -1.2801  0.5831
24175SOL     OW75156   6.629   1.158   0.941  0.3399 -0.9362  0.1896
24175SOL    HW175157   6.709   1.157   0.888 -0.4669 -1.0012 -1.0648
24175SOL    HW275158   6.638   1.235   0.997 -0.2664  1.2185 -2.4586
24176SOL     OW75159   6.471   4.016   8.673 -0.3707  0.2128  0.5279
24176SOL    HW175160   6.564   3.993   8.680  0.0195  1.9817  2.0092
24176SOL    HW275161   6.427   3.956   8.733 -0.3167 -1.0785 -0.6765
24177SOL     OW75162   5.215   6.150   0.847 -0.0115  0.3097  0.4278
24177SOL    HW175163   5.218   6.162   0.752 -0.2766 -0.7269  0.2835
24177SOL    HW275164   5.122   6.154   0.869 -0.5545 -4.2406 -0.0570
24178SOL     OW75165   7.101   5.817   5.887  0.2523 -0.0739  0.4378
24178SOL    HW175166   7.119   5.897   5.837 -3.3369  0.8452  0.3049
24178SOL    HW275167   7.062   5.757   5.822  5.3002 -3.2818 -0.1615
24179SOL     OW75168   1.319   7.826   2.014  0.6598  1.0395 -0.5075
24179SOL    HW175169   1.240   7.826   2.068  0.2141 -2.8465 -0.9306
24179SOL    HW275170   1.286   7.831   1.924  1.1496  2.4051 -0.6472
24180SOL     OW75171   0.630   5.664   6.855  0.5120  0.0708  0.1538
24180SOL    HW175172   0.691   5.653   6.927  0.2510 -0.1966  0.3369
24180SOL    HW275173   0.551   5.618   6.883 -0.2565  1.5385  0.5004
24181SOL     OW75174   5.267   0.756   5.763  0.4334 -0.2353 -0.4233
24181SOL    HW175175   5.340   0.707   5.801 -0.5401 -1.1288  0.3289
24181SOL    HW275176   5.189   0.708   5.789 -0.3588 -0.2178 -2.5973
24182SOL     OW75177   5.849   0.699   3.368 -0.3048  0.2523  0.6270
24182SOL    HW175178   5.941   0.705   3.394 -0.0545 -0.7686  0.0110
24182SOL    HW275179   5.820   0.791   3.364  1.2218  0.7231 -1.0061
24183SOL     OW75180   5.754   6.813   5.445  0.0336  0.3277 -0.4449
24183SOL    HW175181   5.751   6.908   5.445 -0.4592  0.3282  0.7547
24183SOL    HW275182   5.734   6.788   5.535  1.2288 -0.8861 -0.4897
24184SOL     OW75183   2.391   7.610   3.673  0.1211  0.4728 -0.4158
24184SOL    HW175184   2.365   7.555   3.747  0.6690  0.4230 -0.2525
24184SOL    HW275185   2.350   7.695   3.690 -1.0427  0.0216 -0.8618
24185SOL     OW75186   6.399   7.532  10.240 -0.2592 -0.0453 -0.5306
24185SOL    HW175187   6.313   7.549  10.280  0.1642 -0.0194  0.3912
24185SOL    HW275188   6.378   7.488  10.157 -1.1693  0.1449 -0.4153
24186SOL     OW75189   5.741   4.372   9.908  0.2298  0.2382 -0.1820
24186SOL    HW175190   5.766   4.350   9.818  0.3247  1.2588 -0.4107
24186SOL    HW275191   5.656   4.328   9.920  0.3482 -0.1356 -0.6668
24187SOL     OW75192   0.324   9.601   3.709  0.3597  0.5828 -0.2508
24187SOL    HW175193   0.235   9.571   3.728  0.5670  0.2877  0.2996
24187SOL    HW275194   0.380   9.528   3.738  0.8041  0.9710 -0.1126
24188SOL     OW75195   8.073   3.277   5.754 -0.0814  1.0138  0.3527
24188SOL    HW175196   8.151   3.267   5.809  0.2477 -2.7056 -0.5236
24188SOL    HW275197   8.106   3.316   5.673  0.9496 -0.5869 -0.0433
24189SOL     OW75198   7.037   5.529   7.014 -0.1014  0.1887 -0.1175
24189SOL    HW175199   7.105   5.521   7.081 -0.0698 -0.9315 -0.2732
24189SOL    HW275200   7.061   5.464   6.948 -1.6737 -0.6847  0.1362
24190SOL     OW75201   4.122   6.792   5.521  0.0766  0.3793 -0.1340
24190SOL    HW175202   4.035   6.822   5.495  0.4594  1.8717  0.1995
24190SOL    HW275203   4.110   6.700   5.545 -1.8681  1.1007  1.9624
24191SOL     OW75204   5.282   2.539   7.478 -0.1762 -0.3442  0.0388
24191SOL    HW175205   5.252   2.538   7.569 -0.9633  1.9798 -0.1279
24191SOL    HW275206   5.371   2.505   7.481  0.9643  2.4790  2.1870
24192SOL     OW75207   2.770   2.374   1.198  0.3062 -0.6149  0.0537
24192SOL    HW175208   2.704   2.442   1.190  1.2044  0.4732  1.4094
24192SOL    HW275209   2.754   2.316   1.124 -0.8257  0.7608 -0.8290
24193SOL     OW75210   8.520   8.438   7.128 -0.2476  0.3746 -0.0470
24193SOL    HW175211   8.454   8.373   7.106 -0.5978  0.2369  1.3059
24193SOL    HW275212   8.602   8.401   7.095 -0.6192 -0.1736 -0.3671
24194SOL     OW75213   9.279  10.125   3.778 -0.0909  0.2149 -0.5011
24194SOL    HW175214   9.309  10.050   3.830  1.3114 -0.0592 -1.6266
24194SOL    HW275215   9.205  10.160   3.827 -0.1819 -1.3285  0.5498
24195SOL     OW75216   9.428   8.358   9.639  0.0824 -0.7460 -0.2173
24195SOL    HW175217   9.366   8.308   9.587  0.1934 -0.6829 -0.4089
24195SOL    HW275218   9.376   8.394   9.711 -0.1494 -0.4828 -0.5162
24196SOL     OW75219   0.714   5.066   6.009  0.2233 -0.2615  0.2520
24196SOL    HW175220   0.782   5.124   5.972  0.3196 -0.6147 -0.1288
24196SOL    HW275221   0.727   5.072   6.104  0.6867 -0.2002  0.1880
24197SOL     OW75222   1.834   5.286   9.740 -0.7485  0.1794 -0.5522
24197SOL    HW175223   1.906   5.349   9.732 -0.4801  0.1699  1.3268
24197SOL    HW275224   1.859   5.215   9.681  0.0926  0.8082 -0.9780
24198SOL     OW75225  10.047   8.814   5.506  0.0996 -0.1844  0.4522
24198SOL    HW175226  10.069   8.771   5.423 -0.9494  1.5464 -0.7810
24198SOL    HW275227   9.990   8.751   5.550 -0.0000 -0.7865 -0.4982
24199SOL     OW75228   0.816   2.694   9.808 -0.1113 -0.7887 -0.2561
24199SOL    HW175229   0.783   2.611   9.843  0.4931 -0.9496 -0.0624
24199SOL    HW275230   0.837   2.746   9.885 -2.2569  0.3002 -0.3210
24200SOL     OW75231   3.800   7.783   8.498 -0.3690  0.1464  0.2964
24200SOL    HW175232   3.797   7.748   8.409 -0.2941  0.5393  0.1371
24200SOL    HW275233   3.760   7.870   8.491 -0.1738  0.2637  0.6029
24201SOL     OW75234   6.789   5.898   5.567 -0.2841 -0.3387  0.0766
24201SOL    HW175235   6.758   5.924   5.654  1.3279  0.2582  0.5112
24201SOL    HW275236   6.830   5.812   5.581 -2.1319 -1.3976 -0.6034
24202SOL     OW75237   1.482   5.212   0.610  0.3538  0.3924 -0.3992
24202SOL    HW175238   1.556   5.237   0.554  1.8777 -0.4647  1.1361
24202SOL    HW275239   1.516   5.140   0.663 -1.2484  0.6936  1.1123
24203SOL     OW75240   9.688   1.749   7.458 -0.0436  0.3835  0.4023
24203SOL    HW175241   9.683   1.655   7.440 -1.4936  0.4483  0.3441
24203SOL    HW275242   9.599   1.782   7.440  0.8019  2.0418 -1.0370
24204SOL     OW75243   1.037   4.752   3.811 -0.1503  0.2768 -1.0444
24204SOL    HW175244   1.070   4.745   3.721 -1.2097 -1.9968 -1.3071
24204SOL    HW275245   0.942   4.759   3.801 -0.2427  0.5112 -0.0913
24205SOL     OW75246   5.809   5.517   9.201 -0.2724  0.2198  0.2908
24205SOL    HW175247   5.774   5.440   9.157  1.0974 -1.5336  2.0827
24205SOL    HW275248   5.900   5.522   9.171  0.0939  0.1762  1.3539
24206SOL     OW75249   5.216   1.234   5.669 -0.1104  0.1616 -0.5037
24206SOL    HW175250   5.223   1.140   5.650  1.1356 -0.0103  0.6385
24206SOL    HW275251   5.260   1.276   5.595  0.0299 -0.1958 -0.6276
24207SOL     OW75252   1.353   7.941  10.251 -0.3930  0.5372  0.0610
24207SOL    HW175253   1.337   7.992  10.171  1.7714  1.4185  0.1268
24207SOL    HW275254   1.422   7.879  10.227 -1.5395 -1.0100  0.5738
24208SOL     OW75255   8.960   4.463   3.873  0.3296  0.1826  0.1589
24208SOL    HW175256   8.966   4.497   3.784  2.6016  0.6032  0.3972
24208SOL    HW275257   8.884   4.506   3.912  0.7982  1.9430 -0.8011
24209SOL     OW75258   3.322   0.176   2.798 -0.6271 -0.0680 -0.1678
24209SOL    HW175259   3.374   0.111   2.845 -0.6008 -0.1204 -0.2682
24209SOL    HW275260   3.312   0.139   2.710 -0.2610  0.2600 -0.3492
24210SOL     OW75261   7.313   0.499   4.074 -0.0729 -0.2724  0.0926
24210SOL    HW175262   7.322   0.427   4.012  1.6675  0.4456 -0.5427
24210SOL    HW275263   7.276   0.571   4.021  1.1469  0.2510 -0.0800
24211SOL     OW75264   3.489   6.101   1.064  0.5892 -0.0762  0.1493
24211SOL    HW175265   3.471   6.098   1.158  2.2938 -0.0931  0.5149
24211SOL    HW275266   3.536   6.184   1.052 -0.1239  0.1991 -0.7995
24212SOL     OW75267   0.260   9.607   3.359  0.0447  0.2787 -0.3272
24212SOL    HW175268   0.264   9.553   3.280 -0.9253  1.6664 -1.3769
24212SOL    HW275269   0.337   9.581   3.410  1.2199 -0.0102 -2.1544
24213SOL     OW75270   1.035   1.734   3.277  0.8353 -0.3989 -0.2198
24213SOL    HW175271   0.964   1.774   3.327  1.0154  1.2036 -1.1886
24213SOL    HW275272   1.097   1.705   3.344 -0.1450 -0.6892  0.5826
24214SOL     OW75273   1.822   1.655   0.679 -0.1069 -0.1978  0.1681
24214SOL    HW175274   1.870   1.629   0.758 -0.9641  0.5633  0.9654
24214SOL    HW275275   1.738   1.610   0.687  0.0677 -0.7061 -0.7028
24215SOL     OW75276   6.073   4.320   6.891 -0.0978 -0.1768  1.2380
24215SOL    HW175277   6.142   4.387   6.884 -0.7190  0.6099  2.3382
24215SOL    HW275278   5.992   4.370   6.897 -0.8897 -1.1048 -0.8656
24216SOL     OW75279   4.989   0.755   6.951  0.4552 -0.2206  0.1511
24216SOL    HW175280   5.078   0.726   6.931  1.1072  1.6582  0.1093
24216SOL    HW275281   4.997   0.801   7.034 -0.1134  1.3895 -0.6283
24217SOL     OW75282   8.337   6.202   2.639  0.0281  0.2924 -0.1041
24217SOL    HW175283   8.244   6.177   2.631  0.1615 -0.8288  1.3916
24217SOL    HW275284   8.383   6.141   2.582 -0.0820  0.3030 -0.2053
24218SOL     OW75285   4.972   3.086   8.446 -0.0027  0.2224  0.3153
24218SOL    HW175286   5.019   3.121   8.369  0.7552  0.2730  0.7885
24218SOL    HW275287   4.895   3.142   8.454 -0.1997  0.0919 -0.5266
24219SOL     OW75288   6.957   2.352   0.125  0.2150  0.1511 -0.3668
24219SOL    HW175289   6.921   2.264   0.120 -0.1734  0.2612  0.3676
24219SOL    HW275290   7.017   2.350   0.200 -0.7838  0.8391  0.4845
24220SOL     OW75291   5.936  10.183   1.827  0.5828  0.0652 -0.1221
24220SOL    HW175292   5.988  10.239   1.885  0.8979  1.8237 -1.9780
24220SOL    HW275293   5.972  10.199   1.739 -0.9397 -1.2088 -1.0408
24221SOL     OW75294  10.013   1.300  10.208  0.0721 -0.0776  0.0733
24221SOL    HW175295  10.070   1.376  10.217 -1.1251  1.3487 -2.9284
24221SOL    HW275296  10.066   1.235  10.161 -0.1316  0.5096 -0.9949
24222SOL     OW75297   7.399   8.334   1.111  0.0504  0.2425  0.9497
24222SOL    HW175298   7.430   8.330   1.202  2.8861  1.6993  0.1803
24222SOL    HW275299   7.446   8.263   1.067  1.7368  1.9087 -0.0737
24223SOL     OW75300   3.329   9.699   4.310  0.1681 -0.1030 -0.0771
24223SOL    HW175301   3.275   9.653   4.245 -0.5074  0.9432 -0.2783
24223SOL    HW275302   3.372   9.769   4.261 -0.1512  0.5388  0.5430
24224SOL     OW75303   8.373   0.528   7.409 -0.3395  0.0170 -0.1616
24224SOL    HW175304   8.383   0.623   7.421  0.1263  0.6125 -3.8429
24224SOL    HW275305   8.290   0.507   7.451 -0.5320  2.0778  0.6182
24225SOL     OW75306   5.391   1.499   8.305  0.2467 -0.1593  0.7632
24225SOL    HW175307   5.474   1.494   8.257 -1.3144 -1.6104 -2.0830
24225SOL    HW275308   5.371   1.409   8.326 -0.9537  0.0911  0.7283
24226SOL     OW75309   9.427   6.207   7.970 -0.3176 -0.4016  0.1034
24226SOL    HW175310   9.333   6.216   7.955 -1.1959 -1.9713  3.5484
24226SOL    HW275311   9.442   6.253   8.053  2.5435  1.8824 -1.4580
24227SOL     OW75312   2.213   7.464   4.503  0.2055  0.0593 -0.1889
24227SOL    HW175313   2.299   7.461   4.543  0.0506 -0.4256  0.1202
24227SOL    HW275314   2.224   7.422   4.418 -0.2328 -2.3461  0.8596
24228SOL     OW75315   6.266   9.173   6.504  0.0152 -0.2359  0.5350
24228SOL    HW175316   6.316   9.178   6.585  0.0032 -0.3172  0.5480
24228SOL    HW275317   6.237   9.263   6.488  0.0554 -0.2118  0.5959
24229SOL     OW75318   7.973   5.383   5.398  0.4456 -0.6923 -0.3068
24229SOL    HW175319   8.032   5.324   5.445 -0.3066 -0.5727  0.8247
24229SOL    HW275320   7.938   5.330   5.326  0.5804 -1.2945  0.0640
24230SOL     OW75321   3.085   6.846   3.677  0.0853 -0.0019 -0.4820
24230SOL    HW175322   3.028   6.770   3.692 -0.5500  0.2781 -1.4215
24230SOL    HW275323   3.122   6.865   3.764 -0.6946 -0.6199  0.0046
24231SOL     OW75324   6.808   9.765   8.101 -0.1272 -0.1297 -0.2873
24231SOL    HW175325   6.828   9.766   8.195  2.3239  0.3491 -0.7472
24231SOL    HW275326   6.713   9.778   8.097 -0.1343  1.2649  2.0866
24232SOL     OW75327   9.230   5.961   3.383 -0.5425  0.0160 -0.0237
24232SOL    HW175328   9.300   5.896   3.379  0.0481  0.4234  2.2139
24232SOL    HW275329   9.156   5.919   3.340  0.3040 -1.4613 -0.1107
24233SOL     OW75330   3.180   1.640   5.235 -0.1271 -0.0614  0.0894
24233SOL    HW175331   3.094   1.653   5.276 -0.2815  1.7798 -0.7190
24233SOL    HW275332   3.165   1.570   5.172 -0.8548 -0.2534  0.4562
24234SOL     OW75333   5.193   1.891   2.115  0.0372  0.6428 -0.4897
24234SOL    HW175334   5.236   1.974   2.099 -1.5270  1.9879  1.7092
24234SOL    HW275335   5.163   1.862   2.029 -0.5043  3.0109 -1.1504
24235SOL     OW75336   9.600   2.697   7.791 -0.1485 -1.3705  0.3718
24235SOL    HW175337   9.525   2.732   7.744  1.0270 -0.1915 -0.7223
24235SOL    HW275338   9.564   2.660   7.871 -2.0419 -2.0864 -0.7470
24236SOL     OW75339   7.631   7.071   2.241  0.0196  0.1736 -0.0532
24236SOL    HW175340   7.575   7.101   2.312 -0.2684 -1.0381  0.2440
24236SOL    HW275341   7.576   7.073   2.163 -0.3083 -0.5659  0.1544
24237SOL     OW75342   3.206   5.041   2.671  0.1550 -0.6995 -0.5030
24237SOL    HW175343   3.249   5.041   2.586 -0.2448  0.5438 -0.7340
24237SOL    HW275344   3.184   5.133   2.686 -3.9610 -1.3808 -1.1826
24238SOL     OW75345   9.494   5.168   9.078 -0.3070 -0.5405  0.2203
24238SOL    HW175346   9.453   5.090   9.115 -1.1993 -0.2774 -0.1883
24238SOL    HW275347   9.422   5.217   9.038  0.4428 -0.2162 -0.7793
24239SOL     OW75348   9.050  10.334   8.498 -0.1649  0.0010  0.4431
24239SOL    HW175349   9.006  10.270   8.442  0.4515 -0.2317  0.2171
24239SOL    HW275350   9.067  10.409   8.441  0.0578 -0.0567  0.4325
24240SOL     OW75351   2.002   3.279   9.510  0.3128 -0.0412  0.2850
24240SOL    HW175352   1.941   3.220   9.557  0.6454  0.3999  1.2945
24240SOL    HW275353   2.086   3.234   9.515  0.7773  0.9019  1.8881
24241SOL     OW75354   0.559   0.039   5.598  0.1090  0.3609 -0.5584
24241SOL    HW175355   0.533  -0.010   5.520 -0.7598  0.7248 -0.5043
24241SOL    HW275356   0.623  -0.018   5.641  1.3046  0.5672 -1.9988
24242SOL     OW75357   0.790  10.079   4.678  0.4546 -0.3194  0.3756
24242SOL    HW175358   0.776  10.110   4.767 -0.9623 -1.0631  0.4296
24242SOL    HW275359   0.882  10.101   4.659  0.6993  0.0685  1.9093
24243SOL     OW75360   8.467  10.234   0.102 -0.1648 -0.2465 -1.0139
24243SOL    HW175361   8.417  10.311   0.075 -1.7587 -0.3821  1.2212
24243SOL    HW275362   8.524  10.266   0.172 -2.6781 -1.3928  1.7762
24244SOL     OW75363   0.375  10.041   5.192 -0.1208  0.3588  0.0000
24244SOL    HW175364   0.460  10.022   5.231 -0.3798 -1.1599 -0.1176
24244SOL    HW275365   0.322   9.963   5.210 -1.0088  0.6393 -1.2315
24245SOL     OW75366   7.762   1.858   4.425 -0.4436  0.0035  0.0849
24245SOL    HW175367   7.674   1.836   4.456 -0.0143 -1.7757  0.1522
24245SOL    HW275368   7.813   1.777   4.437  1.1909  0.9714 -0.0097
24246SOL     OW75369   3.539   5.204   8.894  0.1287 -0.0898 -0.1086
24246SOL    HW175370   3.576   5.253   8.967  0.3025 -0.8720  0.3282
24246SOL    HW275371   3.584   5.120   8.895  0.7056  0.1573 -1.5924
24247SOL     OW75372   4.136   4.239   0.811  0.0696 -0.1476 -0.2035
24247SOL    HW175373   4.066   4.253   0.876 -0.0283 -3.2288  0.5397
24247SOL    HW275374   4.190   4.318   0.816 -2.1682  1.4216  0.7224
24248SOL     OW75375   1.203   1.887   4.603  0.7440 -0.2433 -0.4105
24248SOL    HW175376   1.214   1.824   4.673  0.9628  0.7520  0.4758
24248SOL    HW275377   1.262   1.959   4.626  0.2450  0.4362 -1.2078
24249SOL     OW75378   6.922   3.262   9.198 -0.4232 -0.1586  0.3809
24249SOL    HW175379   6.867   3.336   9.223 -0.8962 -0.5333  0.4596
24249SOL    HW275380   6.873   3.216   9.130 -0.0978 -0.3505  0.2737
24250SOL     OW75381   2.895   4.467   6.893 -0.2472  0.2256  0.5895
24250SOL    HW175382   2.880   4.536   6.958 -0.7166 -0.0379  0.7583
24250SOL    HW275383   2.857   4.388   6.932 -1.3431  0.2546 -0.3938
24251SOL     OW75384   7.477   4.587   6.649  0.2923  0.7059  0.7366
24251SOL    HW175385   7.493   4.668   6.600 -0.2986 -0.4099 -1.4549
24251SOL    HW275386   7.384   4.589   6.670 -0.1701 -0.2103 -1.0233
24252SOL     OW75387   8.775   9.976   6.925 -0.0374 -0.1036  0.4928
24252SOL    HW175388   8.791   9.950   7.016  0.9838  0.1139  0.3930
24252SOL    HW275389   8.777   9.895   6.876 -1.1345 -0.2814  0.7270
24253SOL     OW75390   5.252   5.149   0.746 -0.3157  0.4391  0.4520
24253SOL    HW175391   5.318   5.142   0.676 -0.9051  2.8935 -0.4842
24253SOL    HW275392   5.303   5.175   0.823  0.0513  0.4162  0.2235
24254SOL     OW75393   8.651   9.022  10.112  0.1502 -0.6414 -0.0332
24254SOL    HW175394   8.708   8.984  10.178 -0.0404  0.6064  0.8790
24254SOL    HW275395   8.694   9.104  10.087 -0.4183 -0.4862 -0.5321
24255SOL     OW75396   1.390   8.617   3.014 -0.1485 -0.0190  0.0013
24255SOL    HW175397   1.355   8.655   2.933  0.2637 -0.9812 -0.6470
24255SOL    HW275398   1.408   8.692   3.070  2.1077  0.9298 -1.8170
24256SOL     OW75399   8.873   8.647   1.289 -0.4405 -0.0750 -0.3721
24256SOL    HW175400   8.783   8.619   1.268 -0.7070 -0.6947  1.3899
24256SOL    HW275401   8.885   8.727   1.238 -1.3383 -0.9031 -2.0128
24257SOL     OW75402   3.578   9.862   7.854  0.2846 -0.2238  0.2047
24257SOL    HW175403   3.559   9.920   7.928 -0.2520 -2.5401  2.0001
24257SOL    HW275404   3.506   9.799   7.854  1.1834 -1.3082 -1.2351
24258SOL     OW75405   4.178   2.549   0.409  0.3010  0.2843  0.0053
24258SOL    HW175406   4.126   2.481   0.452 -0.0943  0.6275  0.0771
24258SOL    HW275407   4.177   2.623   0.470  2.4133 -0.3057  0.8707
24259SOL     OW75408   0.568   0.898   5.509  0.2171  0.0199  0.0733
24259SOL    HW175409   0.518   0.839   5.566 -0.3240 -0.4593 -0.8810
24259SOL    HW275410   0.502   0.941   5.455  0.6792  0.8934  0.1959
24260SOL     OW75411   1.719   9.431   4.129 -0.5250 -0.2001  0.1374
24260SOL    HW175412   1.797   9.485   4.117  0.3164 -1.6664 -1.5452
24260SOL    HW275413   1.752   9.351   4.170 -1.5982  0.1452  1.7645
24261SOL     OW75414   5.926   7.468   0.283 -0.2136 -0.1560 -0.3673
24261SOL    HW175415   5.890   7.556   0.294 -1.7227 -0.8508  0.6770
24261SOL    HW275416   5.914   7.448   0.191  1.1028  1.0851 -0.8544
24262SOL     OW75417   2.420   2.830   6.992 -0.4169  0.2331  0.5994
24262SOL    HW175418   2.423   2.865   6.903  0.2614 -0.8621  0.1798
24262SOL    HW275419   2.327   2.836   7.016 -0.7051 -0.0197 -0.4055
24263SOL     OW75420   2.013   7.089   4.395 -0.5281 -0.5536  0.6529
24263SOL    HW175421   1.924   7.097   4.359  0.1442  0.9397 -0.8212
24263SOL    HW275422   2.005   7.117   4.486 -1.7573 -1.5506  0.8821
24264SOL     OW75423   2.257   3.295   5.734  0.6783  0.2975 -0.3448
24264SOL    HW175424   2.235   3.228   5.799  2.0546 -0.2198 -0.3766
24264SOL    HW275425   2.293   3.246   5.660 -0.1911  0.9407 -1.2205
24265SOL     OW75426   0.765   9.648   1.597  0.0794  0.6824 -0.0786
24265SOL    HW175427   0.687   9.593   1.598  0.9230 -0.5408 -0.2741
24265SOL    HW275428   0.755   9.703   1.520  0.4077 -0.9668 -1.3478
24266SOL     OW75429   7.774   2.915   8.937 -0.3778 -0.1120 -0.0132
24266SOL    HW175430   7.776   2.878   8.848 -0.4615  1.5225 -0.7324
24266SOL    HW275431   7.729   2.849   8.990  0.1375 -1.3480 -1.0707
24267SOL     OW75432   6.669   2.102   3.504 -0.7337 -0.2217 -0.4891
24267SOL    HW175433   6.725   2.025   3.510  0.4158  0.5675 -0.5191
24267SOL    HW275434   6.648   2.123   3.595  0.9658  0.7868 -0.2710
24268SOL     OW75435   7.720   1.591   5.269  0.3707 -0.0308  0.5193
24268SOL    HW175436   7.689   1.681   5.264  1.9164  0.5922  1.4513
24268SOL    HW275437   7.657   1.541   5.218 -0.1299  1.6838 -0.6285
24269SOL     OW75438   4.825   8.149   1.267  0.3297 -0.2180 -0.4244
24269SOL    HW175439   4.880   8.074   1.245  0.1376 -0.3187 -0.5636
24269SOL    HW275440   4.827   8.154   1.362  2.8017  1.4241 -0.4505
24270SOL     OW75441   9.482   4.441   8.198 -0.0594 -0.4617  0.3878
24270SOL    HW175442   9.393   4.408   8.213 -0.4344 -0.4439 -1.5594
24270SOL    HW275443   9.474   4.536   8.207 -0.6761 -0.2847 -1.4371
24271SOL     OW75444   2.007   6.340   2.980 -0.3356  0.4507 -0.2040
24271SOL    HW175445   1.915   6.322   2.996  0.0876 -2.3499 -0.4991
24271SOL    HW275446   2.049   6.334   3.065  0.0160 -1.6344 -0.4785
24272SOL     OW75447   4.335   5.411   7.426  0.5735  0.0967 -0.0545
24272SOL    HW175448   4.400   5.359   7.473  1.3413 -0.5209 -1.7277
24272SOL    HW275449   4.383   5.449   7.353 -1.2038 -1.6143 -2.2470
24273SOL     OW75450   6.671   1.531   1.607 -0.0256 -0.1588 -0.2741
24273SOL    HW175451   6.606   1.589   1.647 -1.2286  0.2062 -2.5752
24273SOL    HW275452   6.717   1.587   1.545  1.1459 -0.8974 -0.0942
24274SOL     OW75453   7.325   9.784   9.788  0.1837  0.4343 -0.0213
24274SOL    HW175454   7.341   9.878   9.782  0.4148  0.3373 -1.2242
24274SOL    HW275455   7.331   9.764   9.881 -0.2823  1.6775  0.2934
24275SOL     OW75456   1.461   6.572  10.339  0.3290  0.1574  0.6491
24275SOL    HW175457   1.402   6.603  10.408  0.6149 -1.1171  1.5057
24275SOL    HW275458   1.403   6.534  10.273 -0.0580  2.8075 -0.6393
24276SOL     OW75459   8.418   8.050   1.844  0.2924 -0.2139  0.4093
24276SOL    HW175460   8.467   8.129   1.821  0.6303 -0.7395 -0.7587
24276SOL    HW275461   8.484   7.980   1.841 -0.3245 -0.7788 -0.2064
24277SOL     OW75462   7.919   9.045   6.742 -0.1595 -0.0019  0.6948
24277SOL    HW175463   7.892   8.969   6.793 -0.0252  1.1199  2.5241
24277SOL    HW275464   7.867   9.040   6.662  0.5426 -2.5214  0.2825
24278SOL     OW75465  10.032   7.058   6.665  0.2748 -0.0971 -0.1266
24278SOL    HW175466   9.962   7.001   6.633  0.1063 -1.1516  1.9137
24278SOL    HW275467  10.109   7.033   6.616 -0.1055 -1.1549 -0.2088
24279SOL     OW75468   1.044   1.598   3.568  0.6994  0.5194 -0.1517
24279SOL    HW175469   1.058   1.537   3.496 -0.8259 -1.9071  1.4419
24279SOL    HW275470   0.951   1.617   3.566  0.4677 -0.1970  1.5338
24280SOL     OW75471   0.418   3.771   4.452 -0.2523  0.1923  0.6198
24280SOL    HW175472   0.420   3.856   4.497 -0.8119  0.0511  0.9208
24280SOL    HW275473   0.344   3.725   4.491  0.2683 -0.5795  0.7189
24281SOL     OW75474   1.153   8.009   2.862  0.0776  0.1676  0.2757
24281SOL    HW175475   1.157   7.931   2.918  1.5939  0.1382  0.1681
24281SOL    HW275476   1.063   8.040   2.871 -0.1393 -0.7275  1.5132
24282SOL     OW75477  10.064   1.161   3.593 -0.6918 -0.9462 -0.0340
24282SOL    HW175478  10.137   1.215   3.562 -0.1448 -1.9420 -0.5432
24282SOL    HW275479  10.020   1.215   3.658  0.2583 -0.1630 -0.0161
24283SOL     OW75480   4.822   3.230   3.430  0.1435 -0.3611  0.3609
24283SOL    HW175481   4.743   3.183   3.456  0.2064 -0.0709  1.1075
24283SOL    HW275482   4.866   3.171   3.369 -1.3886  0.0844 -1.2721
24284SOL     OW75483   2.729   8.932   3.009  0.7324  0.3160 -0.2630
24284SOL    HW175484   2.793   8.873   3.050  1.3425  1.1117 -0.0563
24284SOL    HW275485   2.770   8.961   2.928  0.3298  0.2718 -0.4893
24285SOL     OW75486   1.091   4.040   7.940  0.2788 -0.2486 -0.1193
24285SOL    HW175487   1.175   4.035   7.985  1.0848 -0.2630 -1.5718
24285SOL    HW275488   1.070   4.133   7.937 -0.7945 -0.3736  2.0349
24286SOL     OW75489   1.477   3.112   7.427 -0.0657 -0.5131 -0.5863
24286SOL    HW175490   1.425   3.032   7.433  0.2064 -0.8761 -2.3616
24286SOL    HW275491   1.513   3.125   7.515 -2.8532 -0.4085  0.6384
24287SOL     OW75492   9.320   2.701   4.615  0.0794  0.4190 -0.0359
24287SOL    HW175493   9.320   2.606   4.625 -0.0051  0.4030 -0.1832
24287SOL    HW275494   9.236   2.721   4.574 -0.0278  0.5870  0.2599
24288SOL     OW75495   8.803   6.772   4.478  0.7123  0.4860 -0.5306
24288SOL    HW175496   8.756   6.727   4.548 -0.3222  0.2390 -1.3596
24288SOL    HW275497   8.877   6.813   4.522  0.4945 -0.2652  0.5891
24289SOL     OW75498   9.129   0.793   6.045 -0.2233 -0.2996  0.3812
24289SOL    HW175499   9.103   0.885   6.041  0.6710 -0.0515 -0.0391
24289SOL    HW275500   9.114   0.760   5.957  1.1550 -0.0494  0.0172
24290SOL     OW75501   9.661   2.602   9.170 -0.1443  0.5203 -0.0681
24290SOL    HW175502   9.620   2.689   9.170 -1.1132  0.0784  0.0875
24290SOL    HW275503   9.755   2.620   9.164 -0.4114  1.5299 -3.3771
24291SOL     OW75504   5.978   8.802   6.322  0.7417  0.3192 -0.2088
24291SOL    HW175505   5.894   8.759   6.340  0.5192 -0.9335 -3.4779
24291SOL    HW275506   5.957   8.896   6.322 -0.3818  0.0838  0.2323
24292SOL     OW75507   0.484   1.198   6.853 -0.6915  0.2177 -0.5702
24292SOL    HW175508   0.397   1.160   6.856 -0.8709  0.5223 -1.5212
24292SOL    HW275509   0.540   1.127   6.821 -0.5403 -0.0475  0.2614
24293SOL     OW75510   7.185   0.633   9.312  0.3614  0.6804  0.2603
24293SOL    HW175511   7.219   0.664   9.396  0.0263  0.4100  0.4991
24293SOL    HW275512   7.263   0.609   9.262  0.6570  2.2758 -0.0891
24294SOL     OW75513   5.540   8.824   4.264 -0.1171 -0.0961 -0.1833
24294SOL    HW175514   5.564   8.885   4.334 -0.7393 -0.4750  0.3763
24294SOL    HW275515   5.613   8.762   4.261  0.4720  0.6096 -0.6920
24295SOL     OW75516   9.122   6.926   8.144 -0.9115  0.1792 -0.2956
24295SOL    HW175517   9.168   6.965   8.070 -2.4457 -2.4292 -2.8382
24295SOL    HW275518   9.030   6.942   8.127 -1.2753  1.0670  2.1038
24296SOL     OW75519   6.740   2.257   6.263 -0.8851  0.4414 -0.0746
24296SOL    HW175520   6.794   2.233   6.188 -0.5971  0.9165 -0.0233
24296SOL    HW275521   6.749   2.352   6.270 -0.9866  0.4143  0.5045
24297SOL     OW75522   2.940   7.893   0.774 -0.2878  0.0891 -0.7229
24297SOL    HW175523   3.003   7.945   0.824 -0.6363 -0.7555  0.6541
24297SOL    HW275524   2.987   7.812   0.753 -0.8887 -0.5444  0.3107
24298SOL     OW75525   8.216   0.481   0.447 -0.4034  0.3585 -0.1959
24298SOL    HW175526   8.234   0.575   0.450  1.4994  0.0364  0.3760
24298SOL    HW275527   8.265   0.450   0.371  3.3672 -0.8418  2.3809
24299SOL     OW75528   3.381   3.665   3.826 -0.0107  0.3155 -0.1964
24299SOL    HW175529   3.318   3.703   3.887  0.5598 -1.0452  1.3173
24299SOL    HW275530   3.369   3.714   3.744 -0.8989  2.0904  0.9541
24300SOL     OW75531   6.043   1.058  10.089  0.1772 -0.2368 -0.5421
24300SOL    HW175532   6.051   1.069   9.994  1.5846  0.0323 -0.4136
24300SOL    HW275533   6.104   0.987  10.110  0.2362  0.0274  0.2149
24301SOL     OW75534   0.694   1.709   0.110 -0.0776  0.2975 -0.3248
24301SOL    HW175535   0.722   1.752   0.029 -0.2041  2.0939  0.5247
24301SOL    HW275536   0.764   1.647   0.129  1.4652  1.9735 -0.2714
24302SOL     OW75537   4.017   5.381   5.426 -0.1448  0.6625 -0.1618
24302SOL    HW175538   3.996   5.441   5.498  0.3864  0.0613  0.5143
24302SOL    HW275539   3.952   5.401   5.358 -0.3093  1.6229  0.2635
24303SOL     OW75540   1.244   2.770   8.438  0.2160 -1.0362 -0.2411
24303SOL    HW175541   1.266   2.682   8.470  0.8215 -0.0794  2.2150
24303SOL    HW275542   1.193   2.809   8.509  1.5186  1.2306 -0.4515
24304SOL     OW75543   8.729   8.724   8.081 -0.2047 -0.2077 -0.4925
24304SOL    HW175544   8.644   8.715   8.122 -0.9133  1.4579 -1.5153
24304SOL    HW275545   8.723   8.671   8.001  0.0487 -0.8264 -0.1064
24305SOL     OW75546   6.870   4.183   4.025 -0.5553 -0.0100 -0.6245
24305SOL    HW175547   6.830   4.220   3.947  1.0869  0.3020 -1.3680
24305SOL    HW275548   6.909   4.100   3.995  0.1189  0.1270 -0.1594
24306SOL     OW75549   8.895   2.524   3.313  0.1439 -0.2917  0.2400
24306SOL    HW175550   8.803   2.529   3.288 -0.3642 -0.1831  2.0200
24306SOL    HW275551   8.935   2.601   3.273 -0.8626  0.4898  0.7125
24307SOL     OW75552   8.230   4.694   9.945 -0.3544 -0.5929 -0.5327
24307SOL    HW175553   8.308   4.641   9.927 -0.7993 -0.7789 -2.0239
24307SOL    HW275554   8.263   4.784   9.951 -0.1884 -0.4374 -2.8572
24308SOL     OW75555   5.450   4.311  10.203 -0.2656 -0.1010  0.4483
24308SOL    HW175556   5.506   4.241  10.237 -0.1089 -0.7196 -1.0035
24308SOL    HW275557   5.362   4.273  10.203 -0.1032 -0.5321 -0.8532
24309SOL     OW75558   3.544   7.011   6.699  1.3401 -0.2975  0.1615
24309SOL    HW175559   3.468   7.036   6.751  2.0500 -1.1397  1.6802
24309SOL    HW275560   3.619   7.023   6.758  2.0455 -2.5957 -0.1573
24310SOL     OW75561   6.612   0.727   5.018 -0.0688  0.1214  0.1417
24310SOL    HW175562   6.704   0.742   5.041 -0.1450 -2.3092  2.6291
24310SOL    HW275563   6.602   0.764   4.930  3.2999  0.3130 -0.2755
24311SOL     OW75564   5.864   6.173   6.837  0.2666  0.1950 -0.1032
24311SOL    HW175565   5.915   6.092   6.831  0.1490  0.1114  0.0048
24311SOL    HW275566   5.909   6.235   6.780 -0.0099 -0.1428 -0.7067
24312SOL     OW75567   3.787   8.275   2.674 -0.0322  0.5654  0.1050
24312SOL    HW175568   3.870   8.267   2.627 -0.3155  0.0991 -0.3164
24312SOL    HW275569   3.726   8.222   2.625 -0.8751  1.8044 -0.2343
24313SOL     OW75570   4.258   4.866   1.603 -0.0551 -0.2191 -0.3710
24313SOL    HW175571   4.240   4.913   1.684  0.1878  0.8874 -0.9320
24313SOL    HW275572   4.181   4.881   1.549  0.5701  0.6876 -1.0536
24314SOL     OW75573   8.829   7.682   5.146  0.1962  0.0797 -0.1964
24314SOL    HW175574   8.833   7.615   5.078 -0.4543 -1.6807  1.4244
24314SOL    HW275575   8.918   7.687   5.180  0.4672  0.7834 -0.9826
24315SOL     OW75576   7.900   7.060   7.451  0.2936  0.6603  0.1714
24315SOL    HW175577   7.878   6.967   7.448 -0.6076  0.8806 -0.6831
24315SOL    HW275578   7.834   7.098   7.510  0.9047  0.7102  0.8412
24316SOL     OW75579   1.005   4.836   1.819 -0.0188 -0.3585  0.6790
24316SOL    HW175580   1.080   4.797   1.863  1.4347  0.6541 -0.7868
24316SOL    HW275581   1.021   4.930   1.822 -1.9626 -0.0193  1.5606
24317SOL     OW75582   5.232   9.047   2.250 -0.3867 -0.2802 -0.0332
24317SOL    HW175583   5.320   9.083   2.237 -0.4930 -0.1826 -0.4900
24317SOL    HW275584   5.248   8.956   2.276 -0.1614 -1.3936 -3.5801
24318SOL     OW75585   3.580   5.360   9.107  0.7002 -0.1381  0.3005
24318SOL    HW175586   3.614   5.372   9.196 -1.5850  0.3686  1.1615
24318SOL    HW275587   3.489   5.388   9.112 -0.1348 -2.2163 -1.6643
24319SOL     OW75588   0.089   0.212   0.383 -0.1600 -0.4339 -0.2841
24319SOL    HW175589   0.016   0.155   0.408  2.5666 -3.3488  1.9764
24319SOL    HW275590   0.086   0.284   0.446 -0.3476 -1.2680  0.6916
24320SOL     OW75591   4.764   5.614   4.670 -0.4092  0.5216  0.6584
24320SOL    HW175592   4.705   5.543   4.692 -2.0732  1.7405  0.3247
24320SOL    HW275593   4.817   5.626   4.749 -3.5533  2.1732  2.7230
24321SOL     OW75594   4.283   7.283   1.468 -0.9814 -0.0691 -0.2543
24321SOL    HW175595   4.295   7.189   1.459 -1.6122 -0.4861  2.3815
24321SOL    HW275596   4.221   7.292   1.541 -1.4146  2.3818 -0.8321
24322SOL     OW75597   7.093   4.680   0.400  0.1473 -0.3837 -0.6717
24322SOL    HW175598   7.083   4.773   0.419  0.5478 -0.3268 -0.7278
24322SOL    HW275599   7.129   4.677   0.311  1.8098 -0.5249 -0.0320
24323SOL     OW75600   1.149   7.172   7.172  0.1211 -0.6630  0.4485
24323SOL    HW175601   1.067   7.126   7.154 -1.2784  2.5933 -2.7255
24323SOL    HW275602   1.214   7.126   7.119 -0.6659 -0.6925 -0.5402
24324SOL     OW75603   0.625   2.453   0.364 -0.1768  0.5098 -0.1659
24324SOL    HW175604   0.702   2.406   0.332 -0.3701 -0.4744  0.7515
24324SOL    HW275605   0.652   2.485   0.450 -1.2582 -1.1613  0.8436
24325SOL     OW75606   5.106   6.309   3.069 -0.2872 -0.5774 -0.8336
24325SOL    HW175607   5.114   6.377   3.001 -2.5326  0.0820 -0.5486
24325SOL    HW275608   5.114   6.227   3.021  1.6423 -0.1559 -1.3216
24326SOL     OW75609   6.129   2.767   7.762 -0.6206  0.8017  0.0465
24326SOL    HW175610   6.095   2.759   7.673  4.1821 -0.9053 -1.9690
24326SOL    HW275611   6.105   2.684   7.804 -0.9657  0.6293 -0.4839
24327SOL     OW75612   2.794   4.734   1.004  0.1788  0.0029  0.2657
24327SOL    HW175613   2.777   4.753   0.911 -2.8283 -1.2759  0.4612
24327SOL    HW275614   2.873   4.680   1.002 -1.0345 -1.8696 -1.8180
24328SOL     OW75615   4.277   9.803  10.241 -0.0292  0.6572  0.4222
24328SOL    HW175616   4.316   9.879  10.284  1.8752  1.6029 -2.6540
24328SOL    HW275617   4.220   9.840  10.173  2.0970 -0.4718 -2.1587
24329SOL     OW75618   8.337   2.489   3.105  0.0088  0.1001  0.3548
24329SOL    HW175619   8.342   2.394   3.092 -0.3694  0.1104  0.1145
24329SOL    HW275620   8.251   2.503   3.145  0.0000  0.3545  0.2487
24330SOL     OW75621   8.580   9.874   2.880  0.1082  0.0005  0.1403
24330SOL    HW175622   8.664   9.858   2.923 -0.0672  1.2234  0.9848
24330SOL    HW275623   8.600   9.877   2.787  1.2303  1.5698  0.4089
24331SOL     OW75624   6.768   1.036   6.782 -0.0920 -0.2627  0.2119
24331SOL    HW175625   6.726   1.113   6.820  1.3733  1.2083 -1.0263
24331SOL    HW275626   6.851   1.028   6.829 -0.2890 -1.1886  0.4240
24332SOL     OW75627   1.426   8.874   7.002 -0.0663  0.0525 -0.2513
24332SOL    HW175628   1.428   8.805   7.069  2.0487  0.4248  0.1306
24332SOL    HW275629   1.451   8.829   6.921  2.6622  0.4962  0.2317
24333SOL     OW75630   1.659   0.203   8.608 -0.5309  0.0204 -0.1854
24333SOL    HW175631   1.683   0.267   8.674 -0.2884 -0.0012 -0.2539
24333SOL    HW275632   1.608   0.252   8.543  0.5954  0.3806 -0.8148
24334SOL     OW75633   2.341   0.891   6.854  0.3903 -0.0977 -0.2919
24334SOL    HW175634   2.355   0.969   6.907 -0.2350 -0.2895  0.1768
24334SOL    HW275635   2.413   0.832   6.878  0.2868 -0.0600  0.1179
24335SOL     OW75636   2.130   6.845   7.725 -0.0066  0.3542 -0.2468
24335SOL    HW175637   2.217   6.885   7.730 -0.3959  1.2029 -0.0916
24335SOL    HW275638   2.145   6.762   7.680  0.7991  0.7483 -0.7361
24336SOL     OW75639  10.283   3.086   0.774  0.1702  0.4099 -0.3241
24336SOL    HW175640  10.302   2.992   0.781 -1.0166  0.1585 -0.4015
24336SOL    HW275641  10.320   3.123   0.854  0.7583 -0.0951 -0.3482
24337SOL     OW75642   5.680   6.477   4.537 -0.2439  0.3921  0.2064
24337SOL    HW175643   5.771   6.453   4.552 -0.2081  0.4478  0.0705
24337SOL    HW275644   5.632   6.430   4.606 -0.2194 -0.4348 -0.3302
24338SOL     OW75645   3.209   3.397   2.174 -0.0387 -0.4854 -0.4567
24338SOL    HW175646   3.294   3.439   2.164 -0.1957  0.1772  0.7692
24338SOL    HW275647   3.230   3.304   2.187  0.5290 -0.2746  0.1978
24339SOL     OW75648   0.456   1.769   1.411  0.1303 -0.0694  0.3878
24339SOL    HW175649   0.373   1.725   1.425 -0.1214 -0.1895 -1.2959
24339SOL    HW275650   0.481   1.801   1.498 -1.2950 -0.6657  1.0487
24340SOL     OW75651   6.323   4.144   9.714 -0.2375  0.1986  0.1315
24340SOL    HW175652   6.232   4.161   9.739 -0.3952 -0.1916 -0.1740
24340SOL    HW275653   6.320   4.064   9.662  0.3280 -0.0184  0.4152
24341SOL     OW75654   4.475   4.851   5.428  0.5636 -0.2155  0.2922
24341SOL    HW175655   4.563   4.888   5.424  0.2130  0.6942  0.7589
24341SOL    HW275656   4.422   4.910   5.376  0.1281 -0.4699  0.4458
24342SOL     OW75657   5.780   6.635   1.672  0.1738 -0.6190  0.0648
24342SOL    HW175658   5.814   6.580   1.602  0.5904 -1.1043  0.6295
24342SOL    HW275659   5.741   6.574   1.734 -2.0262 -0.0589 -0.6922
24343SOL     OW75660   2.904   7.119   3.989  0.1964  0.1509  0.1793
24343SOL    HW175661   2.905   7.212   3.964 -0.1201  0.4974  1.3977
24343SOL    HW275662   2.972   7.079   3.935  1.5271  1.4260  0.8585
24344SOL     OW75663   5.102   7.757   1.914 -0.1969  0.1239  0.2708
24344SOL    HW175664   5.093   7.677   1.967  0.3091 -0.9538 -1.2085
24344SOL    HW275665   5.180   7.742   1.861 -0.9155  0.9918 -1.0804
24345SOL     OW75666   9.663   7.349   2.820  0.9010 -0.0750  0.5688
24345SOL    HW175667   9.679   7.435   2.780 -1.1855  0.2347  0.3148
24345SOL    HW275668   9.716   7.350   2.900  1.6025  1.0847  0.1184
24346SOL     OW75669   5.459   5.629   1.224 -0.4056 -0.4556 -0.0519
24346SOL    HW175670   5.425   5.651   1.311  1.1051  0.3459  0.3602
24346SOL    HW275671   5.397   5.563   1.191  0.0016 -2.2115  2.3830
24347SOL     OW75672   0.302   8.064   0.883 -1.1042  0.0335 -0.1746
24347SOL    HW175673   0.278   8.154   0.858  0.8084  0.2661 -1.3842
24347SOL    HW275674   0.233   8.010   0.845 -1.8722  0.9242 -0.0976
24348SOL     OW75675  10.216   2.875   4.842 -0.6376  0.3510  0.1226
24348SOL    HW175676  10.278   2.810   4.875 -0.0404  0.1563 -1.3303
24348SOL    HW275677  10.268   2.930   4.783 -1.0116  2.4414  1.5967
24349SOL     OW75678   3.049   8.469   8.881  0.6108  0.1914  0.1754
24349SOL    HW175679   3.021   8.560   8.885  1.5784  0.4789  0.5730
24349SOL    HW275680   3.072   8.455   8.789 -1.3730 -0.2379 -0.3035
24350SOL     OW75681   4.386   6.955   7.826  0.3363 -0.1667  0.0825
24350SOL    HW175682   4.352   7.044   7.821 -1.2729 -0.7685 -0.2559
24350SOL    HW275683   4.480   6.966   7.840  0.3819  1.5935 -1.2427
24351SOL     OW75684   0.171   4.937   5.027 -0.3853 -0.0034 -0.1347
24351SOL    HW175685   0.240   4.872   5.043  0.7620  0.9786 -0.8722
24351SOL    HW275686   0.153   4.975   5.113  0.2640 -0.0250  0.0173
24352SOL     OW75687   8.825   1.686   3.922  0.7684  0.4575  0.4038
24352SOL    HW175688   8.851   1.703   4.013  2.0217 -1.3618  0.4314
24352SOL    HW275689   8.882   1.615   3.893 -1.0197 -0.4309 -1.1570
24353SOL     OW75690   1.516   8.696   0.277  0.1806  0.2592 -0.2160
24353SOL    HW175691   1.543   8.730   0.192  1.4263  0.5628  0.2905
24353SOL    HW275692   1.487   8.606   0.259  2.2146 -0.3468 -0.7036
24354SOL     OW75693   3.852   8.918   7.847  0.3149  0.3559 -0.2900
24354SOL    HW175694   3.823   8.996   7.894  1.2392 -0.1695  1.2622
24354SOL    HW275695   3.854   8.944   7.755 -0.4561  1.8081  0.0743
24355SOL     OW75696   5.834   6.974   7.678  0.2597  0.2700 -0.1397
24355SOL    HW175697   5.740   6.961   7.667  0.0302  0.8073  1.0519
24355SOL    HW275698   5.864   7.007   7.592 -0.7280  0.6004 -0.3663
24356SOL     OW75699   8.490   9.075   7.501 -0.5777 -0.5298  1.0660
24356SOL    HW175700   8.543   9.146   7.465 -2.1027  0.2061  0.1822
24356SOL    HW275701   8.552   9.021   7.549  1.2320 -0.4305 -0.9946
24357SOL     OW75702   2.428   8.923   1.564 -0.4089  0.0437  0.3994
24357SOL    HW175703   2.410   8.986   1.494  1.4286  0.1538 -0.0030
24357SOL    HW275704   2.425   8.838   1.521 -1.1015 -0.0323  0.5812
24358SOL     OW75705   3.145   3.747   9.870 -0.0642  0.1503  0.5923
24358SOL    HW175706   3.098   3.670   9.903  1.4905 -0.4899  1.4339
24358SOL    HW275707   3.150   3.733   9.776 -0.9162 -0.1214  0.5760
24359SOL     OW75708   9.411   6.957   4.862 -0.6974 -0.3923  0.2953
24359SOL    HW175709   9.401   7.023   4.793 -0.8584 -1.0005 -0.2787
24359SOL    HW275710   9.472   6.996   4.924 -0.3893  0.0909 -0.2965
24360SOL     OW75711   8.004   7.814   1.859 -0.2772  0.5067  0.1316
24360SOL    HW175712   7.969   7.872   1.926  0.2455  0.3043  0.5908
24360SOL    HW275713   8.054   7.871   1.801  1.4160  0.3680  1.3711
24361SOL     OW75714   7.232  10.178   8.242  0.0431  0.2584  0.2638
24361SOL    HW175715   7.156  10.169   8.299 -0.3686 -3.8667 -0.6476
24361SOL    HW275716   7.307  10.176   8.301 -0.4157  1.7041  0.9608
24362SOL     OW75717   1.983   8.075   3.750  0.2865 -0.1907  0.3697
24362SOL    HW175718   2.010   8.095   3.661 -2.9325  0.1216 -0.6376
24362SOL    HW275719   2.040   8.002   3.776  2.5062  0.8778 -1.2060
24363SOL     OW75720   4.577   7.947   5.995  0.1747  0.2893 -0.5071
24363SOL    HW175721   4.545   7.997   6.070 -1.0074  0.2502 -0.9616
24363SOL    HW275722   4.669   7.974   5.986 -0.0036  1.1956  0.2061
24364SOL     OW75723   6.182   0.399  10.242 -0.5343 -0.2965 -0.0053
24364SOL    HW175724   6.150   0.387  10.153  0.8636 -1.6514 -0.3639
24364SOL    HW275725   6.208   0.491  10.247  0.9880 -0.5914 -1.5896
24365SOL     OW75726   7.283   9.342   3.780  0.0631 -0.6195  0.2506
24365SOL    HW175727   7.320   9.277   3.840  0.5679 -0.4995  0.0774
24365SOL    HW275728   7.288   9.300   3.694  1.5554  0.1071 -0.0505
24366SOL     OW75729   9.020   2.992   7.788 -0.2572 -0.6346  0.1468
24366SOL    HW175730   8.930   2.966   7.765  0.0078 -0.3513 -1.2709
24366SOL    HW275731   9.014   3.086   7.803 -0.0101 -0.4092 -1.0513
24367SOL     OW75732   9.633   1.488   5.672  0.4781 -0.0490  0.0875
24367SOL    HW175733   9.660   1.487   5.580  1.6603  0.5249  0.4125
24367SOL    HW275734   9.604   1.578   5.687  1.6543  0.2620  0.6322
24368SOL     OW75735   7.965   9.288   4.525  0.3254 -0.3576 -0.6506
24368SOL    HW175736   8.005   9.375   4.526  0.6363 -0.5026  0.7810
24368SOL    HW275737   7.905   9.290   4.450 -1.4246  1.8950  0.6923
24369SOL     OW75738   6.210   5.623  10.186 -0.1572  0.0563  0.4496
24369SOL    HW175739   6.151   5.582  10.250  0.8965 -2.2909 -0.0001
24369SOL    HW275740   6.290   5.642  10.236  0.0759 -0.2665  0.1962
24370SOL     OW75741   5.300   8.124   2.441  0.5147  0.7862  0.5781
24370SOL    HW175742   5.254   8.181   2.379 -0.4765  0.1027  0.6719
24370SOL    HW275743   5.362   8.183   2.485 -0.1014  1.6775  0.2882
24371SOL     OW75744   5.140   9.114   1.082  0.0577  0.2276 -0.0025
24371SOL    HW175745   5.182   9.092   0.999  2.1517  1.5507  0.6070
24371SOL    HW275746   5.081   9.186   1.061 -0.0388  0.0050 -0.4893
24372SOL     OW75747   7.906   1.489  10.320  0.4786  0.3042  0.1471
24372SOL    HW175748   7.829   1.546  10.320  0.0112 -0.3090  0.9922
24372SOL    HW275749   7.975   1.541  10.361 -0.4756 -0.3845  2.7940
24373SOL     OW75750   9.016   5.512   4.056 -0.6482 -0.2893 -0.3597
24373SOL    HW175751   9.093   5.499   4.000 -0.8596 -2.0835 -0.2875
24373SOL    HW275752   9.043   5.479   4.142 -1.8781 -2.2536 -0.6612
24374SOL     OW75753   1.615   9.083   4.178  0.0780 -0.2521 -0.3186
24374SOL    HW175754   1.605   9.082   4.273  0.6493  3.0627 -0.1213
24374SOL    HW275755   1.709   9.096   4.164  0.9261 -5.4174 -1.6173
24375SOL     OW75756   8.898   3.432   2.899  0.4898 -0.1666  0.0175
24375SOL    HW175757   8.808   3.410   2.922  0.8058  0.5813  2.2049
24375SOL    HW275758   8.890   3.512   2.847 -0.1057  0.1423  0.5679
24376SOL     OW75759   5.742   7.360   3.762 -0.3111 -0.1410  0.0429
24376SOL    HW175760   5.758   7.402   3.847 -1.5290 -1.0546  0.7573
24376SOL    HW275761   5.648   7.373   3.747 -0.0687  0.1769 -1.2724
24377SOL     OW75762   1.164   1.007   4.862  0.2031  0.0629  0.2823
24377SOL    HW175763   1.072   1.006   4.886  0.3807  0.3471  0.9933
24377SOL    HW275764   1.165   1.031   4.769 -0.3508  1.8725  0.7085
24378SOL     OW75765   5.988   9.485   8.213 -0.1542  0.3075 -0.0842
24378SOL    HW175766   6.009   9.413   8.271  0.9575 -0.1649 -1.0148
24378SOL    HW275767   5.915   9.454   8.159 -1.3692  0.8478  1.1940
24379SOL     OW75768   9.597  10.126   9.369  0.6317 -0.2313  0.5220
24379SOL    HW175769   9.509  10.098   9.393  0.6529 -0.3819  0.4273
24379SOL    HW275770   9.651  10.047   9.378  1.0856  0.2321  2.1804
24380SOL     OW75771   3.003   3.744   7.316 -0.3995 -0.3762 -0.0203
24380SOL    HW175772   3.009   3.833   7.282  0.4517 -0.3903  0.0602
24380SOL    HW275773   2.942   3.751   7.390  1.0527  0.5373  1.1624
24381SOL     OW75774   6.337   7.515   6.738 -0.5900  0.4473 -0.2428
24381SOL    HW175775   6.295   7.575   6.677 -0.3366  1.3957  0.5059
24381SOL    HW275776   6.323   7.554   6.824  1.0702  0.3402  0.1048
24382SOL     OW75777   1.132   3.171   0.777  0.1686  0.6122 -0.3292
24382SOL    HW175778   1.073   3.152   0.703  0.8883 -0.6051 -0.6184
24382SOL    HW275779   1.203   3.221   0.738  0.4709  0.1019 -0.4432
24383SOL     OW75780   5.612   3.438   0.262 -0.2036 -0.3176  0.6252
24383SOL    HW175781   5.541   3.374   0.263 -2.1766  1.7164  0.9654
24383SOL    HW275782   5.650   3.434   0.349 -2.0733  0.7028  1.5550
24384SOL     OW75783   5.624   1.661   6.699 -0.2425 -0.0096  0.4227
24384SOL    HW175784   5.711   1.671   6.738  0.8110 -2.2016 -1.1074
24384SOL    HW275785   5.574   1.612   6.764  0.0797  0.1874  0.8217
24385SOL     OW75786   4.864   4.861   5.051 -0.4416 -0.5885  0.3518
24385SOL    HW175787   4.911   4.944   5.064 -1.1150 -0.4335  2.0824
24385SOL    HW275788   4.780   4.887   5.013 -0.5086 -0.5085  0.5519
24386SOL     OW75789   4.174   6.189   3.524  0.2908 -0.1861 -0.1893
24386SOL    HW175790   4.243   6.238   3.477  0.5186  0.9629  1.2630
24386SOL    HW275791   4.216   6.163   3.606 -1.1752  1.2051  1.0718
24387SOL     OW75792   3.104   6.721   8.827  0.4319 -0.4189  0.3337
24387SOL    HW175793   3.191   6.690   8.802 -0.1125 -0.3980 -1.7549
24387SOL    HW275794   3.067   6.650   8.879  1.9843 -0.0694  1.9998
24388SOL     OW75795   4.042   3.511   4.877 -0.1322  0.0398 -0.4051
24388SOL    HW175796   4.001   3.526   4.962  0.5019 -1.5352  0.2191
24388SOL    HW275797   3.974   3.467   4.826 -0.2140  0.1612 -0.4017
24389SOL     OW75798   0.138   1.394   3.805 -0.0890 -0.0441 -0.2273
24389SOL    HW175799   0.097   1.409   3.720  1.8957 -1.1023 -1.4575
24389SOL    HW275800   0.171   1.304   3.800  1.1775  0.2984  1.1653
24390SOL     OW75801   1.613   7.497   3.609  0.2978  0.4150 -0.0085
24390SOL    HW175802   1.574   7.416   3.643  2.5977  0.0111  1.8632
24390SOL    HW275803   1.663   7.469   3.532 -0.9368  0.5268 -0.8857
24391SOL     OW75804   4.744   0.586   3.254 -0.4035  0.1889 -0.6537
24391SOL    HW175805   4.696   0.668   3.258 -0.9978 -0.0523 -2.0183
24391SOL    HW275806   4.802   0.596   3.178 -0.8199 -0.7895 -1.1325
24392SOL     OW75807   8.384   7.088   0.875 -0.4679 -0.2361 -0.4596
24392SOL    HW175808   8.357   7.113   0.787 -0.0753  1.8271 -0.0408
24392SOL    HW275809   8.474   7.055   0.864  0.8349  2.9990 -0.5075
24393SOL     OW75810   4.891   9.206   4.825  0.1874 -0.1055 -0.1817
24393SOL    HW175811   4.869   9.175   4.737  0.7861  1.0651 -0.7753
24393SOL    HW275812   4.938   9.288   4.810  1.8752 -0.7527  1.1565
24394SOL     OW75813   9.013   6.107   9.824 -0.0446 -0.0609 -0.2742
24394SOL    HW175814   8.940   6.154   9.864  0.0348 -0.6749  0.6347
24394SOL    HW275815   8.980   6.077   9.740 -0.8060 -0.2529  0.0849
24395SOL     OW75816   2.628   5.059   3.421 -0.4556 -0.3948 -0.2479
24395SOL    HW175817   2.634   5.102   3.336  1.3418 -0.7931 -0.3617
24395SOL    HW275818   2.707   5.087   3.468 -0.1418 -2.1302  0.3374
24396SOL     OW75819   3.430   0.573   1.589  0.2645 -0.4085  0.0736
24396SOL    HW175820   3.484   0.501   1.621 -0.5949 -0.8349  0.5776
24396SOL    HW275821   3.340   0.544   1.602 -0.0967  0.3556 -0.6242
24397SOL     OW75822   1.000   5.770   0.884  0.3378  0.1745  0.2791
24397SOL    HW175823   0.906   5.758   0.897  0.2104 -0.0719 -0.8171
24397SOL    HW275824   1.035   5.681   0.881  0.6896  0.2686  1.1398
24398SOL     OW75825   6.005   6.927   8.570  0.2307 -0.0764 -0.1722
24398SOL    HW175826   6.047   6.844   8.592  0.5696 -0.3536 -1.7880
24398SOL    HW275827   5.911   6.908   8.571  0.3277 -0.6835 -1.2543
24399SOL     OW75828   2.685   9.778   5.539  0.2049  0.4113  0.1205
24399SOL    HW175829   2.665   9.808   5.451  0.5479  1.2433  0.3170
24399SOL    HW275830   2.623   9.824   5.595 -1.9769 -2.2721  0.0790
24400SOL     OW75831   3.133   9.807   2.448 -0.0722  0.0534 -0.0045
24400SOL    HW175832   3.052   9.794   2.398  0.3633 -1.1184 -0.4588
24400SOL    HW275833   3.131   9.898   2.475 -1.5132  0.0577 -0.0688
24401SOL     OW75834   1.114   5.999   3.819  0.3903 -0.2735  0.3650
24401SOL    HW175835   1.023   6.021   3.838  0.0040 -1.3321 -0.1663
24401SOL    HW275836   1.112   5.961   3.731  1.4715  0.4155  0.0250
24402SOL     OW75837   6.015   5.406   3.859  0.1246  0.1864 -0.1377
24402SOL    HW175838   5.960   5.336   3.895 -0.3696  0.4203 -0.4283
24402SOL    HW275839   6.097   5.400   3.909 -0.7758  0.9547  1.5001
24403SOL     OW75840   2.015   7.450   4.173  0.2116 -0.2201 -0.7304
24403SOL    HW175841   2.034   7.493   4.090 -0.6269 -1.6940 -1.7433
24403SOL    HW275842   1.926   7.416   4.162 -0.3946  0.5747  1.2391
24404SOL     OW75843   4.854   4.754   5.285  0.1940 -0.0292 -0.1079
24404SOL    HW175844   4.947   4.753   5.310  0.0351  0.6927  0.5526
24404SOL    HW275845   4.852   4.800   5.201  0.6443 -1.7612 -1.1006
24405SOL     OW75846  10.295   4.161   6.693 -0.0006  0.5645  0.4062
24405SOL    HW175847  10.275   4.095   6.760  1.6658 -1.3846 -0.8888
24405SOL    HW275848  10.252   4.128   6.614  0.7367  1.1128 -0.2322
24406SOL     OW75849   0.459   2.028   0.457  0.0248 -0.0085  0.2531
24406SOL    HW175850   0.463   2.122   0.442 -0.1434 -0.2179 -1.2775
24406SOL    HW275851   0.493   1.989   0.376 -1.2907 -1.2694  0.2473
24407SOL     OW75852   6.916   8.930   4.487  0.0369  0.2908 -0.7864
24407SOL    HW175853   6.878   8.956   4.403  0.8724  2.0702 -0.6618
24407SOL    HW275854   6.985   8.867   4.463 -0.2746  0.1492 -1.3436
24408SOL     OW75855   2.356   8.347   8.258 -0.0031 -0.1243  0.5197
24408SOL    HW175856   2.432   8.405   8.250 -1.4501  1.9817  1.1584
24408SOL    HW275857   2.326   8.358   8.348 -0.4967 -1.7105  0.5792
24409SOL     OW75858   3.343   0.527   3.370  0.5283 -0.7114 -0.0870
24409SOL    HW175859   3.306   0.440   3.386  0.7011 -0.7492  0.1051
24409SOL    HW275860   3.422   0.510   3.319  0.4022 -0.6462 -0.3036
24410SOL     OW75861  10.151   8.373   8.308  0.4933 -0.4852  0.9599
24410SOL    HW175862  10.242   8.346   8.311  0.8076  0.4190  0.0438
24410SOL    HW275863  10.106   8.315   8.370  1.7699 -0.5645  1.8325
24411SOL     OW75864   5.620  10.158   9.209 -0.0306 -0.1209 -0.2035
24411SOL    HW175865   5.525  10.148   9.198  0.1273 -0.2462 -1.5643
24411SOL    HW275866   5.652  10.068   9.221 -0.0206 -0.1194 -0.2227
24412SOL     OW75867   4.712   1.312  10.011 -0.0502  0.4112  0.0604
24412SOL    HW175868   4.666   1.268  10.083  0.4435  0.3693  0.3544
24412SOL    HW275869   4.782   1.361  10.054  0.3427  0.2693 -0.4092
24413SOL     OW75870   1.290   6.007   4.326 -0.2529 -0.1531  0.5993
24413SOL    HW175871   1.328   6.050   4.403 -0.8445  0.0032  0.8108
24413SOL    HW275872   1.286   6.076   4.260  2.3123 -0.8053 -0.3423
24414SOL     OW75873   1.644   2.257   5.462 -0.2982 -0.0321  0.3094
24414SOL    HW175874   1.728   2.295   5.489 -1.1513  1.2389  1.2798
24414SOL    HW275875   1.666   2.200   5.388  1.4478  0.0746  0.7094
24415SOL     OW75876   9.221   2.676   3.685 -0.0561 -0.6422 -0.0870
24415SOL    HW175877   9.204   2.769   3.701 -0.4066 -0.5481 -0.9423
24415SOL    HW275878   9.137   2.634   3.701  0.0911 -0.8123  0.2551
24416SOL     OW75879   6.751   1.459   8.141  0.2976  0.3949 -0.0892
24416SOL    HW175880   6.774   1.454   8.049 -3.2668 -1.1631 -1.0960
24416SOL    HW275881   6.700   1.540   8.149  1.3883  1.0314  0.8040
24417SOL     OW75882   7.738   3.701   5.220  0.2191  0.5840 -0.3251
24417SOL    HW175883   7.779   3.775   5.264  1.5790  0.5911 -1.5189
24417SOL    HW275884   7.774   3.624   5.264 -0.0306  0.6209 -0.0599
24418SOL     OW75885   4.336   2.539   8.400 -0.4507  0.2110  0.6298
24418SOL    HW175886   4.259   2.487   8.422 -0.0653 -0.3524  0.6844
24418SOL    HW275887   4.328   2.618   8.453 -0.3094 -0.4482  1.6589
24419SOL     OW75888   5.666   8.993   1.919  0.0442 -0.2837 -0.0324
24419SOL    HW175889   5.671   9.053   1.845 -1.2692 -0.6633 -0.4710
24419SOL    HW275890   5.641   8.909   1.880  0.1326 -0.6847  0.7572
24420SOL     OW75891   3.239   1.312   7.524 -0.4676  0.4472  0.3509
24420SOL    HW175892   3.199   1.395   7.549  1.9262  1.4939  1.0176
24420SOL    HW275893   3.331   1.333   7.508 -0.0213 -1.8802 -0.5954
24421SOL     OW75894   2.862   3.591  10.233  0.2864  0.8023  1.0633
24421SOL    HW175895   2.767   3.585  10.218  0.4344 -0.5821  0.5402
24421SOL    HW275896   2.870   3.612  10.326 -0.5280 -0.2436  1.3857
24422SOL     OW75897   3.336   8.751   0.782  0.1972  1.1588 -0.9071
24422SOL    HW175898   3.344   8.828   0.726 -0.3004  1.4879 -0.5340
24422SOL    HW275899   3.270   8.697   0.737 -0.7493  1.7575 -0.2878
24423SOL     OW75900   1.907   2.397   5.208 -0.7545 -0.1603  0.2464
24423SOL    HW175901   1.917   2.308   5.176  0.5270  0.3125 -0.7389
24423SOL    HW275902   1.921   2.452   5.131 -0.5149  0.9176  1.0410
24424SOL     OW75903   4.095   2.056   3.010 -0.2431  0.1822 -0.2516
24424SOL    HW175904   4.072   2.116   3.081  1.2718  1.5978 -0.8917
24424SOL    HW275905   4.138   2.112   2.946 -1.7266 -1.0144 -2.4057
24425SOL     OW75906   5.493   5.662   7.832 -0.1974  0.8482 -0.7098
24425SOL    HW175907   5.539   5.617   7.903  1.2447  1.5077 -1.1795
24425SOL    HW275908   5.426   5.599   7.804 -0.2716  0.2650  0.6855
24426SOL     OW75909   5.422   6.917   8.429 -0.4248  0.2475  0.1416
24426SOL    HW175910   5.468   6.845   8.386 -0.5205  0.1731  0.1641
24426SOL    HW275911   5.383   6.878   8.507 -0.9958  0.1803 -0.1666
24427SOL     OW75912   1.096   4.133   9.767  0.7724 -0.2148  0.1079
24427SOL    HW175913   1.134   4.152   9.681 -0.1264  1.2647 -0.0015
24427SOL    HW275914   1.005   4.163   9.760  0.6667 -0.1165  1.5594
24428SOL     OW75915   9.000   0.581   8.835  0.1275  0.4438 -0.1920
24428SOL    HW175916   8.961   0.620   8.913  1.6773  2.4446 -0.3319
24428SOL    HW275917   9.005   0.487   8.855 -1.6435  0.5940  1.1202
24429SOL     OW75918  10.119   1.684   9.281 -0.1161  0.1450 -0.3302
24429SOL    HW175919  10.195   1.689   9.340 -0.2023  0.4035 -0.2417
24429SOL    HW275920  10.141   1.743   9.209  0.1168 -0.3912 -0.7079
24430SOL     OW75921   2.480   3.758   4.081 -0.1054  0.3454  0.4958
24430SOL    HW175922   2.525   3.674   4.075  0.8910  0.8120  1.2495
24430SOL    HW275923   2.483   3.794   3.993 -1.0467 -0.6451  0.0300
24431SOL     OW75924   8.116   7.968   3.694  0.3827 -0.2173  0.0535
24431SOL    HW175925   8.178   7.966   3.621  0.1257  1.2274 -0.2340
24431SOL    HW275926   8.051   7.901   3.671  0.7451 -0.3491 -0.6413
24432SOL     OW75927   6.513   0.408   5.959  0.3328 -0.0043 -0.1506
24432SOL    HW175928   6.454   0.459   6.016  0.5559  0.7564 -0.5932
24432SOL    HW275929   6.455   0.371   5.892 -0.0397 -1.4644  0.9270
24433SOL     OW75930   5.947   0.999   0.720 -0.2184  0.4204 -0.0282
24433SOL    HW175931   5.988   0.950   0.649  1.3147  0.2802  0.9218
24433SOL    HW275932   5.980   1.088   0.710  1.5747  0.0014  1.6021
24434SOL     OW75933   1.577   4.040   8.901  0.1242  0.3310 -0.0124
24434SOL    HW175934   1.650   4.096   8.927  0.5249  0.2557 -0.9616
24434SOL    HW275935   1.609   3.991   8.826 -1.1726  0.9354 -1.0054
24435SOL     OW75936   8.821   4.797   2.067 -0.4087  0.0622 -0.0150
24435SOL    HW175937   8.828   4.887   2.100 -0.5318 -0.4083  1.3306
24435SOL    HW275938   8.732   4.791   2.033 -0.6528  0.2173  0.5924
24436SOL     OW75939   7.153  10.171   9.936 -0.0279  0.3216 -0.4765
24436SOL    HW175940   7.169  10.107  10.006  1.2723  2.0046  0.8540
24436SOL    HW275941   7.068  10.209   9.958 -0.2944 -0.1599 -0.6548
24437SOL     OW75942   5.528   8.164   0.325 -0.5800 -0.1133 -0.2911
24437SOL    HW175943   5.547   8.072   0.307 -0.3011 -0.2553  0.7001
24437SOL    HW275944   5.506   8.167   0.418  0.6165  1.0072 -0.0104
24438SOL     OW75945   5.670   7.512   9.095 -0.1959  0.4548 -0.0498
24438SOL    HW175946   5.696   7.421   9.105 -3.3989 -0.6074 -0.1527
24438SOL    HW275947   5.672   7.528   9.001 -0.2572  0.2847 -0.0796
24439SOL     OW75948   8.902  10.343   3.815 -0.4978 -0.0867 -0.2355
24439SOL    HW175949   8.954  10.400   3.759 -1.6900  0.4187 -0.8675
24439SOL    HW275950   8.813  10.348   3.778 -1.6164  1.2133  2.3581
24440SOL     OW75951   6.435   8.741   7.365 -0.9237 -0.1581  0.5318
24440SOL    HW175952   6.349   8.719   7.402 -0.2130 -0.7742  1.8532
24440SOL    HW275953   6.495   8.740   7.439  0.1113  1.0611 -0.2395
24441SOL     OW75954   8.002   1.429   2.268 -0.3654  0.1812  0.2348
24441SOL    HW175955   8.094   1.414   2.290  0.0355  0.8866 -0.8995
24441SOL    HW275956   7.969   1.343   2.241  0.4994  0.2658 -1.1900
24442SOL     OW75957   8.256   0.289   7.209 -0.0705 -0.1114 -0.0111
24442SOL    HW175958   8.269   0.283   7.304 -0.1470  0.5434  0.0396
24442SOL    HW275959   8.170   0.329   7.199  0.6156  1.3508 -0.3451
24443SOL     OW75960   3.437   9.661   5.243  0.1456 -0.5663  0.6143
24443SOL    HW175961   3.528   9.686   5.226 -0.0882 -0.1005  0.0080
24443SOL    HW275962   3.400   9.735   5.292  0.5487 -1.4897  2.4096
24444SOL     OW75963   1.776   0.531   0.327 -0.6722 -0.3166  0.4888
24444SOL    HW175964   1.701   0.564   0.377 -0.2334 -0.1595  1.0468
24444SOL    HW275965   1.830   0.486   0.391  1.6212  2.7462  0.8833
24445SOL     OW75966   6.126   9.859   5.767  0.1360 -0.1748 -0.4088
24445SOL    HW175967   6.131   9.873   5.672  0.0182 -1.0046 -0.5488
24445SOL    HW275968   6.071   9.781   5.776  0.7235 -0.5134  0.3024
24446SOL     OW75969   8.089   4.750   0.008  0.2355  0.4359  0.0690
24446SOL    HW175970   8.130   4.673   0.047  0.1756  0.8877  1.0626
24446SOL    HW275971   8.141   4.824   0.041  0.2711  0.8202 -0.8417
24447SOL     OW75972   4.817   3.679   0.634 -0.1787  0.1506 -0.3352
24447SOL    HW175973   4.825   3.586   0.610 -0.8553 -0.0977  0.3947
24447SOL    HW275974   4.907   3.711   0.632 -0.0096 -0.3380 -1.2999
24448SOL     OW75975   7.414   5.963   8.441 -0.6198  0.2118 -0.4448
24448SOL    HW175976   7.424   5.930   8.352  2.5854 -0.1747 -0.0544
24448SOL    HW275977   7.414   6.058   8.432 -0.5376  0.1715 -0.8852
24449SOL     OW75978   0.510   2.783   5.934 -0.1204  0.1510  0.1871
24449SOL    HW175979   0.575   2.829   5.881 -1.0781  0.2374 -0.9836
24449SOL    HW275980   0.428   2.830   5.916 -0.6803 -0.5468  0.8541
24450SOL     OW75981   2.172   8.640   1.878  0.3148 -0.5780 -0.9645
24450SOL    HW175982   2.116   8.652   1.801 -1.9106  3.1213  0.9025
24450SOL    HW275983   2.114   8.658   1.952  3.0072 -1.0736  1.4309
24451SOL     OW75984   3.172   4.744   4.267 -0.4373  0.4159 -0.1931
24451SOL    HW175985   3.259   4.768   4.299 -0.0334 -1.0494 -0.1350
24451SOL    HW275986   3.112   4.799   4.317  0.4556  1.5945 -0.3837
24452SOL     OW75987   1.387   9.539   6.994 -0.2239  0.5214  0.5727
24452SOL    HW175988   1.333   9.575   7.064 -0.5120 -1.7622  1.5923
24452SOL    HW275989   1.348   9.573   6.914 -1.9372  0.5470  1.3800
24453SOL     OW75990   6.712   0.107   6.702 -0.0560 -0.5436 -0.0797
24453SOL    HW175991   6.631   0.124   6.654 -0.3918 -1.5551  0.0978
24453SOL    HW275992   6.708   0.014   6.723  0.9818 -0.5216  0.2626
24454SOL     OW75993   6.978  10.168   2.709  0.3586  0.0833 -0.3667
24454SOL    HW175994   7.058  10.220   2.708 -0.6321  1.6495 -0.6240
24454SOL    HW275995   6.913  10.223   2.752 -0.4268 -1.4438  0.5088
24455SOL     OW75996   8.706   0.894   1.549 -0.6721 -0.2304  0.4559
24455SOL    HW175997   8.626   0.852   1.579 -0.6697 -1.5072 -1.1956
24455SOL    HW275998   8.772   0.867   1.613 -0.9420 -1.7668  0.1385
24456SOL     OW75999   0.487   7.530   2.851 -0.5311  0.4842  0.0020
24456SOL    HW176000   0.476   7.474   2.928 -0.0494 -0.2610 -0.4613
24456SOL    HW276001   0.582   7.538   2.841 -0.5976  1.0628 -0.1720
24457SOL     OW76002   9.647   2.714   0.347 -0.2809 -0.9787 -0.4261
24457SOL    HW176003   9.668   2.635   0.296  0.5597 -0.5708 -0.7177
24457SOL    HW276004   9.717   2.776   0.326 -1.5593  0.2827 -1.1129
24458SOL     OW76005   0.900   5.443   6.044 -0.1645 -0.1185 -0.0192
24458SOL    HW176006   0.836   5.457   6.113 -1.2632 -0.5948 -0.9049
24458SOL    HW276007   0.937   5.530   6.027  1.1065 -0.2051  2.0517
24459SOL     OW76008   7.696   2.276   0.087  0.0065  0.0070  0.0745
24459SOL    HW176009   7.605   2.305   0.091  0.5108  1.6833  0.0782
24459SOL    HW276010   7.717   2.277  -0.006 -0.1888 -1.1499  0.0017
24460SOL     OW76011   2.715   0.196   5.756  0.4493 -0.6187 -0.0674
24460SOL    HW176012   2.639   0.237   5.714  0.7789  0.2581  0.1665
24460SOL    HW276013   2.762   0.269   5.797  0.9547 -1.2638  0.5252
24461SOL     OW76014   9.593   4.027   6.544  0.1147  0.0050 -0.1437
24461SOL    HW176015   9.537   3.957   6.578  0.4684  0.1639  0.7979
24461SOL    HW276016   9.637   3.988   6.468 -0.3614 -0.4996 -0.1658
24462SOL     OW76017   9.814   0.094   2.404  0.2025 -0.1997 -0.7630
24462SOL    HW176018   9.786   0.096   2.313  1.1403  2.2238 -1.0826
24462SOL    HW276019   9.878   0.165   2.411  0.5476 -0.6534  1.6681
24463SOL     OW76020   5.758   6.643   9.441  0.6976 -0.3748 -0.2740
24463SOL    HW176021   5.715   6.559   9.452  0.6096 -0.1581  1.2515
24463SOL    HW276022   5.830   6.642   9.505  2.0141 -0.1182 -1.6951
24464SOL     OW76023   6.600   6.493   5.354 -0.2135  0.0619  0.2884
24464SOL    HW176024   6.661   6.433   5.397 -0.3721 -0.0347  0.3799
24464SOL    HW276025   6.656   6.555   5.308 -0.0378  0.2742  0.7799
24465SOL     OW76026   1.642   5.974   2.229 -0.5649 -0.4018  0.0829
24465SOL    HW176027   1.698   6.040   2.269 -2.1667  1.2689 -0.2808
24465SOL    HW276028   1.641   5.901   2.292 -0.9298  1.0577  1.8544
24466SOL     OW76029   1.661   6.333   9.172  0.1791 -0.4307  0.5125
24466SOL    HW176030   1.643   6.311   9.264 -0.6320 -0.6451  0.3102
24466SOL    HW276031   1.713   6.413   9.177 -1.1222  0.4232  1.1408
24467SOL     OW76032   7.812   9.512   7.725  0.1350  0.4245 -0.0682
24467SOL    HW176033   7.819   9.506   7.821  1.3190  0.2187 -0.1491
24467SOL    HW276034   7.725   9.549   7.710 -0.1946  0.1665  1.0759
24468SOL     OW76035   9.629   0.426   0.888  0.0912  0.0782  0.1783
24468SOL    HW176036   9.692   0.444   0.958 -1.2659  0.5675  1.3268
24468SOL    HW276037   9.582   0.509   0.877  0.4578  0.0946 -1.5400
24469SOL     OW76038   7.671   7.805   3.684 -0.0892  0.1622 -0.0272
24469SOL    HW176039   7.637   7.724   3.647  0.1965 -0.0810  0.2295
24469SOL    HW276040   7.671   7.790   3.779 -0.1548  0.5086  0.0277
24470SOL     OW76041   0.854   3.477   8.812  0.5998 -0.3834  0.0209
24470SOL    HW176042   0.864   3.570   8.792  1.5168 -0.5327 -0.2925
24470SOL    HW276043   0.944   3.443   8.813  0.4129 -0.9018  2.0051
24471SOL     OW76044   8.614   0.470   1.499 -0.2373  0.5219  0.3723
24471SOL    HW176045   8.614   0.388   1.449 -1.9325  0.1485  0.9231
24471SOL    HW276046   8.687   0.520   1.462  2.5638 -2.1991  1.6908
24472SOL     OW76047   6.819   0.618   9.586  0.1139  0.1234  0.3224
24472SOL    HW176048   6.745   0.557   9.585  0.8503 -0.7961  0.5866
24472SOL    HW276049   6.877   0.587   9.517  0.2835  0.8200  0.1410
24473SOL     OW76050   8.286   4.340   3.162 -0.3767  0.1054  0.5728
24473SOL    HW176051   8.249   4.351   3.249 -0.6363 -2.1589  0.8027
24473SOL    HW276052   8.225   4.386   3.104 -1.9812 -1.0783  1.2584
24474SOL     OW76053   0.667   8.741   4.366  0.3615  0.0442 -0.2519
24474SOL    HW176054   0.706   8.712   4.284  1.2233 -1.4107  0.6222
24474SOL    HW276055   0.604   8.673   4.389 -1.4674  1.5072 -0.7516
24475SOL     OW76056   0.372   9.539   5.470  0.1260 -0.1631  0.3962
24475SOL    HW176057   0.427   9.499   5.403  0.9320  2.4081 -0.5922
24475SOL    HW276058   0.285   9.546   5.430  0.3612  0.4372 -0.0255
24476SOL     OW76059   3.400   1.258   4.100  0.0203 -0.3271 -0.0592
24476SOL    HW176060   3.343   1.332   4.121  1.2606  0.7471 -0.3431
24476SOL    HW276061   3.444   1.284   4.019  0.1977 -1.5516 -0.3753
24477SOL     OW76062   3.530   7.168   9.017  0.2810  0.4031  0.2875
24477SOL    HW176063   3.619   7.139   8.999 -0.0399  0.4279 -1.4306
24477SOL    HW276064   3.481   7.148   8.938 -0.4113  3.8607 -0.3156
24478SOL     OW76065   2.152   2.246   2.916  0.5131  0.1665 -0.3334
24478SOL    HW176066   2.137   2.185   2.988  0.6920 -0.5482 -0.8845
24478SOL    HW276067   2.100   2.323   2.938  2.2176  0.8482  1.6125
24479SOL     OW76068   1.209   6.735   6.255  0.2832 -0.2383  0.0070
24479SOL    HW176069   1.168   6.755   6.171  0.5231 -0.6629 -0.2120
24479SOL    HW276070   1.152   6.670   6.295  1.0569 -1.3078 -0.5755
24480SOL     OW76071   3.366   6.158   5.930  0.5230 -0.5280 -0.1997
24480SOL    HW176072   3.366   6.232   5.870  0.1542 -0.4153 -0.0638
24480SOL    HW276073   3.359   6.081   5.874  3.1288 -0.6238 -0.5097
24481SOL     OW76074   6.317   5.702   7.805  0.2867 -0.5277  0.0370
24481SOL    HW176075   6.224   5.712   7.826  0.1923 -0.9770 -0.1736
24481SOL    HW276076   6.336   5.610   7.824  0.9812 -0.1613  1.2571
24482SOL     OW76077   2.278   7.279   2.220 -0.3824 -0.0487 -0.4634
24482SOL    HW176078   2.255   7.295   2.128 -0.1713 -1.1834 -0.7267
24482SOL    HW276079   2.363   7.237   2.217 -1.2298 -1.8920  0.1180
24483SOL     OW76080  10.275   6.093   0.746 -0.0606  0.4123  0.4807
24483SOL    HW176081  10.309   6.040   0.818 -0.0380  0.3246  0.4059
24483SOL    HW276082  10.328   6.172   0.747  0.8855 -0.1917 -0.3301
24484SOL     OW76083   3.718  10.331   4.591  0.0391  0.0626  0.2125
24484SOL    HW176084   3.640  10.300   4.636  0.0900 -0.5886 -0.1345
24484SOL    HW276085   3.688  10.409   4.543 -0.0079  0.7732  1.3482
24485SOL     OW76086   1.452   5.991   8.140  0.2384 -0.4102 -0.3396
24485SOL    HW176087   1.471   5.998   8.047 -2.1902 -2.7676 -1.1239
24485SOL    HW276088   1.490   5.907   8.166  0.3748 -0.0492  0.6758
24486SOL     OW76089   7.832   7.464   4.848  0.2507 -0.4828 -0.3338
24486SOL    HW176090   7.883   7.535   4.886  0.0985 -0.9020  0.6908
24486SOL    HW276091   7.844   7.391   4.909 -0.4008 -1.0197 -0.8404
24487SOL     OW76092   9.682   5.803   7.884 -0.6404  0.0701 -0.5222
24487SOL    HW176093   9.761   5.825   7.934 -0.9400  1.2287 -0.5183
24487SOL    HW276094   9.696   5.845   7.799  0.3825 -2.8438 -1.9109
24488SOL     OW76095   5.959   6.815   4.283 -0.0263  0.0730 -0.2418
24488SOL    HW176096   6.032   6.840   4.340  1.0543 -0.7956 -1.1827
24488SOL    HW276097   6.000   6.802   4.197 -1.4576  0.4661 -1.0188
24489SOL     OW76098   0.179   8.067   6.654  0.2191  0.7609  0.2481
24489SOL    HW176099   0.128   7.996   6.614  1.0240  0.4572 -0.2566
24489SOL    HW276100   0.223   8.110   6.581  0.7777  0.9465  0.6832
24490SOL     OW76101   0.658   5.796   5.223 -0.2300  0.3455 -0.0840
24490SOL    HW176102   0.713   5.838   5.158 -1.3497 -0.7665 -1.8233
24490SOL    HW276103   0.708   5.720   5.252 -0.7118 -0.5448 -1.5063
24491SOL     OW76104   1.607   4.356   7.898 -0.4375 -0.7661 -0.5339
24491SOL    HW176105   1.554   4.424   7.856 -1.3848 -0.1520  1.5200
24491SOL    HW276106   1.696   4.371   7.865 -0.4115  2.1573  0.5163
24492SOL     OW76107   0.264   7.972   8.274 -0.5000 -0.2489 -0.0052
24492SOL    HW176108   0.359   7.964   8.281 -0.5348 -0.5316  0.1647
24492SOL    HW276109   0.250   8.040   8.208 -0.1741  0.1213  0.2964
24493SOL     OW76110   6.688   8.708   4.045 -0.2950 -0.0754  0.2010
24493SOL    HW176111   6.709   8.672   3.959 -0.0714  1.0644 -0.2328
24493SOL    HW276112   6.595   8.729   4.040 -0.2532  0.1062  0.1987
24494SOL     OW76113   4.430   2.491   7.936  0.4531 -0.1297  0.0798
24494SOL    HW176114   4.470   2.517   8.019 -0.4311  0.9975  0.1758
24494SOL    HW276115   4.340   2.523   7.941 -0.1876 -1.7298 -0.5410
24495SOL     OW76116   3.969   4.693   6.876 -0.0350 -0.5440 -0.1890
24495SOL    HW176117   3.882   4.733   6.868 -0.2461 -1.0491 -0.4088
24495SOL    HW276118   3.965   4.615   6.822  0.4936 -0.6791 -0.0363
24496SOL     OW76119   5.984   2.492   4.815  0.2490 -0.3749  0.4842
24496SOL    HW176120   6.017   2.573   4.776  0.2041  0.0338  1.2633
24496SOL    HW276121   5.917   2.461   4.754  1.7082 -0.9575 -0.8775
24497SOL     OW76122   8.238   3.970   4.756 -0.3839  0.0574 -0.1713
24497SOL    HW176123   8.216   4.061   4.774  2.3520  0.5862  1.0089
24497SOL    HW276124   8.241   3.964   4.660 -3.0911  0.4555 -0.3560
24498SOL     OW76125   5.193   2.106   2.563  0.0350  0.0422 -0.4384
24498SOL    HW176126   5.156   2.019   2.573 -0.0885  0.0877 -0.5025
24498SOL    HW276127   5.168   2.152   2.644  0.1283  0.0085 -0.3902
24499SOL     OW76128   5.272   7.600   8.272  0.1384  0.2513 -0.0637
24499SOL    HW176129   5.289   7.685   8.313 -1.4514  0.9416 -0.7334
24499SOL    HW276130   5.253   7.621   8.181 -0.7058 -0.7679 -0.1367
24500SOL     OW76131   8.496   5.649   1.228 -0.6814  0.1935 -0.4856
24500SOL    HW176132   8.436   5.668   1.299 -1.7942  0.6597 -1.5194
24500SOL    HW276133   8.440   5.633   1.152  0.4784  0.4152 -1.4287
24501SOL     OW76134   1.216   8.365   8.088  0.0017 -0.2195 -0.2674
24501SOL    HW176135   1.304   8.328   8.078  0.1704  0.3083 -0.7766
24501SOL    HW276136   1.188   8.335   8.174  0.3218 -1.1331 -0.4637
24502SOL     OW76137   0.889   4.996   4.629  0.3079 -0.6961 -0.3570
24502SOL    HW176138   0.972   4.950   4.615  0.6670 -0.1970  0.0984
24502SOL    HW276139   0.892   5.024   4.720  0.1483  0.3485 -0.6646
24503SOL     OW76140   1.720   0.265   3.480  1.1679  0.2933  0.3561
24503SOL    HW176141   1.714   0.250   3.574 -0.7340  1.2862  0.4462
24503SOL    HW276142   1.676   0.189   3.441  0.7264  0.5435  0.3535
24504SOL     OW76143   8.404   6.917   8.828 -0.3093 -0.1195 -0.2887
24504SOL    HW176144   8.395   6.836   8.878  0.2151 -0.0996 -0.1615
24504SOL    HW276145   8.493   6.915   8.795 -0.5047  0.0927 -0.8375
24505SOL     OW76146   2.131   0.780   2.340 -0.1101  0.1861  0.0842
24505SOL    HW176147   2.207   0.729   2.313 -0.0858 -0.3287  1.0897
24505SOL    HW276148   2.057   0.737   2.297 -0.0614 -0.5643  0.7339
24506SOL     OW76149   4.931   6.187  10.033  0.7572 -0.0968 -0.2520
24506SOL    HW176150   4.942   6.093  10.017 -0.0100 -0.3687  0.7178
24506SOL    HW276151   4.861   6.192  10.098 -0.5531  1.2494 -1.6903
24507SOL     OW76152   0.396   7.950   1.404  0.0993  0.2825 -0.4142
24507SOL    HW176153   0.467   7.891   1.379  0.2576 -0.4404  1.5661
24507SOL    HW276154   0.336   7.948   1.329  1.1738 -0.6652 -1.2944
24508SOL     OW76155   4.148   7.334   9.719  0.8466 -0.0231  0.1051
24508SOL    HW176156   4.143   7.386   9.639 -0.1712  1.6181  1.1998
24508SOL    HW276157   4.077   7.271   9.712  0.9529 -0.0902 -0.4032
24509SOL     OW76158   9.446   5.942   7.476 -0.3704 -0.2716 -0.1536
24509SOL    HW176159   9.485   5.876   7.419  0.4008  0.5863 -0.6481
24509SOL    HW276160   9.352   5.925   7.471 -0.1528 -1.7302  0.2583
24510SOL     OW76161   7.551   6.467   0.845  0.6223  0.3515 -0.7990
24510SOL    HW176162   7.560   6.556   0.879  0.1276  0.1576 -0.1483
24510SOL    HW276163   7.629   6.421   0.875  1.6296  0.9335 -2.3739
24511SOL     OW76164   1.181  10.157   6.941 -0.1319 -0.3064 -0.0207
24511SOL    HW176165   1.246  10.198   6.884  0.9377 -2.3833 -0.3586
24511SOL    HW276166   1.231  10.096   6.995 -1.7956 -1.9683 -0.2797
24512SOL     OW76167   0.953   3.928  10.197  0.0221 -0.4170  0.5612
24512SOL    HW176168   1.048   3.934  10.188 -0.0014 -0.5010  0.2492
24512SOL    HW276169   0.925   3.879  10.121 -0.2775 -0.3619  0.6349
24513SOL     OW76170   0.518   1.929   6.930 -0.2930  0.4069  0.6615
24513SOL    HW176171   0.458   1.855   6.942  0.0933 -0.1384 -0.6620
24513SOL    HW276172   0.471   1.989   6.872  0.3413  0.0712 -0.2169
24514SOL     OW76173   6.408   9.889   3.186  0.4015  0.3327 -0.5601
24514SOL    HW176174   6.356   9.871   3.108 -2.0610  2.4050  0.4781
24514SOL    HW276175   6.448   9.975   3.169 -0.7361  1.1423  0.6783
24515SOL     OW76176  10.218   0.164   9.329  0.4204 -0.0100  0.1958
24515SOL    HW176177  10.157   0.237   9.337  0.9745  0.3776  1.0325
24515SOL    HW276178  10.267   0.164   9.411  0.0890 -1.6489  0.4384
24516SOL     OW76179   9.766   5.020   6.853  0.8201  0.3960 -0.2593
24516SOL    HW176180   9.739   5.062   6.935 -0.2561  0.1125 -0.4528
24516SOL    HW276181   9.803   5.091   6.801  1.0963  0.6640  0.2959
24517SOL     OW76182   5.038   9.859   0.989 -0.0486 -0.4169 -0.6150
24517SOL    HW176183   5.057   9.877   0.896 -0.2173 -0.4678 -0.6594
24517SOL    HW276184   5.116   9.816   1.022  0.3801  0.4252 -0.5033
24518SOL     OW76185   7.714   0.878   7.694  0.7556  0.0986  0.0199
24518SOL    HW176186   7.669   0.874   7.609  0.1769  1.5080  0.2228
24518SOL    HW276187   7.806   0.887   7.671  0.6151  0.3733 -0.4626
24519SOL     OW76188   9.899   4.133   8.038 -0.6680 -0.2517  0.8564
24519SOL    HW176189   9.865   4.216   8.071 -3.5487 -1.5762  1.5391
24519SOL    HW276190   9.945   4.156   7.957  0.5089  2.2180  2.1180
24520SOL     OW76191   9.271   1.326   3.354  0.2657  0.5922 -0.4623
24520SOL    HW176192   9.258   1.365   3.441 -0.4559 -1.5695  0.4634
24520SOL    HW276193   9.365   1.335   3.338  0.2908  1.7004  0.1916
24521SOL     OW76194   2.794   9.173   9.371 -0.4946  0.0773  0.7497
24521SOL    HW176195   2.739   9.229   9.427 -0.4385  2.7281 -1.5725
24521SOL    HW276196   2.880   9.176   9.411 -0.2810  2.5160  0.2941
24522SOL     OW76197   1.122   1.654   8.955 -0.0406 -0.1253  0.1696
24522SOL    HW176198   1.094   1.741   8.983  1.5430  0.3558  0.4110
24522SOL    HW276199   1.122   1.602   9.035  2.1595  0.5916  0.7075
24523SOL     OW76200   7.754   2.799   1.852 -0.0137 -0.2522  0.2307
24523SOL    HW176201   7.762   2.739   1.777  0.3723  0.3594 -0.2221
24523SOL    HW276202   7.757   2.741   1.928  2.1258 -0.6964 -0.1301
24524SOL     OW76203   0.744   0.721  10.164  0.1900 -0.3308 -0.1970
24524SOL    HW176204   0.669   0.665  10.143  0.0960 -0.2895  0.0305
24524SOL    HW276205   0.707   0.809  10.171  0.3400 -0.2386 -0.5640
24525SOL     OW76206   7.940   9.818   8.150  0.1909 -0.1231  0.4283
24525SOL    HW176207   8.027   9.780   8.153  1.0753  1.7136 -0.3711
24525SOL    HW276208   7.911   9.804   8.059 -0.5059 -1.0401  0.7837
24526SOL     OW76209   6.205   8.971   4.251  0.2031 -0.2139 -0.1019
24526SOL    HW176210   6.202   9.000   4.342 -0.4516 -1.3570  0.2726
24526SOL    HW276211   6.262   8.894   4.253  1.1435  0.4496 -0.8856
24527SOL     OW76212   7.038   9.538   1.092 -0.4117  0.1365 -0.0109
24527SOL    HW176213   6.970   9.542   1.025  1.8518  1.5219 -2.4334
24527SOL    HW276214   7.024   9.615   1.146 -1.5834 -0.3815  0.4641
24528SOL     OW76215   8.194   6.808  10.285 -0.1077  0.3223 -0.4515
24528SOL    HW176216   8.252   6.785  10.358  0.0966 -0.2723 -0.7921
24528SOL    HW276217   8.236   6.884  10.245  1.0495 -0.7432 -1.3500
24529SOL     OW76218   2.131   0.728   5.573  0.7065  0.5300  0.0818
24529SOL    HW176219   2.068   0.658   5.591 -0.1231  1.4721  0.9940
24529SOL    HW276220   2.188   0.692   5.506  0.8479 -1.3435  1.1444
24530SOL     OW76221   5.356   5.868   0.848  0.0578  0.3242  0.8947
24530SOL    HW176222   5.420   5.849   0.781 -0.6950 -0.8099  0.4670
24530SOL    HW276223   5.315   5.950   0.820 -0.0466  0.0153  0.1250
24531SOL     OW76224   7.753   4.837   0.712 -0.1719  0.6975  0.3673
24531SOL    HW176225   7.810   4.799   0.645 -0.2636  1.4570 -0.1520
24531SOL    HW276226   7.813   4.875   0.776 -0.0472 -1.1284  1.4209
24532SOL     OW76227   0.453   8.297   9.036  0.5252  0.8168  0.3322
24532SOL    HW176228   0.449   8.250   9.119  0.8067  0.5920  0.2205
24532SOL    HW276229   0.405   8.378   9.052 -1.0214 -0.0368  0.1691
24533SOL     OW76230   8.150   3.246   6.827  0.0314 -0.0042 -0.5338
24533SOL    HW176231   8.078   3.300   6.858  0.4057  1.6479 -2.3161
24533SOL    HW276232   8.109   3.163   6.801 -0.5516 -0.6700  2.2312
24534SOL     OW76233   7.194   0.504   9.814  0.1965  0.1145 -0.2016
24534SOL    HW176234   7.118   0.511   9.756  1.1657  0.0557 -1.5238
24534SOL    HW276235   7.245   0.433   9.777  0.7205 -0.0991  0.9025
24535SOL     OW76236   5.825   6.188   9.599  0.0463 -0.3287  0.1404
24535SOL    HW176237   5.882   6.112   9.603 -0.2194 -0.4997  1.1313
24535SOL    HW276238   5.817   6.216   9.690 -2.0305 -0.7686  0.1482
24536SOL     OW76239   0.908   1.213   0.501 -0.9087  0.1241 -0.2333
24536SOL    HW176240   1.000   1.188   0.513 -0.8252  0.5820  0.1326
24536SOL    HW276241   0.878   1.162   0.426 -0.4202 -0.2035 -0.2082
24537SOL     OW76242   3.187   1.535   4.463  0.6786 -0.0654 -0.3129
24537SOL    HW176243   3.247   1.495   4.527  0.1575 -0.7753 -0.2609
24537SOL    HW276244   3.101   1.499   4.484  0.3852  0.2214 -0.9840
24538SOL     OW76245   5.949   4.850   3.844 -0.1358 -0.1295  0.1471
24538SOL    HW176246   6.015   4.789   3.876  0.9842  0.5491 -0.8052
24538SOL    HW276247   5.998   4.917   3.797 -1.2825  1.8162  1.5709
24539SOL     OW76248   4.777   8.338  10.357  0.2171  0.0297  0.2365
24539SOL    HW176249   4.752   8.364  10.446 -0.1038  0.6255 -0.0280
24539SOL    HW276250   4.872   8.325  10.362  0.5793  2.2304  0.1488
24540SOL     OW76251   6.473   2.268   5.472  0.6463  0.2394  0.6591
24540SOL    HW176252   6.549   2.324   5.484  1.3516 -0.3046 -1.0549
24540SOL    HW276253   6.416   2.317   5.412  0.9602 -0.5439 -0.3120
24541SOL     OW76254   4.498   0.893   6.601  0.0256  0.3754  0.3839
24541SOL    HW176255   4.526   0.852   6.519  0.5104 -1.1503  1.2716
24541SOL    HW276256   4.535   0.982   6.598  1.1072 -0.0846 -0.4947
24542SOL     OW76257   1.847   7.415   3.285  0.1925 -0.0993  0.2733
24542SOL    HW176258   1.827   7.361   3.362 -2.9768  0.2157 -0.1793
24542SOL    HW276259   1.823   7.361   3.210 -0.0677  0.8049 -0.3150
24543SOL     OW76260   9.930   0.083   1.993  0.1802 -0.1304  0.0149
24543SOL    HW176261   9.888   0.167   1.971  1.6847  0.1862 -1.7901
24543SOL    HW276262  10.013   0.108   2.034  0.3141 -0.7661  0.1387
24544SOL     OW76263   6.649   3.991   5.112  0.2221  0.4173 -0.2652
24544SOL    HW176264   6.692   4.050   5.050  0.6933  0.7323  0.3476
24544SOL    HW276265   6.692   4.010   5.195  1.1661 -1.5637 -0.2548
24545SOL     OW76266   9.558   7.853  10.124 -0.4487 -0.7633 -0.3315
24545SOL    HW176267   9.616   7.903  10.182 -0.8608  0.7362 -1.1587
24545SOL    HW276268   9.471   7.865  10.161 -0.6485 -0.2080 -0.9674
24546SOL     OW76269   6.875   0.106  10.299 -0.0962  0.0546  0.0852
24546SOL    HW176270   6.925   0.187  10.295  0.2256 -0.2117 -1.7711
24546SOL    HW276271   6.906   0.054  10.225 -0.0835 -1.9160  1.3922
24547SOL     OW76272   2.961   3.445   3.329 -0.0869  0.0228 -0.1686
24547SOL    HW176273   3.048   3.446   3.287  0.1452  1.6489  0.2740
24547SOL    HW276274   2.967   3.375   3.394  1.0054  0.3160  0.0713
24548SOL     OW76275   4.900   2.703   1.251 -0.0863  0.4704  0.2477
24548SOL    HW176276   4.887   2.798   1.256  0.8231  0.6460 -0.5269
24548SOL    HW276277   4.994   2.691   1.266  0.2898 -0.0685 -2.2381
24549SOL     OW76278   4.735   3.988   9.480  0.3591 -0.7946 -0.9107
24549SOL    HW176279   4.711   3.933   9.555  0.6628  0.9540  0.5396
24549SOL    HW276280   4.676   3.961   9.410 -1.7032 -0.7242  0.7265
24550SOL     OW76281   3.142   7.543   4.796  0.2621  0.3232  0.1388
24550SOL    HW176282   3.055   7.504   4.796  0.3708  0.0301 -1.4031
24550SOL    HW276283   3.152   7.580   4.708  2.2818 -1.0466 -0.2758
24551SOL     OW76284   9.054   3.808   0.218 -0.1810 -0.0783 -0.1941
24551SOL    HW176285   9.094   3.755   0.287 -0.3616  0.8004  0.6051
24551SOL    HW276286   9.128   3.836   0.163  0.3304  1.4195  1.1926
24552SOL     OW76287   1.052   5.969   0.140  0.4603 -0.3637  0.0043
24552SOL    HW176288   0.958   5.951   0.143  0.2660  0.0169 -2.4127
24552SOL    HW276289   1.093   5.882   0.141  0.2597 -0.5356  2.7850
24553SOL     OW76290   7.260   5.875   4.391  0.4164  0.7788 -0.0224
24553SOL    HW176291   7.321   5.906   4.457  0.2444  0.5299  0.2530
24553SOL    HW276292   7.185   5.934   4.397 -0.9056 -0.9677  2.0384
24554SOL     OW76293   7.716   4.558   3.189 -0.0293 -0.2707  0.1301
24554SOL    HW176294   7.636   4.529   3.232 -0.4222  1.4883  0.6645
24554SOL    HW276295   7.743   4.637   3.237  0.4018  0.8436 -1.8042
24555SOL     OW76296   1.666   9.677   9.564  0.5118 -0.0152 -0.4142
24555SOL    HW176297   1.574   9.682   9.539 -0.0674  0.3763  1.5840
24555SOL    HW276298   1.685   9.763   9.600  1.5766 -0.1970 -0.5206
24556SOL     OW76299   7.832   0.214   1.278  0.3203  0.7549  0.0360
24556SOL    HW176300   7.804   0.140   1.224  1.6417 -0.7522  1.2878
24556SOL    HW276301   7.861   0.280   1.216  3.5784 -1.6100 -1.2389
24557SOL     OW76302   4.166   2.814   9.359 -0.3749 -0.3514  0.4944
24557SOL    HW176303   4.198   2.725   9.375  0.3958  0.0890  1.5276
24557SOL    HW276304   4.230   2.870   9.402  0.5306  0.8830 -2.2620
24558SOL     OW76305   1.025   0.811   3.956  0.1895 -0.5313  0.5210
24558SOL    HW176306   0.967   0.800   3.880  1.2050 -1.4032 -0.1660
24558SOL    HW276307   1.038   0.906   3.963 -0.8183 -0.3717  0.3117
24559SOL     OW76308   4.192  10.140   7.229  0.1788 -0.4827  0.2800
24559SOL    HW176309   4.124  10.194   7.190  1.1612  0.6028  0.0050
24559SOL    HW276310   4.145  10.080   7.287 -1.0458 -0.1762 -0.3663
24560SOL     OW76311   6.059   1.949   9.025 -0.2550  0.2336  0.1561
24560SOL    HW176312   6.004   2.023   8.998 -2.1273 -0.0511  2.8508
24560SOL    HW276313   6.019   1.873   8.984 -0.9022  0.2323  0.7741
24561SOL     OW76314   1.173   6.033   9.179  0.4460  0.4377  0.3928
24561SOL    HW176315   1.178   6.036   9.084  1.4926 -0.5481  0.3925
24561SOL    HW276316   1.238   5.967   9.204 -0.0289  0.4658  1.7690
24562SOL     OW76317   0.772   7.768   3.360 -0.0609 -0.4156  0.0968
24562SOL    HW176318   0.853   7.748   3.408  0.1038  1.6449  0.7878
24562SOL    HW276319   0.782   7.860   3.336 -1.3090 -0.7026 -1.6470
24563SOL     OW76320   8.054   2.877   8.976  0.7426 -0.4656  0.6326
24563SOL    HW176321   7.964   2.901   8.954  1.2556  0.2425 -0.8398
24563SOL    HW276322   8.103   2.892   8.895  2.7731  2.2023  2.1953
24564SOL     OW76323   1.710   7.794   5.363  0.3374 -0.2554 -0.1661
24564SOL    HW176324   1.653   7.737   5.312  0.9652 -0.3329 -0.8023
24564SOL    HW276325   1.759   7.735   5.420 -1.4190 -0.0504  1.6464
24565SOL     OW76326   4.223   2.717   7.978  0.2921  0.0069  0.8764
24565SOL    HW176327   4.275   2.773   7.920 -1.6378  1.0975  0.1045
24565SOL    HW276328   4.199   2.773   8.051 -1.5567  0.2144  0.1622
24566SOL     OW76329   1.575   3.168   5.306  0.4544  0.8820 -0.8579
24566SOL    HW176330   1.501   3.183   5.247 -0.4035  1.8683  0.4225
24566SOL    HW276331   1.536   3.159   5.392  1.3276 -3.7402 -0.6830
24567SOL     OW76332   9.053   1.668   6.923  0.3170  0.7835 -0.2396
24567SOL    HW176333   9.007   1.749   6.944  0.5326  0.8358  0.0303
24567SOL    HW276334   9.034   1.610   6.997  0.4506  0.7056 -0.2672
24568SOL     OW76335   9.345   9.471   0.489  0.1047 -0.6229 -0.1864
24568SOL    HW176336   9.280   9.470   0.419  1.1333  1.5225 -1.2944
24568SOL    HW276337   9.368   9.564   0.499 -3.0692 -0.0010  6.0262
24569SOL     OW76338   1.984   8.115   0.142 -0.0081  0.2006  0.1975
24569SOL    HW176339   2.065   8.119   0.091  0.0525  3.0195  0.3544
24569SOL    HW276340   1.934   8.191   0.113 -3.4223 -2.2861 -1.0818
24570SOL     OW76341   4.585   9.816   8.307 -0.2940 -0.1363  0.0127
24570SOL    HW176342   4.600   9.846   8.218  1.0688 -1.9580 -0.4247
24570SOL    HW276343   4.647   9.867   8.360  0.9194 -1.0093 -0.5089
24571SOL     OW76344   9.390   6.875   1.245  0.5518 -0.6165  0.1678
24571SOL    HW176345   9.474   6.908   1.213 -0.0795  0.8399 -0.0195
24571SOL    HW276346   9.326   6.902   1.179 -0.6190  1.5154  2.0632
24572SOL     OW76347   9.317   3.220   0.310  0.2984 -0.9361 -0.1551
24572SOL    HW176348   9.252   3.287   0.330  1.7732  0.1413  1.3295
24572SOL    HW276349   9.376   3.262   0.248  0.6297 -1.2319 -0.0463
24573SOL     OW76350   0.322   1.114   8.697  0.4063  0.4504 -0.1875
24573SOL    HW176351   0.404   1.067   8.684  0.7559  0.6888  0.9954
24573SOL    HW276352   0.282   1.071   8.773  1.1557  2.5289  1.5001
24574SOL     OW76353   6.797   7.900   4.509 -0.1374 -0.1301  0.6471
24574SOL    HW176354   6.766   7.812   4.487 -1.1254  0.3290  0.1472
24574SOL    HW276355   6.779   7.909   4.602 -0.5348 -0.2623  0.5854
24575SOL     OW76356  10.022   4.494   9.644 -0.1463 -0.0976  0.4389
24575SOL    HW176357  10.027   4.467   9.736  0.0046 -0.6324  0.2753
24575SOL    HW276358   9.938   4.460   9.614  0.6265 -1.5812 -0.1375
24576SOL     OW76359   1.586   5.519   2.896 -0.2873 -0.0867 -0.1565
24576SOL    HW176360   1.632   5.505   2.814 -0.1989  0.0183 -0.1246
24576SOL    HW276361   1.560   5.611   2.894  1.5100  0.4998  0.8417
24577SOL     OW76362   9.691   3.217   3.613  0.1204 -0.7774 -1.0652
24577SOL    HW176363   9.765   3.232   3.672  0.3842  0.6906 -1.7401
24577SOL    HW276364   9.642   3.147   3.655  1.3190 -1.0611 -0.0668
24578SOL     OW76365   9.844   6.900   2.103  0.2027 -0.2914  0.1217
24578SOL    HW176366   9.782   6.944   2.161  1.8189  0.8387  1.0769
24578SOL    HW276367   9.908   6.967   2.081  0.6552 -1.2042 -1.4971
24579SOL     OW76368   7.458   4.998   2.324  0.0832 -0.3018 -0.0358
24579SOL    HW176369   7.391   5.035   2.266 -0.5944 -2.3469 -0.6431
24579SOL    HW276370   7.426   5.017   2.412  0.1019  1.0862 -0.3128
24580SOL     OW76371   6.033   5.325   4.265  0.7585 -0.3072 -0.5401
24580SOL    HW176372   5.979   5.383   4.319  2.2819  0.3636  0.3125
24580SOL    HW276373   6.118   5.369   4.260  2.1364 -2.6539  0.5033
24581SOL     OW76374   0.695  10.152   6.945  1.1830 -0.0222  0.1693
24581SOL    HW176375   0.784  10.132   6.974  1.3347  0.5736  0.1241
24581SOL    HW276376   0.644  10.157   7.025  1.1421 -0.5818  0.1814
24582SOL     OW76377   5.937   8.827  10.318 -0.1698  0.2385 -0.1648
24582SOL    HW176378   6.005   8.781  10.366 -0.6644 -0.0446  0.2858
24582SOL    HW276379   5.904   8.763  10.255 -2.6464 -0.9997  2.1887
24583SOL     OW76380   2.685   3.889   3.676 -0.2307 -0.4734  0.4390
24583SOL    HW176381   2.712   3.920   3.589  1.5617 -2.2065  0.3135
24583SOL    HW276382   2.758   3.914   3.734 -0.9639 -0.2011  1.2601
24584SOL     OW76383   3.437   5.011   1.590 -0.5262 -0.0944  0.4665
24584SOL    HW176384   3.398   5.098   1.579 -1.4402 -0.5536 -0.0187
24584SOL    HW276385   3.433   4.971   1.503 -0.4060 -0.7488  0.7541
24585SOL     OW76386   8.237   0.033   7.371 -0.3585  0.0681  0.2760
24585SOL    HW176387   8.265  -0.002   7.287 -0.7938  0.9470 -0.2595
24585SOL    HW276388   8.142   0.038   7.365 -0.4860 -0.9096  1.2605
24586SOL     OW76389   8.483   5.845   3.746 -0.7620 -0.2407 -0.1593
24586SOL    HW176390   8.534   5.862   3.826  0.2383 -1.7112 -0.4465
24586SOL    HW276391   8.405   5.898   3.756 -0.9500 -0.8483  2.1072
24587SOL     OW76392   4.343   1.152  10.203 -0.5438 -0.0824  0.1968
24587SOL    HW176393   4.428   1.130  10.242 -1.5161  0.4901  2.7730
24587SOL    HW276394   4.311   1.069  10.168  0.7922 -0.4219 -0.2875
24588SOL     OW76395   6.829   3.806   6.752 -0.1382 -0.1576 -0.0236
24588SOL    HW176396   6.913   3.847   6.730 -0.0553 -0.3565 -0.0809
24588SOL    HW276397   6.764   3.875   6.735 -0.4466 -1.1591 -4.0418
24589SOL     OW76398   5.853   7.200   0.890  0.5502  0.2694 -0.6402
24589SOL    HW176399   5.797   7.231   0.961  1.2430 -0.3907  0.2103
24589SOL    HW276400   5.856   7.273   0.828 -1.1897  0.3518 -0.6883
24590SOL     OW76401   0.742   8.146   2.363  0.5510 -0.2549  0.0242
24590SOL    HW176402   0.685   8.162   2.287 -1.4495  0.8054  1.6687
24590SOL    HW276403   0.831   8.144   2.326 -0.3763 -0.1983 -2.3818
24591SOL     OW76404   7.424   7.010   9.128 -0.2098  0.1632 -0.1240
24591SOL    HW176405   7.517   7.012   9.151 -0.1047  0.9629 -0.6258
24591SOL    HW276406   7.380   7.047   9.205 -0.1993 -0.9305  0.4420
24592SOL     OW76407   5.520   2.992   0.698 -0.2962  0.1442 -0.8417
24592SOL    HW176408   5.461   2.995   0.773 -0.8289 -0.4381 -1.2207
24592SOL    HW276409   5.597   2.945   0.730  0.4976  1.9468 -0.0065
24593SOL     OW76410   6.807  10.311   3.102 -0.4670 -0.0637  0.3900
24593SOL    HW176411   6.810  10.337   3.010  0.1587  0.9584  0.6811
24593SOL    HW276412   6.714  10.312   3.124 -1.0284 -3.7171 -1.1082
24594SOL     OW76413   2.055   5.800   7.601 -0.2675  0.1002  0.1557
24594SOL    HW176414   1.971   5.800   7.647 -2.2098 -2.2563 -2.9732
24594SOL    HW276415   2.112   5.745   7.655 -2.3830 -2.4612 -0.0373
24595SOL     OW76416   9.789   0.269  10.316 -0.3216 -0.7143  0.0765
24595SOL    HW176417   9.862   0.209  10.333 -2.0222 -2.6292  1.0538
24595SOL    HW276418   9.737   0.225  10.250 -0.7659  0.5071 -0.4118
24596SOL     OW76419   7.106   9.513   5.407 -0.0878 -0.1820  0.0091
24596SOL    HW176420   7.160   9.466   5.470  1.0781  0.6779 -0.3316
24596SOL    HW276421   7.023   9.528   5.452  0.1897 -0.9179  0.7782
24597SOL     OW76422   0.436   3.203   8.169 -0.2248  0.5691 -0.0617
24597SOL    HW176423   0.459   3.272   8.232  1.8929  0.5929 -0.8071
24597SOL    HW276424   0.377   3.145   8.218  0.5339  1.1583  1.6170
24598SOL     OW76425   2.340   0.553   7.022 -0.0780 -0.1927  0.2021
24598SOL    HW176426   2.301   0.597   6.947 -0.5045 -0.9003 -0.0077
24598SOL    HW276427   2.379   0.474   6.985  0.1463 -0.2946  0.6509
24599SOL     OW76428   9.777   6.813   8.286  0.3586  0.1573  0.1309
24599SOL    HW176429   9.708   6.751   8.266  0.4524  0.4653 -1.2106
24599SOL    HW276430   9.857   6.771   8.255  0.5740  0.4535  0.2829
24600SOL     OW76431   2.631   0.488   7.910 -0.5711  0.2882 -0.4324
24600SOL    HW176432   2.579   0.562   7.943 -0.3580 -0.2117  1.1429
24600SOL    HW276433   2.718   0.524   7.898 -0.4774  0.3336  0.2884
24601SOL     OW76434   8.623   2.905   8.164 -0.8527  0.0910 -0.4188
24601SOL    HW176435   8.533   2.887   8.138 -0.5606  0.1412 -1.5209
24601SOL    HW276436   8.630   3.001   8.163 -0.4936  0.0670 -1.4456
24602SOL     OW76437   9.855   9.286   4.635 -0.5283  0.4128 -0.5562
24602SOL    HW176438   9.905   9.208   4.612 -1.2179  0.0366 -0.7797
24602SOL    HW276439   9.920   9.344   4.675 -0.1836 -0.6301  0.4556
24603SOL     OW76440   2.930  10.305   8.202 -0.5629  0.4738 -0.3624
24603SOL    HW176441   2.882  10.331   8.124  0.3825  0.1491 -1.0708
24603SOL    HW276442   3.017  10.281   8.170 -0.2571  0.0294  0.7487
24604SOL     OW76443   9.302   2.283   3.305  0.1236 -0.1324  0.1343
24604SOL    HW176444   9.247   2.249   3.234 -1.7511  0.7407  1.0842
24604SOL    HW276445   9.239   2.310   3.372  1.7911  0.0881  1.6743
24605SOL     OW76446   3.198   3.436   9.826 -0.1949 -0.2136  0.2443
24605SOL    HW176447   3.262   3.416   9.896 -0.4947  0.8888  0.8443
24605SOL    HW276448   3.126   3.479   9.871 -0.6299  0.0438 -0.6814
24606SOL     OW76449   3.331   4.845   9.860  0.2011 -0.9833 -0.4380
24606SOL    HW176450   3.322   4.834   9.955 -0.1346 -1.1725 -0.4904
24606SOL    HW276451   3.337   4.756   9.826 -2.5005 -1.0810 -0.8575
24607SOL     OW76452   1.755   8.177   0.575 -0.0850 -0.2863 -0.3154
24607SOL    HW176453   1.684   8.223   0.620 -1.2405  1.5753 -3.6696
24607SOL    HW276454   1.820   8.245   0.559  0.4379 -0.9630 -1.0877
24608SOL     OW76455   1.800   0.478   7.347 -0.4459 -0.4496  0.4443
24608SOL    HW176456   1.822   0.444   7.433  0.1941  0.3758  0.6225
24608SOL    HW276457   1.884   0.497   7.306 -0.7497  0.9294  0.3831
24609SOL     OW76458   1.685   2.037   6.035  0.6383  0.6912 -0.1043
24609SOL    HW176459   1.769   2.026   5.990 -0.3863  0.7389 -2.1147
24609SOL    HW276460   1.654   2.123   6.007 -0.3293  0.4542  0.2079
24610SOL     OW76461   6.642   6.224   4.361  0.2631 -0.5140  0.0376
24610SOL    HW176462   6.605   6.312   4.350  1.1441 -0.3413 -1.7672
24610SOL    HW276463   6.567   6.165   4.352 -0.0612 -0.0273 -0.5183
24611SOL     OW76464   9.844   3.318   1.968 -0.0943 -0.4087  0.1903
24611SOL    HW176465   9.844   3.407   2.002  0.5596 -1.2959  2.7234
24611SOL    HW276466   9.753   3.301   1.944 -0.6825  0.1859  1.8923
24612SOL     OW76467   3.254   6.046   8.368  0.2508  0.0886  0.5509
24612SOL    HW176468   3.312   6.105   8.320  0.2733 -0.0564  0.3984
24612SOL    HW276469   3.279   5.958   8.338  0.4774 -0.0257  1.0535
24613SOL     OW76470   0.135   1.757   6.360 -0.1797  0.5106  0.0867
24613SOL    HW176471   0.155   1.746   6.453 -1.6690  1.8236  0.6068
24613SOL    HW276472   0.212   1.723   6.314  1.3237  1.4195  1.8345
24614SOL     OW76473   6.689   3.744   9.527 -0.6905  0.3177 -0.2248
24614SOL    HW176474   6.692   3.821   9.471 -0.0476  0.9441  0.6432
24614SOL    HW276475   6.748   3.765   9.600  0.3149 -1.4220 -0.4975
24615SOL     OW76476   3.654   5.370   8.721  0.1474 -0.3411  0.6149
24615SOL    HW176477   3.615   5.319   8.791  1.0012 -0.8299  0.7438
24615SOL    HW276478   3.672   5.456   8.760  1.6701 -0.9620  1.3504
24616SOL     OW76479   6.288   9.320   0.484 -0.2816 -0.0692  0.4528
24616SOL    HW176480   6.221   9.307   0.416 -0.2373 -0.7005  0.5260
24616SOL    HW276481   6.298   9.234   0.524 -0.3919  0.3279  1.3438
24617SOL     OW76482   4.980  10.302   7.827  0.0883 -0.2855 -0.1621
24617SOL    HW176483   5.072  10.283   7.844  0.5922  1.7388 -0.3750
24617SOL    HW276484   4.981  10.385   7.779 -1.8747  0.0955  0.3663
24618SOL     OW76485   6.193   1.541   5.629 -0.1739 -0.2094  0.2320
24618SOL    HW176486   6.199   1.585   5.713  1.7975 -1.6939  0.9415
24618SOL    HW276487   6.238   1.599   5.568  0.7437 -0.3410  0.7688
24619SOL     OW76488   2.629   8.285   9.900  0.0495 -0.6793 -0.4787
24619SOL    HW176489   2.579   8.222   9.847 -0.5029 -0.6122 -0.0521
24619SOL    HW276490   2.673   8.231   9.966  0.1593 -0.6922 -0.5630
24620SOL     OW76491   2.156   9.371   9.501 -0.6876  0.2206  0.0896
24620SOL    HW176492   2.243   9.409   9.487 -1.1113  0.6303 -1.5836
24620SOL    HW276493   2.119   9.362   9.413 -2.2199 -0.2514  0.7549
24621SOL     OW76494   4.170   3.468   9.917 -0.3998  0.5491 -0.0252
24621SOL    HW176495   4.180   3.554   9.958  0.5202  1.0896 -1.2941
24621SOL    HW276496   4.259   3.434   9.912 -0.8100 -0.7511  0.9545
24622SOL     OW76497   2.674   7.457   6.612  0.1967 -0.1525  0.4063
24622SOL    HW176498   2.633   7.386   6.562 -0.8564  1.4163 -1.0640
24622SOL    HW276499   2.695   7.523   6.546  1.8006  0.6418  1.6432
24623SOL     OW76500   2.782   6.716   5.612 -0.0741 -0.5047 -0.0927
24623SOL    HW176501   2.825   6.643   5.657  0.8156  0.1409  0.1285
24623SOL    HW276502   2.813   6.710   5.521  1.1299  0.4246  0.2412
24624SOL     OW76503   9.310   2.487   7.158  0.4972  0.3039  0.1725
24624SOL    HW176504   9.271   2.408   7.121 -1.7918  0.3458  2.2209
24624SOL    HW276505   9.354   2.529   7.084  2.4716 -3.1819 -0.8280
24625SOL     OW76506   3.783   4.921   8.315 -0.1149 -0.5286 -0.0920
24625SOL    HW176507   3.846   4.858   8.349 -1.2326 -0.7399  1.7251
24625SOL    HW276508   3.829   5.005   8.319  0.0252 -0.6497  1.3983
24626SOL     OW76509   2.746   3.289   6.254 -0.4620 -0.5862 -0.6076
24626SOL    HW176510   2.702   3.212   6.216 -0.3654 -0.8678 -0.1577
24626SOL    HW276511   2.676   3.354   6.263 -1.3266 -1.7153  2.0108
24627SOL     OW76512   7.677   6.281   7.992  0.0056 -0.3405 -0.1324
24627SOL    HW176513   7.676   6.358   7.935  0.3835 -0.6785 -0.6131
24627SOL    HW276514   7.697   6.315   8.079 -0.7930  0.2107 -0.1556
24628SOL     OW76515   8.969   6.608   7.008  0.1379  0.3258  0.3455
24628SOL    HW176516   9.048   6.661   7.020  0.1690  0.0514  1.5174
24628SOL    HW276517   8.979   6.568   6.922  1.0326  0.6952  0.2697
24629SOL     OW76518   5.221   7.970   0.855  0.1652  0.8854 -0.3268
24629SOL    HW176519   5.252   7.936   0.770 -0.2234  1.7231 -0.8175
24629SOL    HW276520   5.127   7.981   0.843  0.1618  1.3340  0.1110
24630SOL     OW76521   8.808   2.605   2.147  0.1874  0.2327  0.4443
24630SOL    HW176522   8.847   2.564   2.069 -0.1715 -0.6269  0.7040
24630SOL    HW276523   8.841   2.695   2.146  0.4132  0.1496 -0.5459
24631SOL     OW76524   7.066   6.217  10.355 -0.0299 -0.3412 -0.2356
24631SOL    HW176525   7.105   6.303  10.344  1.6498 -1.0171  0.2084
24631SOL    HW276526   7.021   6.201  10.272  1.4489  0.0883 -1.1537
24632SOL     OW76527   9.565   7.993   3.225 -0.3856 -0.0350  0.4493
24632SOL    HW176528   9.535   7.902   3.222  1.1886 -0.5677 -0.6837
24632SOL    HW276529   9.493   8.043   3.187 -0.8468 -0.9444  0.0831
24633SOL     OW76530   2.857   3.089   0.901  0.3014 -0.1439  0.3613
24633SOL    HW176531   2.819   3.017   0.952  0.3553  0.2461  0.9712
24633SOL    HW276532   2.858   3.058   0.811 -1.0866 -0.3174  0.3918
24634SOL     OW76533   1.267   3.219   1.943 -0.4422  0.6003 -0.2251
24634SOL    HW176534   1.297   3.164   1.871 -0.4232 -0.2863  0.4485
24634SOL    HW276535   1.174   3.198   1.953 -0.4204  0.6481  0.0760
24635SOL     OW76536   3.112   7.302   5.719 -0.0011 -0.3889 -0.2292
24635SOL    HW176537   3.113   7.206   5.715 -1.7994 -0.4509 -0.2532
24635SOL    HW276538   3.184   7.329   5.661  0.2557 -1.7159 -0.5681
24636SOL     OW76539   0.538   9.553   4.238  0.1653 -0.5142  0.1551
24636SOL    HW176540   0.540   9.592   4.326  0.0879 -0.7736  0.2744
24636SOL    HW276541   0.460   9.498   4.239 -0.0316 -0.2419 -0.1997
24637SOL     OW76542   3.859   9.441   8.943 -0.5197  0.0681  0.0423
24637SOL    HW176543   3.795   9.502   8.906  0.0138 -1.3565 -3.7028
24637SOL    HW276544   3.920   9.497   8.991 -2.0085  2.0191 -0.2084
24638SOL     OW76545   5.561   6.442   3.030 -0.6073 -0.2876 -0.9198
24638SOL    HW176546   5.530   6.490   2.953  2.1079  3.1778 -0.1079
24638SOL    HW276547   5.488   6.445   3.091 -1.5451  0.1240 -2.0210
24639SOL     OW76548   0.051   2.229   0.464 -0.4037 -0.5371  0.5709
24639SOL    HW176549  -0.045   2.229   0.466 -0.3903 -1.1538  1.9382
24639SOL    HW276550   0.073   2.214   0.372 -1.6094  0.3027  0.1218
24640SOL     OW76551   6.038   3.115   5.130  0.2338  0.0442 -0.2377
24640SOL    HW176552   6.132   3.115   5.113  0.5615 -1.2855  1.2915
24640SOL    HW276553   6.005   3.038   5.084 -0.0250  0.2156 -0.3432
24641SOL     OW76554   3.249   8.779   6.008  0.1432  0.2717 -0.5030
24641SOL    HW176555   3.325   8.751   6.059  0.1828  2.0984  0.5238
24641SOL    HW276556   3.286   8.807   5.924  0.4548  0.0096 -0.4549
24642SOL     OW76557   1.675   1.863   1.325  0.2535 -0.5160 -0.2399
24642SOL    HW176558   1.765   1.870   1.357  0.1172 -2.4245  0.7220
24642SOL    HW276559   1.621   1.869   1.404 -0.2173 -3.1105 -0.2834
24643SOL     OW76560   6.359   0.825   6.804 -0.4137 -0.5207 -0.0318
24643SOL    HW176561   6.273   0.850   6.837 -1.6505 -3.4288 -0.6637
24643SOL    HW276562   6.340   0.764   6.732  2.1928  1.6211 -2.7638
24644SOL     OW76563   3.860   3.903   1.326  0.1085 -0.1884 -0.4483
24644SOL    HW176564   3.881   3.875   1.237 -2.6799 -2.1821 -0.5748
24644SOL    HW276565   3.785   3.962   1.316 -1.0236 -1.3889  0.6211
24645SOL     OW76566   6.007   1.475   6.175 -0.2106  0.2025  0.1407
24645SOL    HW176567   6.048   1.507   6.095  1.0232  0.1357  0.7220
24645SOL    HW276568   5.948   1.546   6.202 -3.5665 -1.1612 -2.7401
24646SOL     OW76569   1.841   3.836   8.033  0.2234  0.3965  0.0542
24646SOL    HW176570   1.935   3.845   8.047  0.1322  0.3145  0.7549
24646SOL    HW276571   1.834   3.782   7.954  0.7684 -0.4243  0.5541
24647SOL     OW76572   8.909   4.778   4.162 -0.5448  0.0744 -0.3964
24647SOL    HW176573   8.995   4.762   4.201 -0.8783  0.8974  0.7237
24647SOL    HW276574   8.883   4.693   4.127 -0.8298 -1.1406  2.4733
24648SOL     OW76575   7.058   9.670   9.990 -0.1475  0.2494  0.2456
24648SOL    HW176576   7.000   9.744   9.971 -1.9099 -0.7446  1.4952
24648SOL    HW276577   7.120   9.705  10.054 -0.0710  1.0000 -0.2172
24649SOL     OW76578   3.709   2.354   3.531 -0.0200  0.0098  0.0948
24649SOL    HW176579   3.699   2.447   3.549 -1.2402 -0.3107  1.1744
24649SOL    HW276580   3.769   2.322   3.599 -1.3761 -0.4067  1.1230
24650SOL     OW76581   0.279   4.463   1.238  0.1194 -0.3191  0.3644
24650SOL    HW176582   0.245   4.471   1.328 -1.6130  0.9414 -0.3369
24650SOL    HW276583   0.310   4.551   1.217 -0.2407 -0.4076 -0.5475
24651SOL     OW76584   0.204   1.518   5.961  0.3756 -0.3704  0.5368
24651SOL    HW176585   0.145   1.547   5.892  0.7604 -2.9372 -0.9987
24651SOL    HW276586   0.291   1.528   5.923  0.6361 -1.0408  0.9505
24652SOL     OW76587   1.923   6.557   2.251 -0.0422 -0.3247  0.0663
24652SOL    HW176588   1.882   6.525   2.171 -1.8493 -0.5088  1.0149
24652SOL    HW276589   1.971   6.636   2.224 -1.9988  0.5908 -0.9363
24653SOL     OW76590   1.594   9.552   8.582 -0.0036 -0.1290  0.1059
24653SOL    HW176591   1.640   9.509   8.654  0.8496  1.2587  0.4176
24653SOL    HW276592   1.610   9.495   8.506  1.4247 -0.1826  0.4214
24654SOL     OW76593   5.240   1.769   7.501  0.5407  0.0820 -0.4216
24654SOL    HW176594   5.313   1.794   7.444  0.2815 -0.4073 -0.9803
24654SOL    HW276595   5.180   1.843   7.496  0.1934 -0.2357 -1.3623
24655SOL     OW76596   6.275   2.763   3.093 -0.3180  0.0472  0.4449
24655SOL    HW176597   6.279   2.858   3.089 -0.5652  0.0251 -0.4155
24655SOL    HW276598   6.207   2.744   3.158  2.3478  0.4196  3.6834
24656SOL     OW76599   8.824   9.680   0.929  0.1304 -0.4152 -0.0641
24656SOL    HW176600   8.790   9.701   1.016 -0.4091 -1.2832 -0.0528
24656SOL    HW276601   8.747   9.656   0.878  0.3982  0.4444 -0.8997
24657SOL     OW76602   9.058   3.325   0.391 -0.6410 -0.2029  0.4650
24657SOL    HW176603   9.012   3.385   0.449 -0.3411 -1.2241  1.8206
24657SOL    HW276604   9.033   3.238   0.422  0.7477 -0.7791  0.0374
24658SOL     OW76605   6.830   2.119   9.139  0.0559  0.1842 -0.0811
24658SOL    HW176606   6.860   2.161   9.059  0.9379  0.0339  0.1598
24658SOL    HW276607   6.737   2.100   9.123 -0.1284  1.4122 -0.5250
24659SOL     OW76608   4.710   1.009   7.028 -0.5776  0.0419 -0.5617
24659SOL    HW176609   4.618   1.003   7.053 -0.5677 -0.4317 -0.6257
24659SOL    HW276610   4.727   0.927   6.981  0.2588 -0.5271  0.7092
24660SOL     OW76611   3.564   8.816   5.615 -0.0256 -0.1338 -0.4254
24660SOL    HW176612   3.592   8.728   5.593 -1.6405 -0.9393  0.5706
24660SOL    HW276613   3.562   8.862   5.531 -0.5968 -1.4695 -1.1658
24661SOL     OW76614   0.923   1.684   4.975  0.3849 -0.4117  0.2806
24661SOL    HW176615   0.967   1.679   5.060 -1.8430 -1.3644  1.4698
24661SOL    HW276616   0.841   1.729   4.993  0.7777  1.3640 -1.8654
24662SOL     OW76617   2.170   5.312   8.173  0.2130  0.1562  0.3632
24662SOL    HW176618   2.220   5.258   8.234  2.4180  1.1694 -0.4508
24662SOL    HW276619   2.216   5.304   8.090 -0.6552  1.5856 -0.2910
24663SOL     OW76620   4.649   3.606   5.509 -0.1388  0.0039  0.2270
24663SOL    HW176621   4.630   3.666   5.582  1.1553 -2.0583  2.3938
24663SOL    HW276622   4.744   3.609   5.501 -0.1334 -1.0778 -0.2343
24664SOL     OW76623   0.677   1.356   3.803  0.1576 -0.1585 -0.1021
24664SOL    HW176624   0.772   1.365   3.804  0.2859 -1.4143  0.7369
24664SOL    HW276625   0.644   1.443   3.825  1.2218 -0.5055  3.5397
24665SOL     OW76626   3.769  10.167   7.125  0.1454  0.1650  0.1017
24665SOL    HW176627   3.690  10.138   7.080 -0.9276  2.2573  0.5407
24665SOL    HW276628   3.755  10.142   7.217  0.4432 -0.3014  0.0271
24666SOL     OW76629   5.220   1.984   3.524 -0.0832 -0.4293 -0.3610
24666SOL    HW176630   5.246   2.043   3.453 -0.0825 -0.0167 -0.0270
24666SOL    HW276631   5.124   1.986   3.523 -0.0831 -0.2038 -0.1795
24667SOL     OW76632   7.831   1.722   0.280  0.0137  0.0862 -0.0357
24667SOL    HW176633   7.757   1.737   0.221  0.6681 -0.0524 -0.9117
24667SOL    HW276634   7.893   1.791   0.258 -1.2688  2.5168  3.1743
24668SOL     OW76635   1.693   1.097  10.094  0.1813  0.4837 -0.5935
24668SOL    HW176636   1.775   1.062  10.059 -0.1466 -0.2725 -0.6226
24668SOL    HW276637   1.640   1.116  10.017 -0.4919 -1.0628 -0.5390
24669SOL     OW76638   1.844   1.255   1.876 -0.0893 -0.4898 -0.0998
24669SOL    HW176639   1.865   1.302   1.957  1.4340  1.6185 -1.6166
24669SOL    HW276640   1.905   1.181   1.875  0.2359 -0.2394  0.4550
24670SOL     OW76641   1.568  10.156   6.360 -0.1839  0.0452 -0.1520
24670SOL    HW176642   1.474  10.157   6.377 -0.4861 -1.7897 -1.4838
24670SOL    HW276643   1.583  10.235   6.308 -0.9616  0.3763  0.1062
24671SOL     OW76644  10.111   5.610   6.655 -0.0853  0.4013 -0.1130
24671SOL    HW176645  10.126   5.636   6.746 -2.6788  1.2848  0.1353
24671SOL    HW276646  10.075   5.689   6.614 -0.7619 -0.5646 -1.4220
24672SOL     OW76647   8.934   7.158   7.895  0.5522 -0.5883 -0.1712
24672SOL    HW176648   8.887   7.116   7.823 -0.2686  0.2820 -0.1602
24672SOL    HW276649   8.926   7.096   7.967  1.7554 -1.6660 -0.9276
24673SOL     OW76650   1.540   7.168   5.396  0.6507 -0.1474 -0.3290
24673SOL    HW176651   1.455   7.152   5.437 -0.1072  2.4295 -0.7086
24673SOL    HW276652   1.519   7.177   5.303  1.4726 -0.1979 -0.5251
24674SOL     OW76653   3.798   6.170   1.478  0.2452 -0.0302 -0.4694
24674SOL    HW176654   3.724   6.222   1.447  0.8826  0.5165 -1.1404
24674SOL    HW276655   3.832   6.220   1.552  1.0204  0.6892 -1.2790
24675SOL     OW76656  10.105   5.595   8.900  0.4548  0.0710 -0.6795
24675SOL    HW176657  10.088   5.621   8.991  2.8638  1.9041 -0.6607
24675SOL    HW276658  10.091   5.500   8.900  0.1522  0.0466  1.5466
24676SOL     OW76659   2.863   1.890   5.492 -0.2582 -0.2257  0.3378
24676SOL    HW176660   2.919   1.891   5.414 -1.0742  1.7814 -0.2901
24676SOL    HW276661   2.775   1.877   5.457 -0.7136  1.3722  0.8187
24677SOL     OW76662   9.473   8.490   0.055  0.0857 -0.0584  0.1001
24677SOL    HW176663   9.518   8.433  -0.007  2.0810  0.2223  1.1832
24677SOL    HW276664   9.530   8.567   0.061  0.9776 -0.8189  3.5249
24678SOL     OW76665   7.181   4.419   7.723 -0.4368 -1.0373  0.3772
24678SOL    HW176666   7.148   4.498   7.766  0.6376 -0.8321  0.8432
24678SOL    HW276667   7.125   4.349   7.756 -1.4119 -0.4845 -0.0505
24679SOL     OW76668   0.536   1.755   5.746 -0.6905  0.3671  0.2249
24679SOL    HW176669   0.501   1.670   5.773  0.7064 -0.3649 -0.1325
24679SOL    HW276670   0.489   1.776   5.666 -1.4499  0.2243  0.6183
24680SOL     OW76671   2.342   6.752   4.730  0.2225 -0.1662  0.1030
24680SOL    HW176672   2.358   6.778   4.640  1.2100 -1.2387 -0.0599
24680SOL    HW276673   2.295   6.669   4.724 -0.9942  0.4635  0.5961
24681SOL     OW76674   9.000   9.193   9.703 -0.3548 -0.4120  0.1068
24681SOL    HW176675   8.951   9.130   9.756 -0.2541  1.4441  2.5961
24681SOL    HW276676   8.956   9.193   9.618  0.0750 -4.2379 -0.2874
24682SOL     OW76677   2.970   4.867   7.631  0.4750 -0.4232 -0.0426
24682SOL    HW176678   2.924   4.804   7.686  0.2564  0.1301  0.4206
24682SOL    HW276679   2.982   4.822   7.547 -0.3499 -0.8111  0.0369
24683SOL     OW76680   7.515   1.436   7.137  0.2134 -0.2709 -0.3346
24683SOL    HW176681   7.461   1.508   7.105  1.3317  0.5031 -0.5374
24683SOL    HW276682   7.500   1.365   7.075  0.5664  0.4321 -1.2387
24684SOL     OW76683   0.143   0.265   9.683 -0.2323 -0.2291 -0.3378
24684SOL    HW176684   0.065   0.210   9.696  0.0582 -1.3402 -2.7418
24684SOL    HW276685   0.131   0.304   9.597  1.6192  0.0402 -0.5156
24685SOL     OW76686   6.716   3.921   2.370 -0.4348  0.2415 -0.0827
24685SOL    HW176687   6.690   4.008   2.401 -1.1415 -0.6212  1.9013
24685SOL    HW276688   6.644   3.892   2.315 -0.1023  0.9576 -0.9325
24686SOL     OW76689   8.761   2.633   7.863 -0.0035  0.0404 -0.2301
24686SOL    HW176690   8.828   2.594   7.807 -0.4556 -0.5226 -0.3822
24686SOL    HW276691   8.683   2.637   7.808  0.6658  3.7520 -1.2284
24687SOL     OW76692   8.133   9.064   6.010 -0.5071 -0.2108 -0.1262
24687SOL    HW176693   8.114   9.007   6.084 -0.2560  1.1328  1.0255
24687SOL    HW276694   8.050   9.069   5.961 -0.2331 -2.3832 -0.8817
24688SOL     OW76695   0.777   7.168   8.857  0.2634  0.4555  0.4867
24688SOL    HW176696   0.806   7.245   8.808  1.1024  0.6066  1.1859
24688SOL    HW276697   0.808   7.184   8.947 -0.9577  0.0440  1.0000
24689SOL     OW76698   9.604   4.636   3.036  0.6907 -0.2010  0.1579
24689SOL    HW176699   9.540   4.705   3.019 -0.0250 -1.4097 -2.6950
24689SOL    HW276700   9.678   4.658   2.980  1.8632 -0.0573  1.7025
24690SOL     OW76701   8.800   6.396   8.249  0.1511 -0.0656  0.1739
24690SOL    HW176702   8.772   6.395   8.340 -0.1045 -1.7216  0.1146
24690SOL    HW276703   8.891   6.424   8.252 -0.5346  2.3732  0.6583
24691SOL     OW76704   7.454   3.625   7.412 -0.6533 -0.2915 -0.3147
24691SOL    HW176705   7.383   3.632   7.348 -1.0322 -0.9753  0.0214
24691SOL    HW276706   7.528   3.589   7.362  0.0134  1.9813 -1.0662
24692SOL     OW76707   2.655   5.742   9.495 -0.3141 -0.7826 -0.0598
24692SOL    HW176708   2.689   5.724   9.583  0.0180 -1.2600 -0.2829
24692SOL    HW276709   2.670   5.661   9.447 -0.4222 -0.4940 -0.5826
24693SOL     OW76710   1.194   6.281   6.726 -0.2344 -0.1986  0.0481
24693SOL    HW176711   1.253   6.206   6.719  0.7067  0.5101  0.2014
24693SOL    HW276712   1.251   6.355   6.747 -1.1041  0.6161 -0.3636
24694SOL     OW76713   1.468   5.362   3.095  0.0437  0.5717 -0.3912
24694SOL    HW176714   1.529   5.355   3.169  0.1009 -2.7446 -0.6323
24694SOL    HW276715   1.519   5.404   3.026  0.9761  0.8609  0.4452
24695SOL     OW76716   6.309   1.456   0.034  0.2350 -0.0727 -0.5637
24695SOL    HW176717   6.292   1.544   0.067 -1.9710 -0.9073  0.7912
24695SOL    HW276718   6.323   1.468  -0.060  2.7998  1.9615 -0.0339
24696SOL     OW76719   9.821   9.399   5.691  0.3374 -0.1711 -0.0953
24696SOL    HW176720   9.750   9.381   5.753 -0.6962 -0.8149 -1.4080
24696SOL    HW276721   9.886   9.448   5.742 -0.0103 -1.5190  1.7357
24697SOL     OW76722   1.697   4.380   1.498  0.5491 -0.2694 -0.0748
24697SOL    HW176723   1.617   4.352   1.542  1.0087 -0.0417  0.9407
24697SOL    HW276724   1.768   4.338   1.547  1.1736  1.4652  0.6011
24698SOL     OW76725   4.591   5.939   8.838 -0.0232 -0.0192 -0.4856
24698SOL    HW176726   4.678   5.940   8.798  0.3313  0.3841  0.2790
24698SOL    HW276727   4.557   6.027   8.821 -0.3417 -0.2180 -0.8967
24699SOL     OW76728  10.150   1.938   2.705 -0.0485 -0.4009 -0.1878
24699SOL    HW176729  10.246   1.933   2.713 -0.0265 -1.3197 -0.9452
24699SOL    HW276730  10.128   2.023   2.745  0.8991 -0.8850  1.4729
24700SOL     OW76731   6.198   8.236   5.917 -0.1591 -0.3089 -0.1931
24700SOL    HW176732   6.186   8.324   5.881  0.3789 -0.5581 -1.0050
24700SOL    HW276733   6.138   8.232   5.992  0.3030  0.9854  0.2799
24701SOL     OW76734   0.328   9.176   5.374 -0.3372 -0.5252 -0.4582
24701SOL    HW176735   0.266   9.177   5.301  0.1353 -0.1458 -0.8553
24701SOL    HW276736   0.393   9.242   5.351  0.0313 -0.6851  0.1200
24702SOL     OW76737   7.409   6.245   9.202 -0.1492  0.4406 -0.4673
24702SOL    HW176738   7.329   6.228   9.152 -0.1869 -0.0164 -0.2571
24702SOL    HW276739   7.412   6.341   9.210 -1.5941  0.4182  0.9887
24703SOL     OW76740   7.182   3.134   5.028 -0.3860  0.7896  0.0663
24703SOL    HW176741   7.207   3.070   4.961 -0.7455  1.7915 -1.0651
24703SOL    HW276742   7.257   3.136   5.088  0.1792  0.2442 -0.5957
24704SOL     OW76743   0.119   5.174   0.930 -0.0113 -0.1154  0.0437
24704SOL    HW176744   0.056   5.156   0.999 -0.5557  0.1127 -0.3879
24704SOL    HW276745   0.201   5.192   0.976 -0.7669  1.7844  0.7452
24705SOL     OW76746  10.019   9.675   3.107  0.0557  0.3788  1.0720
24705SOL    HW176747  10.074   9.662   3.184  0.3020  3.6030  1.5824
24705SOL    HW276748   9.930   9.684   3.143  0.1271  1.5706  0.9743
24706SOL     OW76749   3.454   2.892   7.716  0.5910 -0.1717  0.5568
24706SOL    HW176750   3.398   2.920   7.643  0.6155 -0.7987  0.2950
24706SOL    HW276751   3.539   2.931   7.697  0.4223  0.2256  0.6041
24707SOL     OW76752   6.379   1.782   3.549 -0.0913 -0.4377 -0.3319
24707SOL    HW176753   6.301   1.759   3.500 -1.4990  0.6280  1.2865
24707SOL    HW276754   6.359   1.868   3.587  1.5399 -0.5113  0.8069
24708SOL     OW76755   5.427   4.307   5.694 -0.2661  0.0061 -0.3255
24708SOL    HW176756   5.462   4.328   5.781 -0.1062 -1.0714 -0.1110
24708SOL    HW276757   5.345   4.357   5.689 -0.2004  0.2068  0.3783
24709SOL     OW76758   8.739   7.886   2.479 -0.3279  0.0269  0.3406
24709SOL    HW176759   8.790   7.844   2.548 -0.2316  0.5322  0.5816
24709SOL    HW276760   8.790   7.964   2.455 -1.3868  1.0252  1.1979
24710SOL     OW76761   2.781   4.498   1.387  0.1487  0.0008  0.1822
24710SOL    HW176762   2.763   4.497   1.293  1.4320 -2.5798 -0.1183
24710SOL    HW276763   2.860   4.445   1.397  0.6539  1.0490  2.6442
24711SOL     OW76764   3.034   4.593   1.052  0.1764 -0.7325 -0.1432
24711SOL    HW176765   3.100   4.630   0.993 -0.3686 -0.3178 -0.4942
24711SOL    HW276766   2.974   4.546   0.995 -1.1373  0.8134 -0.0946
24712SOL     OW76767   3.140   6.195   7.320  0.2463 -0.2620 -0.2227
24712SOL    HW176768   3.120   6.173   7.229  0.7399  0.2119 -0.4510
24712SOL    HW276769   3.199   6.271   7.314  1.2280 -0.9483  0.4535
24713SOL     OW76770   6.467   1.443   2.131  0.2122  0.5609 -0.1116
24713SOL    HW176771   6.490   1.401   2.213 -0.0950  2.2492  0.8795
24713SOL    HW276772   6.448   1.370   2.071 -0.6740 -0.7076  1.6127
24714SOL     OW76773   2.415   4.865   2.898  0.1032  0.2043 -0.4898
24714SOL    HW176774   2.320   4.879   2.899 -0.3298 -1.7889  3.5339
24714SOL    HW276775   2.426   4.786   2.845 -0.6671 -0.3273  0.1151
24715SOL     OW76776   3.808   7.484   5.641 -0.2216 -0.1757 -0.1880
24715SOL    HW176777   3.750   7.416   5.606 -1.5046  0.7456  0.0935
24715SOL    HW276778   3.895   7.445   5.637 -0.8347 -1.5535 -0.7356
24716SOL     OW76779   8.658   6.097   9.351 -0.0582 -0.2160 -0.8667
24716SOL    HW176780   8.579   6.063   9.393 -1.0108 -1.3826 -3.3972
24716SOL    HW276781   8.707   6.018   9.326  0.6525  0.4312 -1.5585
24717SOL     OW76782   1.305   5.213   2.167 -0.2453  0.7904  0.4681
24717SOL    HW176783   1.311   5.118   2.156  0.2168  0.8427  0.2239
24717SOL    HW276784   1.356   5.248   2.093  0.7493  1.2086  1.3335
24718SOL     OW76785   7.398   9.850   5.838 -0.0387 -0.1418 -0.3457
24718SOL    HW176786   7.358   9.904   5.906 -1.5927  0.0792 -1.3975
24718SOL    HW276787   7.326   9.825   5.781  1.2368 -0.2800 -1.9672
24719SOL     OW76788   2.491   5.134   0.488 -0.8984 -0.2496 -0.5335
24719SOL    HW176789   2.578   5.154   0.453 -0.5955 -1.4375 -0.4969
24719SOL    HW276790   2.430   5.161   0.419 -0.3906 -1.1190 -1.3434
24720SOL     OW76791  10.276   4.368   9.220 -0.1095 -0.3621  0.4565
24720SOL    HW176792  10.265   4.405   9.308  3.1738  2.4711 -0.1300
24720SOL    HW276793  10.345   4.303   9.230  0.4826  0.1794 -0.0634
24721SOL     OW76794   2.510   9.799   0.296 -0.2833  0.1580  0.2361
24721SOL    HW176795   2.559   9.725   0.260 -0.9970 -0.6407  0.8742
24721SOL    HW276796   2.433   9.760   0.337  0.3402  1.0174  2.3910
24722SOL     OW76797   2.320   3.188   3.649 -0.1056 -0.4082 -0.4450
24722SOL    HW176798   2.403   3.183   3.696 -1.2093  0.4596  1.7387
24722SOL    HW276799   2.310   3.102   3.609  1.6725 -0.6284 -0.4809
24723SOL     OW76800   0.503   5.265   8.858 -0.1634  0.3152 -0.2313
24723SOL    HW176801   0.511   5.238   8.950 -0.1550  1.7079  0.1944
24723SOL    HW276802   0.582   5.315   8.841 -0.3653  0.4144 -0.8765
24724SOL     OW76803   6.370   0.695   0.322  0.5026  0.7437 -0.5703
24724SOL    HW176804   6.400   0.667   0.236  2.4779  2.3897 -0.4827
24724SOL    HW276805   6.426   0.769   0.345 -0.3125  0.6977  1.9106
24725SOL     OW76806   2.575   4.620   1.160  0.0004 -0.5435 -0.1568
24725SOL    HW176807   2.491   4.665   1.152  0.1240 -0.5171 -1.4703
24725SOL    HW276808   2.631   4.663   1.096  1.2253 -0.1335  1.1341
24726SOL     OW76809   8.625   6.928   1.767  0.2680 -0.0026 -0.1783
24726SOL    HW176810   8.660   6.852   1.814  0.5950  0.8833  1.0581
24726SOL    HW276811   8.690   6.947   1.700  0.4126 -0.5221 -0.1883
24727SOL     OW76812   2.952   6.262   8.917  0.1456  0.0136  0.5336
24727SOL    HW176813   3.004   6.192   8.877 -0.1355  0.1257 -0.0377
24727SOL    HW276814   2.863   6.249   8.884  0.2565  1.1613 -0.3198
24728SOL     OW76815   2.140   8.488   3.206 -0.7329 -0.4595 -0.6487
24728SOL    HW176816   2.062   8.434   3.202 -2.1511  1.2099  1.9355
24728SOL    HW276817   2.136   8.531   3.291  2.6066  0.3423 -0.7408
24729SOL     OW76818   8.674   4.699   0.238 -0.1952 -0.0920 -0.3844
24729SOL    HW176819   8.755   4.715   0.190 -0.3097 -1.1138 -0.9539
24729SOL    HW276820   8.666   4.773   0.298 -0.0518  1.2528 -1.9659
24730SOL     OW76821   2.615   6.940   8.697  0.0002 -0.6954 -0.5664
24730SOL    HW176822   2.689   6.961   8.754 -0.1646 -1.1778 -0.1644
24730SOL    HW276823   2.654   6.892   8.624  0.4869  1.5591 -1.8759
24731SOL     OW76824   0.634   6.242   6.412  0.0562  0.0845  0.1139
24731SOL    HW176825   0.617   6.147   6.417 -0.6264  0.0763 -1.6749
24731SOL    HW276826   0.663   6.265   6.500  0.3347 -1.8069  0.5777
24732SOL     OW76827   6.275   7.003   4.956  0.4423  0.6458  0.3517
24732SOL    HW176828   6.291   7.025   5.048 -2.7182  0.7578  0.9787
24732SOL    HW276829   6.242   6.914   4.958 -1.1335  1.1755 -0.4521
24733SOL     OW76830   1.167   2.939   6.555 -0.4547  0.7959 -0.8371
24733SOL    HW176831   1.158   3.031   6.577 -2.6040  0.6492 -0.9352
24733SOL    HW276832   1.256   2.916   6.584  0.0735  2.8343 -0.7129
24734SOL     OW76833   4.140   5.628   7.428 -0.4959 -0.4958 -0.4039
24734SOL    HW176834   4.167   5.694   7.365 -0.7325 -0.1983 -0.1973
24734SOL    HW276835   4.189   5.550   7.403 -0.0233 -0.1752 -0.4948
24735SOL     OW76836   4.120   6.835   4.252  0.2885 -0.2368 -0.1388
24735SOL    HW176837   4.109   6.850   4.158 -0.4930  0.5397  0.0641
24735SOL    HW276838   4.058   6.894   4.293 -0.0681 -1.2645  0.8471
24736SOL     OW76839   9.644   9.251   4.973  0.8044  0.0266 -0.0879
24736SOL    HW176840   9.566   9.247   5.028  1.1646 -0.7494  0.3836
24736SOL    HW276841   9.709   9.198   5.019  2.2209  2.1250  0.4857
24737SOL     OW76842   4.219   1.669   4.337 -0.2327 -0.1632 -0.8670
24737SOL    HW176843   4.233   1.625   4.253  0.9185 -0.5614 -0.4890
24737SOL    HW276844   4.223   1.600   4.402  0.1782  0.2965 -0.3885
24738SOL     OW76845   4.080   6.753   1.141 -0.4813  0.4084  0.0870
24738SOL    HW176846   4.161   6.776   1.186 -0.5615 -0.7770  0.8939
24738SOL    HW276847   4.012   6.803   1.187 -0.5438 -0.6828  1.2421
24739SOL     OW76848   4.547   9.784   1.754  0.2815  1.0576 -0.1191
24739SOL    HW176849   4.603   9.711   1.728  0.7592  1.7515 -1.1376
24739SOL    HW276850   4.483   9.791   1.683  0.9107  2.2774 -0.6067
24740SOL     OW76851   2.983   5.182   8.628 -0.2427 -0.2457  0.7130
24740SOL    HW176852   3.037   5.129   8.686 -0.8776 -2.1066 -0.3261
24740SOL    HW276853   3.046   5.236   8.579  0.3578  0.5491  2.2916
24741SOL     OW76854   5.340   9.464   2.453  0.1436 -0.6386  0.0204
24741SOL    HW176855   5.264   9.499   2.406  0.6090 -1.2088 -1.2240
24741SOL    HW276856   5.381   9.404   2.390  1.3048 -0.7716  0.8667
24742SOL     OW76857   3.654   8.189   2.357  0.0413 -0.3363  0.0248
24742SOL    HW176858   3.575   8.197   2.411  0.3256  0.1741  0.3698
24742SOL    HW276859   3.694   8.106   2.384 -2.3443 -2.6491 -2.7834
24743SOL     OW76860   6.771   7.495   9.858 -0.0098  0.3244 -0.3350
24743SOL    HW176861   6.858   7.501   9.898  1.1040 -0.7838 -2.3981
24743SOL    HW276862   6.725   7.429   9.910  0.0670  1.4460  1.2275
24744SOL     OW76863   9.572   9.359   9.081  0.3834 -0.7743 -0.1861
24744SOL    HW176864   9.602   9.340   8.992  1.1952  1.2040 -0.3875
24744SOL    HW276865   9.619   9.297   9.136  1.1668 -0.9027 -0.9793
24745SOL     OW76866   0.697   3.426   3.865 -0.3223 -0.3294 -0.0951
24745SOL    HW176867   0.620   3.370   3.864 -0.6149  0.0154  1.1021
24745SOL    HW276868   0.668   3.505   3.912  0.5766  0.0679 -0.1917
24746SOL     OW76869   6.380   7.714   5.275 -0.9958  0.1130 -0.1011
24746SOL    HW176870   6.466   7.685   5.306 -0.5067  1.1529 -0.4022
24746SOL    HW276871   6.397   7.801   5.237 -2.2672  0.5456  0.2636
24747SOL     OW76872   5.472   4.421   8.398  0.2527  0.2715 -0.0244
24747SOL    HW176873   5.563   4.452   8.398  0.1159  0.7402  1.4778
24747SOL    HW276874   5.451   4.410   8.491 -0.9784 -0.5887 -0.3871
24748SOL     OW76875   9.315   7.178   3.620 -0.6775  0.3204  0.7482
24748SOL    HW176876   9.228   7.139   3.609  0.2072 -1.2979 -1.0447
24748SOL    HW276877   9.344   7.148   3.706 -1.4012 -0.1798  0.8286
24749SOL     OW76878   6.726   4.605   6.904  0.6260 -0.4100  0.2604
24749SOL    HW176879   6.731   4.513   6.878 -1.4603 -0.1691 -1.1793
24749SOL    HW276880   6.664   4.606   6.977 -3.6192  0.2877 -2.9765
24750SOL     OW76881   9.200   8.874   3.097 -0.4115  0.6008  0.1584
24750SOL    HW176882   9.158   8.789   3.109  0.8434  0.0365  0.7924
24750SOL    HW276883   9.210   8.908   3.186  1.1533  0.3434  0.1148
24751SOL     OW76884   8.163   3.277   0.956  0.2113 -0.0071  0.0231
24751SOL    HW176885   8.187   3.368   0.978  1.4538  0.0165 -1.3245
24751SOL    HW276886   8.068   3.279   0.950  0.2094  1.1994  0.0770
24752SOL     OW76887   9.249   7.275   0.286 -0.3481 -0.0762 -0.2874
24752SOL    HW176888   9.242   7.358   0.239  1.6464 -0.3622 -1.2290
24752SOL    HW276889   9.304   7.295   0.362  0.3170 -0.5628 -0.6349
24753SOL     OW76890   3.982   2.000   1.909  0.1948 -0.7530  0.2546
24753SOL    HW176891   3.924   1.925   1.894 -1.6864  0.4473  1.0960
24753SOL    HW276892   4.044   1.969   1.975  0.2182 -1.9279 -0.2956
24754SOL     OW76893   4.843   4.908   7.605 -0.2494  0.3555  0.4260
24754SOL    HW176894   4.932   4.925   7.635  1.2214 -2.6936 -1.7100
24754SOL    HW276895   4.804   4.854   7.674  0.6835 -0.8563  0.0359
24755SOL     OW76896   3.042   7.897   8.933  0.1302  0.2919 -0.1189
24755SOL    HW176897   2.951   7.869   8.925  0.0881  0.3862  0.0270
24755SOL    HW276898   3.070   7.912   8.843  0.3227 -0.7407 -0.2396
24756SOL     OW76899   6.472   8.855   9.657  0.3101  0.7087 -0.3797
24756SOL    HW176900   6.503   8.940   9.624  0.7337  0.4958 -0.5352
24756SOL    HW276901   6.436   8.811   9.580  0.4770  0.5789 -0.3852
24757SOL     OW76902   8.385   0.392   4.991  0.3936  0.3111  0.5234
24757SOL    HW176903   8.375   0.299   4.971  0.3053  0.2839  0.6935
24757SOL    HW276904   8.315   0.411   5.053 -0.7218  0.9056 -0.8692
24758SOL     OW76905   5.944   1.543   0.926  0.2135 -0.1881 -0.2629
24758SOL    HW176906   5.929   1.633   0.898  3.3354  0.1862 -1.0208
24758SOL    HW276907   5.967   1.496   0.845  0.5768 -1.2038  0.4143
24759SOL     OW76908   4.190   7.355   7.219  0.4486 -0.3183 -0.0823
24759SOL    HW176909   4.132   7.430   7.209 -1.0569 -1.3979  0.0852
24759SOL    HW276910   4.202   7.346   7.314  0.4486 -0.4092 -0.0908
24760SOL     OW76911   9.888   5.758   7.364  0.3828  0.3839 -0.5820
24760SOL    HW176912   9.795   5.763   7.342  0.3870 -0.9972 -0.9858
24760SOL    HW276913   9.889   5.720   7.452  0.5705  0.1700 -0.6775
24761SOL     OW76914   2.769   8.024   3.410  0.8002 -0.3351  0.0715
24761SOL    HW176915   2.819   7.958   3.362  2.1472  0.0514  0.9009
24761SOL    HW276916   2.726   8.076   3.341  0.9498 -1.1131 -0.6260
24762SOL     OW76917   8.129   8.929   9.056 -0.2442  0.5558 -0.2825
24762SOL    HW176918   8.213   8.901   9.094 -0.8717 -1.7294 -0.4556
24762SOL    HW276919   8.080   8.963   9.131 -0.7878 -2.2401  0.7451
24763SOL     OW76920   5.685   2.536   7.066 -0.0657 -0.3528  0.0227
24763SOL    HW176921   5.718   2.582   7.143  0.4969  0.2042 -0.5282
24763SOL    HW276922   5.607   2.490   7.096  0.5106 -0.6710  1.0714
24764SOL     OW76923   8.244   4.085   8.277 -0.2292  0.1364 -0.2090
24764SOL    HW176924   8.241   4.088   8.373 -1.6843  0.6803 -0.2445
24764SOL    HW276925   8.335   4.064   8.256  0.5707  1.9601  1.2399
24765SOL     OW76926   7.732   6.104   0.383 -0.5802  0.2254 -0.1393
24765SOL    HW176927   7.803   6.073   0.438  0.3500  1.2776 -0.7219
24765SOL    HW276928   7.684   6.024   0.360  0.6895 -0.5710 -0.1362
24766SOL     OW76929   0.581   9.998   5.412  0.1765 -0.0233 -0.2354
24766SOL    HW176930   0.641  10.005   5.486 -0.1092 -0.8975  0.0866
24766SOL    HW276931   0.509   9.944   5.444  0.2032 -0.6925 -1.2482
24767SOL     OW76932   8.318   4.331   7.131  0.4985 -0.2854 -0.0419
24767SOL    HW176933   8.374   4.330   7.053  0.3852 -0.7204 -0.1164
24767SOL    HW276934   8.313   4.240   7.159 -0.0636 -0.2335  0.0440
24768SOL     OW76935   9.317   8.401   8.956  0.2005  0.0946  0.3702
24768SOL    HW176936   9.353   8.314   8.940  1.3360  0.6694 -0.2951
24768SOL    HW276937   9.366   8.435   9.030  0.1651  0.4051  0.2523
24769SOL     OW76938   5.022   6.347   5.561 -0.1122 -0.2401 -0.7291
24769SOL    HW176939   4.955   6.280   5.576 -2.3307  1.5979 -1.6524
24769SOL    HW276940   5.014   6.406   5.636  2.3649 -1.3191  0.4847
24770SOL     OW76941   6.440   4.307   6.809  0.4779 -0.3495  0.0284
24770SOL    HW176942   6.450   4.265   6.894  0.7925  2.9495  1.7718
24770SOL    HW276943   6.524   4.349   6.792  0.3988 -0.8631 -1.9115
24771SOL     OW76944   4.653   6.656   5.918 -0.2629 -0.3336  0.4255
24771SOL    HW176945   4.619   6.567   5.920  0.3748 -0.7117 -2.2244
24771SOL    HW276946   4.744   6.648   5.947 -0.0021 -0.6887 -0.4562
24772SOL     OW76947   6.931   2.788   8.633 -0.0781  0.1909 -0.4842
24772SOL    HW176948   6.856   2.774   8.575  0.1110  0.9544 -0.9344
24772SOL    HW276949   6.965   2.874   8.607  0.7884 -0.0269 -0.0965
24773SOL     OW76950   9.865   2.866   8.284 -0.2717  0.1882  0.0405
24773SOL    HW176951   9.808   2.868   8.206 -0.0739  0.6599 -0.0974
24773SOL    HW276952   9.947   2.828   8.252  0.4476  2.0192 -0.4419
24774SOL     OW76953   1.844   0.449   8.374  0.5669 -0.1501  0.0391
24774SOL    HW176954   1.810   0.539   8.383 -1.6532 -1.0279  1.2972
24774SOL    HW276955   1.767   0.398   8.347  0.3779 -2.5320  4.3048
24775SOL     OW76956   4.197   0.555   1.619  0.5983  0.7285  0.2806
24775SOL    HW176957   4.286   0.521   1.627  0.6829  0.3547 -1.7501
24775SOL    HW276958   4.154   0.496   1.558 -0.1251  2.6105 -1.1122
24776SOL     OW76959   2.015   4.358   5.883 -0.3823 -0.2229 -0.3946
24776SOL    HW176960   2.079   4.290   5.903  1.5486  1.3210 -1.0561
24776SOL    HW276961   2.057   4.413   5.816 -1.7239  1.8059  0.3179
24777SOL     OW76962   4.922   0.265   2.986 -0.5281 -0.3108 -0.3525
24777SOL    HW176963   4.947   0.179   2.953  0.0349  0.1689 -1.2504
24777SOL    HW276964   4.996   0.292   3.041 -0.5555 -0.2653 -0.3378
24778SOL     OW76965   6.318   3.341   7.914  0.1816  0.5356 -0.2959
24778SOL    HW176966   6.321   3.246   7.911 -0.0331  0.5318 -0.4372
24778SOL    HW276967   6.259   3.362   7.986  0.9394  0.5742  0.3324
24779SOL     OW76968   5.894   9.472   9.664  0.6722  0.1992  0.1762
24779SOL    HW176969   5.941   9.412   9.606  2.1033  1.4653 -0.0021
24779SOL    HW276970   5.920   9.445   9.752  2.3622  1.3451  0.0635
24780SOL     OW76971   7.559   4.678   8.308  0.2351 -0.1172  0.1162
24780SOL    HW176972   7.479   4.730   8.296  1.2922  1.3070 -1.2624
24780SOL    HW276973   7.624   4.722   8.252  2.1268 -0.9205  1.5903
24781SOL     OW76974   9.099   8.696   3.540 -0.2793 -0.4267 -0.6193
24781SOL    HW176975   9.027   8.725   3.483 -0.4141 -0.5419 -0.5063
24781SOL    HW276976   9.055   8.653   3.613 -0.0939 -0.4917 -0.5481
24782SOL     OW76977   1.246   7.678   0.971 -0.8111  0.2369  0.2864
24782SOL    HW176978   1.283   7.766   0.981 -2.8457  1.1740  0.0436
24782SOL    HW276979   1.244   7.643   1.060 -0.7017  0.7324  0.4874
24783SOL     OW76980   2.649   7.821   7.733  0.3414 -0.0087 -0.1254
24783SOL    HW176981   2.695   7.905   7.743  0.4259 -0.0461 -0.1965
24783SOL    HW276982   2.667   7.774   7.815  0.4551 -0.0342 -0.1641
24784SOL     OW76983   8.577   8.607   1.575 -0.4685  0.1991  0.5720
24784SOL    HW176984   8.586   8.560   1.492  1.3962  0.7872  0.3726
24784SOL    HW276985   8.509   8.560   1.622 -0.3009 -1.2769 -0.5572
24785SOL     OW76986   8.701   8.241   8.020 -0.1140  0.5804  0.8712
24785SOL    HW176987   8.620   8.190   8.012  0.4421 -0.2250  0.1696
24785SOL    HW276988   8.677   8.329   7.993 -0.0927 -0.3137 -2.3947
24786SOL     OW76989   4.331   4.117   5.771 -0.0253 -0.0188 -0.2963
24786SOL    HW176990   4.419   4.156   5.773 -0.5853  1.2403  1.0309
24786SOL    HW276991   4.295   4.145   5.687  0.6861 -0.1958 -0.6684
24787SOL     OW76992   3.381   3.919   4.734  0.6547 -0.0101 -0.2188
24787SOL    HW176993   3.442   3.975   4.685 -0.5979  0.3219 -1.4926
24787SOL    HW276994   3.333   3.980   4.790  0.3444 -0.0293 -0.4642
24788SOL     OW76995   7.009   8.694   6.156 -0.3011 -0.2025 -0.0155
24788SOL    HW176996   6.992   8.642   6.077 -1.2755  0.1446 -0.0475
24788SOL    HW276997   7.103   8.684   6.171 -0.4036 -1.6719 -0.2265
24789SOL     OW76998   6.655   0.775   8.686 -0.3819  0.5271  0.4803
24789SOL    HW176999   6.577   0.812   8.644 -0.6590  0.4886  0.9509
24789SOL    HW277000   6.687   0.710   8.624 -0.2921  1.0675 -0.0481
24790SOL     OW77001   3.222   4.893   8.049  0.0488 -0.0906 -0.0888
24790SOL    HW177002   3.223   4.911   7.955  1.3325 -0.6872 -0.2202
24790SOL    HW277003   3.211   4.798   8.054  0.3259 -0.0976  0.3558
24791SOL     OW77004   0.140   4.582   6.451 -0.2892  0.3727  0.2862
24791SOL    HW177005   0.067   4.643   6.450 -1.2826 -0.7689  0.3162
24791SOL    HW277006   0.109   4.509   6.504  0.2384 -0.8765 -1.0523
24792SOL     OW77007   2.722   0.173   0.816  0.0217  0.3824  0.7300
24792SOL    HW177008   2.806   0.209   0.787 -0.6357  1.8993  0.6490
24792SOL    HW277009   2.679   0.245   0.862  0.0021 -1.2107  3.4462
24793SOL     OW77010   5.392   2.650   1.157  0.0520  0.5625  0.4581
24793SOL    HW177011   5.428   2.562   1.162 -0.8585  0.1798  0.5778
24793SOL    HW277012   5.468   2.708   1.159  0.7091 -0.2387 -0.4435
24794SOL     OW77013   9.947   3.189   8.555 -0.3961  0.3019  0.1025
24794SOL    HW177014   9.872   3.244   8.534 -0.7677  0.1418  0.9608
24794SOL    HW277015   9.980   3.223   8.638  0.1579  0.0416 -0.0060
24795SOL     OW77016   9.329   3.979   1.534 -0.0027  0.4576  0.4096
24795SOL    HW177017   9.320   3.884   1.541 -1.5121  0.6247  1.1112
24795SOL    HW277018   9.304   4.012   1.620  1.4812  1.4668  0.4996
24796SOL     OW77019   6.746   1.898   5.801  0.2652 -0.2666 -0.2625
24796SOL    HW177020   6.665   1.865   5.763 -0.0932 -1.2633  1.3010
24796SOL    HW277021   6.740   1.993   5.791 -0.9675 -0.3433 -0.4303
24797SOL     OW77022   1.766   4.298   8.183 -0.0375  0.6185 -0.5494
24797SOL    HW177023   1.775   4.393   8.184  0.3747  0.5886 -1.0767
24797SOL    HW277024   1.846   4.267   8.140 -0.7721  0.1071 -1.5847
24798SOL     OW77025   8.165   5.889   3.048  0.5507 -0.0124  0.8833
24798SOL    HW177026   8.157   5.796   3.068  1.2481 -0.1647  0.4723
24798SOL    HW277027   8.152   5.895   2.954 -0.5262  0.4423  1.0391
24799SOL     OW77028   0.901   2.822  10.057  0.7270  0.1393  0.5610
24799SOL    HW177029   0.944   2.878  10.122  0.4642  0.6904  0.2635
24799SOL    HW277030   0.808   2.828  10.078  0.7116 -0.3175  0.6300
24800SOL     OW77031   8.915   2.318   3.004 -1.0810  0.0484  0.0275
24800SOL    HW177032   8.971   2.290   3.076 -0.1938  0.0096 -0.6625
24800SOL    HW277033   8.930   2.412   2.997 -1.8078  0.1988  0.4320
24801SOL     OW77034   4.532   2.881   3.760 -0.1695 -0.0322  0.2631
24801SOL    HW177035   4.506   2.791   3.775 -0.9157  0.2541  0.7339
24801SOL    HW277036   4.623   2.885   3.789  1.0119 -1.4132 -2.7942
24802SOL     OW77037   3.466   8.828   4.033 -0.1749 -0.4455 -0.3724
24802SOL    HW177038   3.512   8.769   3.974  1.2375  1.2615 -1.0820
24802SOL    HW277039   3.406   8.877   3.976 -2.0655 -1.8117  0.3565
24803SOL     OW77040   1.941   2.737   4.353 -0.0427 -0.1604  0.7223
24803SOL    HW177041   1.884   2.784   4.414 -0.7630 -0.4120  0.2499
24803SOL    HW277042   1.884   2.711   4.281  0.8006  0.1418 -0.0761
24804SOL     OW77043   2.019   4.066   6.805 -0.2867  0.2303  1.1226
24804SOL    HW177044   2.007   4.032   6.717 -1.0660  1.8393  0.5713
24804SOL    HW277045   1.996   4.158   6.799  0.7058  0.6436  2.7745
24805SOL     OW77046   5.929   9.244   3.540 -0.4605 -0.8706 -0.1493
24805SOL    HW177047   5.858   9.282   3.592 -0.9634 -0.8373 -0.8362
24805SOL    HW277048   6.009   9.273   3.582 -0.8531 -0.0308  0.0252
24806SOL     OW77049   3.076   6.862   0.643 -0.4504  0.3004 -0.0602
24806SOL    HW177050   3.103   6.868   0.551  1.0160  1.1485  0.3874
24806SOL    HW277051   3.100   6.774   0.670  0.4968  0.5393 -0.0979
24807SOL     OW77052   3.628   2.230   1.050 -0.0307  0.0125  0.1145
24807SOL    HW177053   3.642   2.213   0.957 -0.6036 -0.8034  0.1755
24807SOL    HW277054   3.713   2.212   1.091 -0.1049 -0.8036 -0.0863
24808SOL     OW77055   2.260   9.994   0.067  0.5341 -0.0842 -0.6725
24808SOL    HW177056   2.348   9.986   0.031  1.0414 -2.1963  0.8219
24808SOL    HW277057   2.273  10.034   0.153 -0.1711  0.9790 -1.0361
24809SOL     OW77058   9.085   3.736   1.887  0.4663  0.1262 -0.1766
24809SOL    HW177059   9.031   3.797   1.937 -0.4159  0.1976 -1.1673
24809SOL    HW277060   9.054   3.650   1.914  2.8309 -0.0521  2.4717
24810SOL     OW77061   6.201   5.791   2.404  0.0076  0.0264 -0.0155
24810SOL    HW177062   6.178   5.884   2.400 -1.4893 -0.3266 -0.2502
24810SOL    HW277063   6.163   5.753   2.325 -1.1886 -1.1371  1.0660
24811SOL     OW77064   6.262   7.975   8.883  0.2345  0.1259  0.1144
24811SOL    HW177065   6.197   8.042   8.904 -1.9050 -1.3431 -1.4114
24811SOL    HW277066   6.326   8.019   8.826 -0.1503  1.2638  0.5443
24812SOL     OW77067   6.344   0.422   7.007  0.1127  0.0649  0.1151
24812SOL    HW177068   6.298   0.373   7.076 -0.0048 -0.4443 -0.3138
24812SOL    HW277069   6.435   0.425   7.036  0.1291 -0.4527  0.1247
24813SOL     OW77070   0.032   9.440   6.883 -0.2656 -0.3072 -0.4493
24813SOL    HW177071   0.013   9.485   6.800 -0.5343  1.4121  0.4912
24813SOL    HW277072  -0.050   9.446   6.932  0.5153  0.6512  0.7854
24814SOL     OW77073   9.500   1.444   4.334  0.3198 -0.4588  0.6028
24814SOL    HW177074   9.560   1.370   4.342  0.2546 -0.5855 -0.0431
24814SOL    HW277075   9.550   1.519   4.365  0.6416 -0.6468  0.5394
24815SOL     OW77076   4.915   8.301   4.470 -0.3238  0.0408  0.0182
24815SOL    HW177077   4.899   8.209   4.490 -1.8251  0.1304 -0.6239
24815SOL    HW277078   4.966   8.333   4.545  0.2801 -1.3075  0.2193
24816SOL     OW77079   9.121  10.062   4.118  0.1092 -0.1766  0.3272
24816SOL    HW177080   9.075  10.074   4.035  0.8166  0.9333  0.0745
24816SOL    HW277081   9.117  10.148   4.160  1.5414 -0.1658  0.5012
24817SOL     OW77082   4.679   5.123   3.699  0.0653 -0.4140 -0.4886
24817SOL    HW177083   4.607   5.182   3.677 -0.8120 -1.1261  0.3202
24817SOL    HW277084   4.635   5.041   3.724  1.1586 -0.8240  0.1614
24818SOL     OW77085   9.848   4.889   9.606  0.2636 -0.6813  0.0836
24818SOL    HW177086   9.873   4.980   9.590  0.8898 -0.8712 -0.0496
24818SOL    HW277087   9.864   4.876   9.699  0.0679 -0.6273  0.1267
24819SOL     OW77088   0.937   5.985   2.208 -0.0406  0.4022 -0.0507
24819SOL    HW177089   0.927   6.065   2.155 -0.8016  1.9923  2.3131
24819SOL    HW277090   1.027   5.991   2.242  0.5578 -0.7790 -1.3463
24820SOL     OW77091   7.705   8.445   6.722 -1.2995  0.2374 -0.4482
24820SOL    HW177092   7.624   8.491   6.698 -1.5257 -0.5651 -1.2927
24820SOL    HW277093   7.674   8.370   6.772 -0.9589  0.7684  0.5778
24821SOL     OW77094   1.668   9.190   2.180  0.1612  0.0321  0.2613
24821SOL    HW177095   1.757   9.170   2.153  0.1071  0.9073 -0.6091
24821SOL    HW277096   1.643   9.266   2.127 -1.4681 -0.8492 -0.3116
24822SOL     OW77097   4.126   0.453   8.998 -0.2323  0.5157 -0.2631
24822SOL    HW177098   4.147   0.546   8.991 -1.4476  1.1070  2.5817
24822SOL    HW277099   4.205   0.409   8.967  1.4422  2.5406  0.8076
24823SOL     OW77100   6.121   8.015   0.658 -0.2349 -0.3958  0.0606
24823SOL    HW177101   6.143   7.922   0.657 -0.3939 -0.4369 -0.7909
24823SOL    HW277102   6.105   8.035   0.750  0.9937 -0.9226  0.4101
24824SOL     OW77103   7.804   1.766  10.003 -0.5045 -0.1959 -0.7780
24824SOL    HW177104   7.878   1.727  10.050  1.0800  2.2257 -1.0865
24824SOL    HW277105   7.837   1.851   9.973 -3.0511  0.4464 -2.0046
24825SOL     OW77106   3.730   6.736   8.740 -0.1806 -0.0749  0.5425
24825SOL    HW177107   3.741   6.641   8.739 -0.2360 -0.0893  1.1623
24825SOL    HW277108   3.698   6.756   8.828 -2.4392  0.2877 -0.3155
24826SOL     OW77109   5.478   2.647   4.694 -0.0557 -0.4027 -0.1931
24826SOL    HW177110   5.464   2.593   4.616  1.0020 -0.3408 -0.4371
24826SOL    HW277111   5.523   2.725   4.662  1.3699 -0.8639  0.6176
24827SOL     OW77112   2.281   4.486   3.108  0.1070  0.5733 -0.1119
24827SOL    HW177113   2.307   4.398   3.132 -0.0539  1.1836  2.5874
24827SOL    HW277114   2.360   4.526   3.072  0.3149 -0.4568 -0.8528
24828SOL     OW77115   7.841   6.721   4.162  0.4055 -0.0001  0.3262
24828SOL    HW177116   7.792   6.662   4.220 -0.3279  0.3361  0.0546
24828SOL    HW277117   7.839   6.806   4.206 -2.0198  0.7969 -1.1666
24829SOL     OW77118   9.939   0.806   6.942 -0.0254  1.1662  0.2876
24829SOL    HW177119   9.991   0.813   7.022 -1.1556  1.7152  0.9996
24829SOL    HW277120   9.951   0.716   6.914  1.2919  1.2721  0.4297
24830SOL     OW77121   9.642  10.102   8.773  0.1815  0.6875 -0.1670
24830SOL    HW177122   9.617  10.194   8.780 -1.5947  0.2051  0.4561
24830SOL    HW277123   9.639  10.069   8.863 -1.4732 -0.4722 -0.5866
24831SOL     OW77124   1.247  10.101   7.386 -0.0762  0.1820  0.2226
24831SOL    HW177125   1.202  10.170   7.337 -0.4104  1.0446  1.6765
24831SOL    HW277126   1.180  10.035   7.403 -0.1313  0.2090  0.1103
24832SOL     OW77127   3.120   0.353   8.930  0.6613 -0.0698 -0.3101
24832SOL    HW177128   3.184   0.415   8.894  0.9263  0.4011  0.9262
24832SOL    HW277129   3.054   0.409   8.972  0.3629 -0.6018 -0.0716
24833SOL     OW77130   3.449   9.230   4.992 -0.1831 -0.3448  0.2287
24833SOL    HW177131   3.412   9.304   5.040  1.5060 -0.3970  1.7011
24833SOL    HW277132   3.457   9.261   4.902  0.3124  1.2067  0.7863
24834SOL     OW77133   9.548   8.175   6.846  0.0249 -0.5876 -0.3403
24834SOL    HW177134   9.588   8.106   6.900  0.0600  0.5954  1.2188
24834SOL    HW277135   9.602   8.178   6.767  1.8448 -0.3422  0.8703
24835SOL     OW77136   0.422   0.205   6.486  0.0033 -0.1130 -0.6611
24835SOL    HW177137   0.489   0.165   6.431 -0.4097 -1.8696  0.0446
24835SOL    HW277138   0.434   0.299   6.473  0.9324 -0.4235 -2.5130
24836SOL     OW77139   1.832   8.998   1.827  0.0145 -0.3258  0.3338
24836SOL    HW177140   1.885   8.988   1.906 -1.4724  1.7190  1.6887
24836SOL    HW277141   1.829   9.093   1.812  2.0916 -0.6672 -3.5597
24837SOL     OW77142   9.433   3.040   8.960 -0.3654  0.1970 -0.0840
24837SOL    HW177143   9.449   2.998   8.876  0.8015 -0.5208  0.4610
24837SOL    HW277144   9.428   2.967   9.022 -1.0388  0.7230  0.4904
24838SOL     OW77145   6.551   3.555   4.180  0.0410  0.1084 -0.1984
24838SOL    HW177146   6.499   3.635   4.179 -0.4098 -0.1765 -1.7887
24838SOL    HW277147   6.515   3.502   4.109  1.1619 -0.9691  0.0059
24839SOL     OW77148   9.643   1.692   7.061  0.1817 -0.3560 -0.7578
24839SOL    HW177149   9.667   1.636   7.134 -0.4149  0.3554  0.0063
24839SOL    HW277150   9.719   1.748   7.048 -0.0930  0.2221  0.0284
24840SOL     OW77151   3.375   0.786  10.211  0.2431 -0.3836  0.1721
24840SOL    HW177152   3.357   0.700  10.174 -0.6033 -0.2807  0.3212
24840SOL    HW277153   3.330   0.786  10.295 -0.1449  0.3592 -0.0224
24841SOL     OW77154   3.046   9.207   1.730 -0.6095  0.1794 -0.3382
24841SOL    HW177155   3.128   9.181   1.688 -1.2006 -0.8972 -0.8655
24841SOL    HW277156   3.020   9.288   1.684 -0.4187 -0.0994 -0.9522
24842SOL     OW77157   8.269   4.530   4.725  1.1392  0.1023  0.7820
24842SOL    HW177158   8.187   4.531   4.676  1.0683 -1.1157  0.8495
24842SOL    HW277159   8.331   4.485   4.668  1.5465  0.2953  1.0687
24843SOL     OW77160   9.552   8.737  10.305  0.5810 -0.0730 -0.7375
24843SOL    HW177161   9.517   8.825  10.295 -0.3500 -0.3579 -0.1241
24843SOL    HW277162   9.493   8.681  10.255  0.0645 -0.5728  0.3903
24844SOL     OW77163   6.006   5.253   2.387 -0.2315  0.0925  0.0452
24844SOL    HW177164   6.054   5.320   2.436  0.3779 -0.7167  0.5716
24844SOL    HW277165   6.074   5.193   2.356 -0.8701 -0.8637  0.4714
24845SOL     OW77166   4.225   3.893   4.608  0.2241 -0.3361  0.1156
24845SOL    HW177167   4.150   3.953   4.606 -0.3709 -1.0708 -0.8115
24845SOL    HW277168   4.298   3.946   4.639 -0.5758  0.5211  0.5825
24846SOL     OW77169   0.226   5.922   4.573  0.2149  0.0971  0.4855
24846SOL    HW177170   0.148   5.898   4.622  0.3022  0.3174  0.7360
24846SOL    HW277171   0.217   6.016   4.557 -1.5984 -0.5304 -3.1102
24847SOL     OW77172   9.124   6.966   0.561 -0.0339  0.8469 -0.1335
24847SOL    HW177173   9.216   6.949   0.540  0.6250  4.5164 -0.9045
24847SOL    HW277174   9.082   6.978   0.475 -0.6543  1.6969  0.2761
24848SOL     OW77175   1.886   3.726   9.663 -0.2911  0.5041 -0.7197
24848SOL    HW177176   1.955   3.661   9.646 -0.7158 -0.1880  0.1370
24848SOL    HW277177   1.914   3.804   9.615  0.7756  0.0344 -0.8835
24849SOL     OW77178   7.676   4.769   2.550 -0.3076 -0.5323 -0.0012
24849SOL    HW177179   7.690   4.675   2.553 -0.6156 -0.5581  1.7535
24849SOL    HW277180   7.582   4.780   2.562  0.0544  0.0194  3.4174
24850SOL     OW77181   2.240   3.825   6.019  0.3684  0.5527 -0.2260
24850SOL    HW177182   2.160   3.853   6.063 -0.2838 -0.2121 -0.8748
24850SOL    HW277183   2.215   3.818   5.927  0.6429 -1.5310 -0.1809
24851SOL     OW77184   6.439   9.932   4.362  0.3938 -0.6401  0.0152
24851SOL    HW177185   6.508   9.915   4.426 -1.1721 -2.1780  1.3829
24851SOL    HW277186   6.399   9.846   4.347 -2.9497  0.5426  1.3476
24852SOL     OW77187   2.802   9.014   7.789  0.2466 -0.3156  0.2091
24852SOL    HW177188   2.710   9.030   7.808  0.2823  0.6020 -0.3685
24852SOL    HW277189   2.806   8.921   7.764 -0.3590 -0.6051  1.1531
24853SOL     OW77190   1.753   5.583   2.604  0.2917 -0.5102 -0.1412
24853SOL    HW177191   1.829   5.529   2.625  0.2544 -0.3528  0.3980
24853SOL    HW277192   1.754   5.589   2.508  1.1835 -0.1730 -0.1114
24854SOL     OW77193   5.198   7.263   4.348 -0.0177  0.0566 -0.0841
24854SOL    HW177194   5.236   7.250   4.261  0.9847 -0.5340  0.4223
24854SOL    HW277195   5.246   7.203   4.404 -0.2505  0.8426  0.9933
24855SOL     OW77196   7.998   2.581   1.622  0.1807  0.0792 -0.2948
24855SOL    HW177197   8.034   2.494   1.637  0.1091 -0.1710 -1.5085
24855SOL    HW277198   7.905   2.573   1.641  0.4347  0.3363  1.2630
24856SOL     OW77199   2.460   1.728   8.056  0.2185 -0.0399 -0.1831
24856SOL    HW177200   2.539   1.674   8.045 -0.2388 -0.9992  1.0577
24856SOL    HW277201   2.487   1.799   8.114  0.3708  0.0915 -0.4119
24857SOL     OW77202   2.948   9.385   1.952  0.0169  0.5367  0.2097
24857SOL    HW177203   2.894   9.457   1.919 -0.2917  0.5408  0.7172
24857SOL    HW277204   2.986   9.345   1.873 -0.9287  0.3645 -0.1675
24858SOL     OW77205   2.124   0.189   1.660 -0.1904 -0.0352  0.4398
24858SOL    HW177206   2.161   0.241   1.732 -1.5685  1.8825 -0.1529
24858SOL    HW277207   2.058   0.246   1.621 -0.1670 -1.4032 -1.7498
24859SOL     OW77208   1.679   5.131   1.455  0.4092 -0.2862 -0.3789
24859SOL    HW177209   1.658   5.084   1.535 -0.5406 -1.4643 -1.2855
24859SOL    HW277210   1.775   5.137   1.455  0.5498 -2.1069 -0.1608
24860SOL     OW77211   6.320   7.515   9.766 -0.0828 -0.5699  0.0070
24860SOL    HW177212   6.296   7.570   9.841 -0.8680 -2.5537  1.3061
24860SOL    HW277213   6.274   7.554   9.692 -1.5685 -0.1121  1.1030
24861SOL     OW77214   7.307   5.862   7.889  0.0925  1.0086 -0.2084
24861SOL    HW177215   7.325   5.953   7.865 -3.8033  1.4484 -2.2129
24861SOL    HW277216   7.215   5.861   7.914  0.4582 -2.1320  1.5981
24862SOL     OW77217   6.590   0.132   6.039  0.2017  0.0427  0.0332
24862SOL    HW177218   6.601   0.224   6.061 -1.7773  0.8917 -2.1950
24862SOL    HW277219   6.523   0.101   6.101 -0.4715  0.6075 -0.4032
24863SOL     OW77220   7.332   1.800   4.954  0.1144  0.0002  0.0395
24863SOL    HW177221   7.381   1.864   5.005 -0.6980 -0.2170  1.1336
24863SOL    HW277222   7.281   1.752   5.019 -0.6532 -0.5507 -0.9436
24864SOL     OW77223   4.336   1.740   0.078 -0.0760  0.3258  0.0169
24864SOL    HW177224   4.430   1.729   0.063  0.0026  0.5363  0.3287
24864SOL    HW277225   4.295   1.727  -0.007  0.3192  1.1947 -0.3130
24865SOL     OW77226   0.958   1.013   2.924  0.4125  0.9463 -0.0432
24865SOL    HW177227   0.912   1.001   3.007 -0.8612 -3.4156 -1.1453
24865SOL    HW277228   0.889   1.014   2.858  1.5928 -0.5012 -1.3550
24866SOL     OW77229   8.781   2.887   7.698 -0.3667  0.2200 -0.1068
24866SOL    HW177230   8.724   2.900   7.622  1.8115 -2.0947 -2.3210
24866SOL    HW277231   8.749   2.806   7.738  1.1154 -0.9890 -1.2531
24867SOL     OW77232   7.852   2.157   8.440  0.0732  0.1013 -0.6668
24867SOL    HW177233   7.929   2.165   8.496  0.5720  0.4680 -1.3836
24867SOL    HW277234   7.860   2.070   8.402 -0.2591 -0.1430 -0.1817
24868SOL     OW77235   5.129   9.477   7.069  0.1607  0.1977  0.0462
24868SOL    HW177236   5.093   9.538   7.133 -1.2972 -1.2651  0.6849
24868SOL    HW277237   5.173   9.533   7.005  0.1234  1.8016  1.3577
24869SOL     OW77238   6.632   4.437  10.189 -0.4027 -0.1620  0.6060
24869SOL    HW177239   6.667   4.356  10.152 -0.9016 -0.0654 -0.0945
24869SOL    HW277240   6.630   4.421  10.284  1.2395 -0.2724  0.6414
24870SOL     OW77241   6.929   5.230   9.679 -0.4724  0.5853 -0.2617
24870SOL    HW177242   6.965   5.166   9.741 -0.4842  0.3553 -0.4927
24870SOL    HW277243   6.949   5.194   9.593  1.3976  1.9010 -0.4473
24871SOL     OW77244   0.872   6.605   7.729 -0.2110  0.3745 -0.6037
24871SOL    HW177245   0.955   6.587   7.772 -0.0198  0.4802 -0.9252
24871SOL    HW277246   0.895   6.617   7.636 -0.7065 -0.5378 -0.8482
24872SOL     OW77247   4.796   0.435   8.317 -0.3205 -0.2770 -0.6247
24872SOL    HW177248   4.723   0.420   8.258 -0.7704  0.7645 -0.3714
24872SOL    HW277249   4.795   0.361   8.377 -1.1749 -0.2862 -0.6337
24873SOL     OW77250   6.454   3.540   3.159  0.1863 -0.1467 -0.0206
24873SOL    HW177251   6.383   3.598   3.130 -0.7467  0.6479  3.3422
24873SOL    HW277252   6.481   3.493   3.080 -3.0538  0.6177 -1.7593
24874SOL     OW77253   6.649   3.062   4.670 -0.5987  0.6254  0.2936
24874SOL    HW177254   6.733   3.102   4.690 -0.5851  1.0335 -0.5188
24874SOL    HW277255   6.653   2.975   4.709  1.1276 -0.2808 -1.6956
24875SOL     OW77256   2.982   0.120   8.408 -0.8003  0.1829 -0.3330
24875SOL    HW177257   2.988   0.066   8.329  0.5073  2.8511 -2.2042
24875SOL    HW277258   2.889   0.115   8.433 -1.1101 -1.3039 -1.5886
24876SOL     OW77259   2.859   5.967   7.062 -0.3307 -0.4945  0.1608
24876SOL    HW177260   2.924   5.928   7.119 -1.0409  0.1654  1.4582
24876SOL    HW277261   2.780   5.913   7.073 -1.0189  0.6690  1.2301
24877SOL     OW77262   6.375   6.147   7.865  0.0880 -0.2195  0.1389
24877SOL    HW177263   6.333   6.124   7.782 -0.9755 -0.7490  0.7971
24877SOL    HW277264   6.305   6.138   7.930  0.2776  2.3999  0.8131
24878SOL     OW77265   5.454   7.101   9.360  0.0279  0.6916  0.1477
24878SOL    HW177266   5.506   7.036   9.408  1.0357  0.8966 -0.6195
24878SOL    HW277267   5.520   7.155   9.315 -0.7799  2.2345  0.7452
24879SOL     OW77268   4.370   4.741   5.956 -0.0230  0.0906 -0.5169
24879SOL    HW177269   4.463   4.757   5.941 -0.3523  0.2288 -2.6609
24879SOL    HW277270   4.329   4.827   5.946 -0.2781  0.3200  1.8733
24880SOL     OW77271   3.079   6.515   6.388  0.1201 -0.0910  0.0599
24880SOL    HW177272   3.087   6.421   6.400  3.0007 -0.0390 -0.8501
24880SOL    HW277273   3.006   6.540   6.446  0.9672 -2.4872  2.3541
24881SOL     OW77274   8.695   6.526   9.042 -0.2138 -0.1235 -0.4658
24881SOL    HW177275   8.699   6.488   9.130 -1.1360 -2.3071 -1.2803
24881SOL    HW277276   8.721   6.454   8.984  0.8019  1.3835 -1.9840
24882SOL     OW77277   1.703   0.076   4.982  0.0218 -1.1782  0.1535
24882SOL    HW177278   1.745   0.097   4.898  0.4577  1.4519  0.9240
24882SOL    HW277279   1.766   0.107   5.047 -2.0182  0.5984  1.3772
24883SOL     OW77280   3.845   7.510   9.122  0.2421 -0.2761  0.0012
24883SOL    HW177281   3.821   7.466   9.203 -0.0407  1.5622  0.9727
24883SOL    HW277282   3.906   7.579   9.149  1.9571 -1.0479 -1.6599
24884SOL     OW77283   4.804   3.807   7.278  0.0788 -0.0373 -0.2050
24884SOL    HW177284   4.772   3.736   7.335  2.9787 -1.7047 -0.4749
24884SOL    HW277285   4.805   3.768   7.191 -0.3857  1.1348 -0.7459
24885SOL     OW77286   4.708   8.984   7.897  0.3728  0.2005  0.0591
24885SOL    HW177287   4.777   8.949   7.953 -0.1380 -0.6266  0.1782
24885SOL    HW277288   4.721   9.079   7.900  0.9005  0.1108  0.8551
24886SOL     OW77289   6.809   9.903   0.319  0.7278 -0.0526 -0.5647
24886SOL    HW177290   6.821   9.940   0.407 -0.1590 -1.0078 -0.0186
24886SOL    HW277291   6.752   9.965   0.274  0.1587 -0.1915 -0.0372
24887SOL     OW77292   7.276   8.376   6.061 -0.0269  0.0944  0.2826
24887SOL    HW177293   7.247   8.387   6.152  3.9657  0.1951  1.7377
24887SOL    HW277294   7.254   8.285   6.040 -0.9346  0.0367  1.3510
24888SOL     OW77295   2.812   2.423  10.086  0.4687 -0.2297 -0.2587
24888SOL    HW177296   2.861   2.440  10.005  0.9471 -0.6459 -0.0607
24888SOL    HW277297   2.815   2.328  10.097 -0.7963 -0.3152 -0.4895
24889SOL     OW77298   1.172   9.195   9.600 -0.1035 -0.4405  0.1778
24889SOL    HW177299   1.220   9.145   9.666 -2.5056 -1.4959  1.2339
24889SOL    HW277300   1.197   9.286   9.617  0.9878 -0.8776  1.0959
24890SOL     OW77301   2.504   8.154   8.153  0.4284 -0.0813 -0.0762
24890SOL    HW177302   2.562   8.155   8.229 -0.0183  0.5525  0.2610
24890SOL    HW277303   2.436   8.218   8.173  0.6243  0.5394 -1.2658
24891SOL     OW77304   3.700   8.445   2.287  0.1757 -0.1473 -0.1124
24891SOL    HW177305   3.790   8.452   2.316 -0.3923  0.1940  1.6763
24891SOL    HW277306   3.680   8.351   2.291  0.2457 -0.1514  0.1292
24892SOL     OW77307   8.716   7.319   4.231  0.3301 -0.0498 -0.2421
24892SOL    HW177308   8.807   7.303   4.209  0.3155  0.4395 -0.6828
24892SOL    HW277309   8.719   7.374   4.309  0.4658  1.6473 -1.3848
24893SOL     OW77310   9.768   2.794   2.782 -0.4938 -0.4108 -0.4241
24893SOL    HW177311   9.787   2.829   2.869  1.3085 -0.9524 -0.5601
24893SOL    HW277312   9.693   2.846   2.751  0.6071  1.7426  0.3089
24894SOL     OW77313   1.085   1.994   0.447 -0.1557 -0.0759 -0.3574
24894SOL    HW177314   1.020   2.043   0.497  1.5875  1.8227  0.2096
24894SOL    HW277315   1.037   1.922   0.407 -2.0890 -0.1753  2.0049
24895SOL     OW77316   0.850   7.590   5.816 -0.4122  0.1263  0.5356
24895SOL    HW177317   0.834   7.684   5.814  0.3338  0.2623  0.8023
24895SOL    HW277318   0.926   7.577   5.759 -0.8789 -0.3943  0.0179
24896SOL     OW77319   4.945   2.180   5.866  1.1050 -0.1517  0.7945
24896SOL    HW177320   4.992   2.146   5.942  0.1021 -0.4806  1.2909
24896SOL    HW277321   4.858   2.202   5.900  0.8947  0.4235 -0.0957
24897SOL     OW77322   6.241   7.258   5.400  0.2019 -0.3853 -0.6264
24897SOL    HW177323   6.157   7.288   5.434 -1.7690 -2.7919 -2.9384
24897SOL    HW277324   6.287   7.338   5.374 -0.7839  1.0667  1.7591
24898SOL     OW77325   6.448   5.832   8.018 -0.1805 -0.2088  0.6613
24898SOL    HW177326   6.377   5.812   7.957  0.1774  0.7668 -0.1073
24898SOL    HW277327   6.528   5.810   7.969  0.0830 -0.2689  1.1137
24899SOL     OW77328   5.423   5.803   9.137  0.0794  0.1703  0.3812
24899SOL    HW177329   5.467   5.827   9.219 -0.2333 -1.1988  0.9887
24899SOL    HW277330   5.467   5.855   9.070 -2.0000  4.1698  1.7518
24900SOL     OW77331   5.672   2.291   3.622  0.2166  0.3217  0.0890
24900SOL    HW177332   5.713   2.348   3.687 -0.7611  3.0582 -1.5275
24900SOL    HW277333   5.744   2.266   3.564  0.6234  0.0424  0.6990
24901SOL     OW77334   1.521   0.788   0.799 -0.3379 -0.0481  0.1348
24901SOL    HW177335   1.453   0.777   0.732 -0.7057 -2.4799  0.8106
24901SOL    HW277336   1.474   0.823   0.875 -0.7117 -0.9835  0.3469
24902SOL     OW77337   3.285   1.069   0.794 -0.7033  0.2511  0.2256
24902SOL    HW177338   3.355   1.016   0.755 -0.0836  0.3679  1.1576
24902SOL    HW277339   3.262   1.023   0.874 -0.3169  1.2626  0.9359
24903SOL     OW77340   6.529   3.687   0.334 -0.3338 -0.0106  0.6531
24903SOL    HW177341   6.534   3.769   0.382  0.2950 -0.6946  1.8067
24903SOL    HW277342   6.524   3.713   0.242  0.4865  1.2993  0.9577
24904SOL     OW77343   1.512   3.230   4.967 -0.8409  0.2361 -0.0830
24904SOL    HW177344   1.461   3.152   4.989  0.3164 -0.0675  1.6269
24904SOL    HW277345   1.598   3.196   4.943 -0.0575  1.0042  1.5282
24905SOL     OW77346   3.509   7.619   4.578  0.4495 -0.0468  0.4562
24905SOL    HW177347   3.418   7.644   4.591  0.0593 -1.8120  1.5525
24905SOL    HW277348   3.558   7.672   4.641 -0.1146 -0.6161  1.4039
24906SOL     OW77349   4.299   9.117   4.429 -0.5505 -0.2561 -0.1272
24906SOL    HW177350   4.303   9.062   4.351  0.8351 -2.3729  1.3544
24906SOL    HW277351   4.242   9.070   4.489 -2.4748  1.8671 -0.1378
24907SOL     OW77352   5.681   2.469   3.344 -0.1462  0.0895 -0.0391
24907SOL    HW177353   5.691   2.512   3.259 -1.7291 -1.4374 -1.0744
24907SOL    HW277354   5.592   2.435   3.343 -0.6112  0.9586  2.7245
24908SOL     OW77355  10.195   2.889   5.874  0.1372 -0.2247 -0.3927
24908SOL    HW177356  10.198   2.975   5.834  0.5234 -0.1529 -0.2144
24908SOL    HW277357  10.115   2.849   5.840  0.7211 -0.3648 -1.6238
24909SOL     OW77358   5.335   6.458   0.035 -0.5006  0.3467 -0.0271
24909SOL    HW177359   5.313   6.517  -0.037 -0.9972 -0.8580 -0.9092
24909SOL    HW277360   5.300   6.501   0.113  0.4042  1.8700 -0.4278
24910SOL     OW77361   3.497   1.334   8.792 -0.5595  0.5052  0.7993
24910SOL    HW177362   3.405   1.353   8.807 -1.3201 -0.0543 -2.4367
24910SOL    HW277363   3.522   1.390   8.719  1.2578 -0.3733  0.6736
24911SOL     OW77364   7.123   2.032   5.021  0.1448  0.0911 -0.2042
24911SOL    HW177365   7.045   2.006   5.071  0.6957 -1.6365 -0.1952
24911SOL    HW277366   7.103   2.005   4.931  0.6154 -0.0935 -0.2535
24912SOL     OW77367   9.549   5.380   6.458 -0.4666 -0.3462 -0.3421
24912SOL    HW177368   9.486   5.342   6.397 -1.7766  0.4642  0.4669
24912SOL    HW277369   9.593   5.449   6.407 -3.2827  2.0344  0.2091
24913SOL     OW77370   6.680   1.696   8.375 -0.7648 -0.8308 -0.5709
24913SOL    HW177371   6.730   1.697   8.294 -1.8797  0.1661 -1.2706
24913SOL    HW277372   6.638   1.782   8.380 -0.8917 -0.9378  0.9602
24914SOL     OW77373   9.832   7.743   9.536 -0.4606  0.0068 -0.1048
24914SOL    HW177374   9.913   7.692   9.534 -0.1549  0.5132 -1.2237
24914SOL    HW277375   9.775   7.699   9.473 -0.6454  0.3370 -0.1652
24915SOL     OW77376   5.218   3.650   3.157  0.2709  0.0744 -0.0423
24915SOL    HW177377   5.307   3.676   3.182  1.1676 -2.5009 -0.2073
24915SOL    HW277378   5.210   3.677   3.066  2.1141 -2.2849 -1.0113
24916SOL     OW77379   8.007   7.916   2.163 -0.0866  0.1107  0.2174
24916SOL    HW177380   8.029   7.843   2.221 -0.7669 -0.5770 -0.3531
24916SOL    HW277381   8.091   7.948   2.131  0.2018 -1.5361 -0.8336
24917SOL     OW77382   5.105   0.866   8.413 -0.8221 -0.3841 -0.1201
24917SOL    HW177383   5.078   0.854   8.504  2.3908 -2.9078  0.6555
24917SOL    HW277384   5.061   0.795   8.366 -2.4551  0.9000 -0.6283
24918SOL     OW77385   4.418   8.708   8.762  0.3124  0.2838  0.1658
24918SOL    HW177386   4.333   8.747   8.780  0.1483  0.0780 -0.1481
24918SOL    HW277387   4.442   8.742   8.676  0.5669  0.3733  0.2719
24919SOL     OW77388   6.110   4.187   2.645 -0.1382  0.2028  0.3055
24919SOL    HW177389   6.186   4.211   2.593  0.1286 -1.5688 -0.1999
24919SOL    HW277390   6.089   4.098   2.617 -0.7647 -0.3444  2.3103
24920SOL     OW77391   5.509   2.288   1.980 -0.4618  0.2169 -0.4996
24920SOL    HW177392   5.482   2.365   2.030  0.4123  0.2449 -0.0375
24920SOL    HW277393   5.541   2.227   2.046 -0.4564 -0.2438 -0.9266
24921SOL     OW77394   8.970   4.321   2.565 -0.2086 -0.5978 -0.4678
24921SOL    HW177395   8.879   4.350   2.564 -0.1766 -0.4669  0.2132
24921SOL    HW277396   9.010   4.367   2.639  0.8581  0.6858 -1.7776
24922SOL     OW77397   7.032   1.909   2.559  0.3923  0.3682 -0.7029
24922SOL    HW177398   7.030   1.963   2.638  1.4181 -1.2979  0.5070
24922SOL    HW277399   6.988   1.963   2.493 -1.9135  1.2087  1.3540
24923SOL     OW77400   4.857   0.681   8.817  0.4663 -0.0714  0.0268
24923SOL    HW177401   4.796   0.656   8.886  1.0504  3.1220  1.9362
24923SOL    HW277402   4.905   0.601   8.797  0.2832 -1.2096  3.4054
24924SOL     OW77403   3.385   4.318   9.076  0.0497 -0.0461 -0.1830
24924SOL    HW177404   3.388   4.253   9.006  1.8424 -0.7229  0.4584
24924SOL    HW277405   3.325   4.281   9.141 -0.7506  0.0640 -0.8518
24925SOL     OW77406   3.415   9.369   1.091  0.2353 -0.2496 -0.1408
24925SOL    HW177407   3.486   9.420   1.052  0.3754 -0.1547  0.2351
24925SOL    HW277408   3.360   9.435   1.134  0.9081 -0.4827  1.1334
24926SOL     OW77409   8.973   0.073   7.942  0.0381  0.1419 -0.3934
24926SOL    HW177410   9.025   0.140   7.987 -2.1086  0.0796  2.4716
24926SOL    HW277411   8.911   0.122   7.889 -0.9481  0.5058  1.0160
24927SOL     OW77412   0.052   1.003   7.990  0.0206 -0.2808  0.3924
24927SOL    HW177413  -0.009   0.930   8.000  0.5030 -0.6330  0.7896
24927SOL    HW277414   0.033   1.038   7.903 -0.9662 -0.1807  0.6342
24928SOL     OW77415   9.557   5.632   5.841  0.1822 -0.0183 -0.2463
24928SOL    HW177416   9.560   5.576   5.919 -0.2945  0.2722 -0.0116
24928SOL    HW277417   9.641   5.677   5.841  0.6631 -0.8847 -0.5592
24929SOL     OW77418   7.746   4.376   5.298 -0.4717 -0.1082 -0.4851
24929SOL    HW177419   7.794   4.361   5.379 -0.1888  1.8810 -0.2161
24929SOL    HW277420   7.701   4.294   5.281 -0.8074 -0.4925  1.8632
24930SOL     OW77421   4.740   0.717   6.594 -0.7139 -0.4619  0.0741
24930SOL    HW177422   4.810   0.652   6.589 -0.9264 -0.7011  0.2005
24930SOL    HW277423   4.705   0.721   6.505  0.8110  1.1649 -0.4951
24931SOL     OW77424   7.982   6.406   7.085 -0.1587  0.1660 -0.0360
24931SOL    HW177425   7.904   6.362   7.118 -0.9816  1.4025 -0.2728
24931SOL    HW277426   7.988   6.379   6.993 -0.0982 -0.1992  0.0733
24932SOL     OW77427   9.895   1.965   7.454  0.0899  0.1764 -0.5176
24932SOL    HW177428   9.805   1.932   7.453  0.0075  0.3582  0.1248
24932SOL    HW277429   9.887   2.055   7.487  0.4880  0.2566 -0.6398
24933SOL     OW77430   4.842   6.243   6.263 -0.1879 -0.1262  0.2815
24933SOL    HW177431   4.886   6.327   6.252 -0.8092 -0.0091 -1.6688
24933SOL    HW277432   4.749   6.262   6.246 -0.4681 -1.0290  0.7595
24934SOL     OW77433   2.087   7.832   5.132  0.6980 -0.6664  0.0190
24934SOL    HW177434   2.069   7.758   5.189  0.8574 -1.1984 -0.6033
24934SOL    HW277435   2.021   7.898   5.156 -0.7918 -1.7831 -0.7876
24935SOL     OW77436   4.686   5.025   5.364 -0.3692  0.0310  0.0007
24935SOL    HW177437   4.775   5.017   5.399 -0.7946 -2.5027  0.7352
24935SOL    HW277438   4.693   5.090   5.294  2.1291 -0.3375 -0.1873
24936SOL     OW77439   2.609   0.951   9.406 -0.5049  0.0886  0.1085
24936SOL    HW177440   2.660   0.928   9.483 -1.1985  2.3836  1.3596
24936SOL    HW277441   2.535   0.890   9.407 -0.9685  0.6196  1.8279
24937SOL     OW77442   0.703   7.822   9.983  0.2239 -0.1676 -0.0322
24937SOL    HW177443   0.668   7.846  10.068 -1.4652 -0.8180 -0.5119
24937SOL    HW277444   0.654   7.744   9.957  0.7925 -0.0638 -1.5396
24938SOL     OW77445   4.276   8.866   8.476 -0.4601  0.4923 -0.1975
24938SOL    HW177446   4.211   8.796   8.482 -1.1365  0.8803 -2.1872
24938SOL    HW277447   4.238   8.938   8.526 -1.7614  0.8225 -1.5896
24939SOL     OW77448   7.268   5.857   9.987 -0.0805  0.0160  0.0882
24939SOL    HW177449   7.247   5.914   9.913  0.6824  0.8107  0.4710
24939SOL    HW277450   7.194   5.868  10.048 -0.9594 -1.0247 -0.7453
24940SOL     OW77451   8.582   4.726   3.672 -1.3916 -0.4813  0.5682
24940SOL    HW177452   8.521   4.736   3.746  0.7294 -0.6598  2.4684
24940SOL    HW277453   8.598   4.632   3.668  0.9840 -0.2198  2.1230
24941SOL     OW77454   0.829   4.165   8.120  0.1352 -0.1547  0.2740
24941SOL    HW177455   0.895   4.104   8.156 -0.6510 -0.5483  1.0875
24941SOL    HW277456   0.879   4.220   8.060  1.0990 -0.8400  0.4041
24942SOL     OW77457   2.114   3.799  10.024  0.5313 -0.1113 -0.1836
24942SOL    HW177458   2.092   3.708  10.003  1.2452 -0.4255  0.3920
24942SOL    HW277459   2.029   3.841  10.039  0.1387 -0.4457 -1.3466
24943SOL     OW77460   2.042   5.571   5.444 -0.2771 -0.3657 -0.4336
24943SOL    HW177461   1.969   5.524   5.483  0.5116 -0.7587  0.6417
24943SOL    HW277462   2.011   5.598   5.358 -2.0886  0.4710  0.4178
24944SOL     OW77463   3.625   1.423   9.748  0.0863  0.1155  0.6894
24944SOL    HW177464   3.705   1.438   9.798  2.5901  1.2196 -3.1432
24944SOL    HW277465   3.578   1.506   9.753  0.4997  0.3402  0.9311
24945SOL     OW77466   4.055   9.002   4.271  0.4341  0.2038  0.1814
24945SOL    HW177467   4.083   8.986   4.181  0.7973 -0.9196  0.4778
24945SOL    HW277468   4.060   8.916   4.314 -2.2119  0.1947  0.6190
24946SOL     OW77469   4.583   7.758   1.134 -0.4445 -0.1184  0.3625
24946SOL    HW177470   4.525   7.758   1.058  2.9921  0.2549 -2.5485
24946SOL    HW277471   4.570   7.844   1.174  0.1247  1.2129 -2.0685
24947SOL     OW77472   0.584   8.713   4.063 -0.9293  0.2115 -0.0450
24947SOL    HW177473   0.527   8.782   4.096  0.3926  0.0352  2.9010
24947SOL    HW277474   0.592   8.731   3.969 -0.8823  3.8599  0.5334
24948SOL     OW77475   7.745   4.022   7.989 -0.2893  0.2125  0.2638
24948SOL    HW177476   7.754   4.111   7.955 -2.1477  1.7553  3.3469
24948SOL    HW277477   7.817   4.012   8.051  0.2574 -0.7013 -0.4939
24949SOL     OW77478   8.793   6.552  10.119 -0.8232  0.0710 -0.1901
24949SOL    HW177479   8.809   6.472  10.069 -0.7543 -0.3516  0.4924
24949SOL    HW277480   8.700   6.570  10.106 -0.6200  0.4717 -1.1851
24950SOL     OW77481  10.237   1.773   5.260  0.1325 -0.3512 -0.2197
24950SOL    HW177482  10.271   1.684   5.272  3.0607  0.3698 -2.1543
24950SOL    HW277483  10.193   1.769   5.175 -1.0339 -0.2513  0.3626
24951SOL     OW77484   5.476   0.441   7.194 -0.4802  0.3215  0.6189
24951SOL    HW177485   5.533   0.447   7.118 -0.6321  2.2301  0.6133
24951SOL    HW277486   5.439   0.353   7.189  1.8149 -0.6901  0.1963
24952SOL     OW77487   6.604   8.252   7.943  0.1205 -0.1414 -0.6574
24952SOL    HW177488   6.607   8.338   7.985 -0.0762 -0.6041  0.3245
24952SOL    HW277489   6.654   8.195   8.001 -0.1282 -0.7916 -1.0693
24953SOL     OW77490   3.881   4.055   3.346 -0.2681 -0.4059 -0.2026
24953SOL    HW177491   3.974   4.072   3.360 -0.0520 -2.4490  1.3744
24953SOL    HW277492   3.858   4.104   3.267  1.6175  1.8396  0.5699
24954SOL     OW77493   1.808  10.319   9.127 -0.4866  0.4086  1.3245
24954SOL    HW177494   1.855  10.291   9.205  1.0365 -0.0827  0.2653
24954SOL    HW277495   1.839  10.261   9.057 -0.7456  1.7221  0.0553
24955SOL     OW77496   3.233   3.265   5.411 -0.0977 -0.0866  0.0638
24955SOL    HW177497   3.154   3.315   5.430 -0.8887 -1.5983  0.8929
24955SOL    HW277498   3.251   3.283   5.319 -0.6417  1.2898  0.1978
24956SOL     OW77499   6.783   8.983   4.276  0.3458  0.6334 -0.7063
24956SOL    HW177500   6.767   9.007   4.184 -1.2005  2.4138 -0.0271
24956SOL    HW277501   6.735   9.048   4.326  0.8644 -0.5329  1.3949
24957SOL     OW77502  10.085   3.174   3.411 -0.4244 -0.1057 -0.5796
24957SOL    HW177503  10.168   3.154   3.367 -1.0732 -0.2874 -1.7372
24957SOL    HW277504  10.111   3.189   3.502  0.7397 -1.3644 -0.6519
24958SOL     OW77505   2.955   5.811   1.720 -0.4329 -0.4151  0.1122
24958SOL    HW177506   2.984   5.882   1.778  0.1775 -0.7368  0.2089
24958SOL    HW277507   2.959   5.733   1.774  0.3271 -0.7514 -0.4071
24959SOL     OW77508   0.043   0.579   2.183  0.5382 -0.7633 -0.1532
24959SOL    HW177509  -0.009   0.550   2.258  1.2418 -0.7555  0.3556
24959SOL    HW277510   0.001   0.539   2.107 -1.2410  0.6526  0.0338
24960SOL     OW77511   1.922   5.818   3.638  0.3111 -0.2056 -0.5894
24960SOL    HW177512   1.885   5.852   3.719 -2.4208 -1.5188 -1.1484
24960SOL    HW277513   1.942   5.726   3.657  0.2964 -0.3404 -1.1893
24961SOL     OW77514   9.275   2.903   7.091 -0.0558  0.1420  0.1178
24961SOL    HW177515   9.241   2.959   7.021  0.0201  1.6986  1.2537
24961SOL    HW277516   9.202   2.846   7.115 -0.3394  0.1820 -0.6459
24962SOL     OW77517   1.217  10.252   2.183  0.1529  0.6265 -0.0079
24962SOL    HW177518   1.296  10.305   2.195 -0.0271  0.8182  0.3480
24962SOL    HW277519   1.225  10.182   2.248 -1.2650  2.1851  2.0182
24963SOL     OW77520  10.133   9.509   6.945 -0.0469 -0.3189  0.1256
24963SOL    HW177521  10.097   9.553   6.868  0.7913 -0.6967 -0.5091
24963SOL    HW277522  10.057   9.477   6.992 -0.7917  2.8738  1.3386
24964SOL     OW77523   9.628   0.387   1.781  0.4612 -0.5343  0.1041
24964SOL    HW177524   9.554   0.377   1.721 -0.1123 -1.4137  0.9291
24964SOL    HW277525   9.652   0.479   1.774  0.3430 -0.5999 -1.3976
24965SOL     OW77526   7.811   6.266   5.806  0.6946 -0.2770  0.2538
24965SOL    HW177527   7.830   6.357   5.786 -0.5794 -0.3924 -1.8084
24965SOL    HW277528   7.726   6.268   5.849  1.1718 -0.4396  1.2423
24966SOL     OW77529   6.886   6.534   5.736 -0.4455 -0.5589 -0.4082
24966SOL    HW177530   6.891   6.596   5.809 -0.3867 -0.9212 -0.1029
24966SOL    HW277531   6.977   6.518   5.712 -0.4740 -0.1172 -0.8446
24967SOL     OW77532   1.137   6.596   7.819  0.3683  0.1654 -0.5040
24967SOL    HW177533   1.186   6.522   7.783  1.2707  0.8429 -0.7111
24967SOL    HW277534   1.195   6.633   7.885 -0.2756  0.4060 -0.0586
24968SOL     OW77535   8.129  10.091   9.385  0.1051 -0.0830 -0.1386
24968SOL    HW177536   8.141  10.165   9.326  2.4241 -0.3359 -0.0539
24968SOL    HW277537   8.141  10.014   9.329  1.7347 -0.3260  0.4927
24969SOL     OW77538   3.492   3.837   1.382 -0.0553  0.0329 -0.1885
24969SOL    HW177539   3.538   3.910   1.340  0.5398 -0.1675  0.1024
24969SOL    HW277540   3.405   3.839   1.343 -0.7300  2.1345  1.2415
24970SOL     OW77541  10.041   8.415   4.101 -0.3359 -0.1594  0.3256
24970SOL    HW177542  10.029   8.320   4.100  2.9834 -0.7135 -1.6976
24970SOL    HW277543   9.991   8.447   4.026  1.9368 -1.0011 -1.6720
24971SOL     OW77544   9.017   7.645   6.324 -0.4428  0.1561  0.5477
24971SOL    HW177545   8.985   7.630   6.236 -0.2829  1.7623  0.1709
24971SOL    HW277546   8.941   7.675   6.373 -0.1200  1.3365  0.3661
24972SOL     OW77547   4.927   4.973   4.392 -0.2147  0.2645 -0.3018
24972SOL    HW177548   4.869   4.951   4.466 -1.5174 -1.0059 -1.6340
24972SOL    HW277549   4.869   4.975   4.316  1.3648 -0.2465 -1.5704
24973SOL     OW77550   1.306   1.931  10.354 -0.1711 -0.7874 -0.5506
24973SOL    HW177551   1.335   1.977  10.433 -0.7041 -1.7105  0.2011
24973SOL    HW277552   1.371   1.955  10.288  0.2449  0.0605  0.1391
24974SOL     OW77553   6.665   0.924   6.559  0.7913 -0.2683  0.1109
24974SOL    HW177554   6.714   0.932   6.641  0.9190 -0.5675  0.0646
24974SOL    HW277555   6.632   1.012   6.542 -0.9212 -0.5852  1.5263
24975SOL     OW77556   2.227   9.801   2.841  0.5508  0.0865 -0.1508
24975SOL    HW177557   2.245   9.756   2.923 -1.2182 -2.9505 -1.2768
24975SOL    HW277558   2.314   9.824   2.807  1.4754 -1.0882  1.2784
24976SOL     OW77559   6.863   0.803   5.057  0.2635 -0.2703  0.3495
24976SOL    HW177560   6.875   0.890   5.096  0.0586 -0.2733  0.4222
24976SOL    HW277561   6.925   0.801   4.984 -0.2503  0.2198 -0.1090
24977SOL     OW77562   2.758   9.450   3.672 -0.1977 -0.6291  0.1774
24977SOL    HW177563   2.761   9.475   3.580 -0.9985 -1.7565 -0.1693
24977SOL    HW277564   2.849   9.451   3.700  0.4623 -3.3099 -1.4878
24978SOL     OW77565   2.899   2.026   9.824 -0.1745  0.2124 -0.8791
24978SOL    HW177566   2.876   1.935   9.809  1.0177  0.0376 -1.8217
24978SOL    HW277567   2.993   2.024   9.845 -0.7138  0.9523  2.0730
24979SOL     OW77568   0.571   1.722   1.697 -0.3265 -0.1233 -0.2736
24979SOL    HW177569   0.547   1.634   1.726 -0.1561 -0.5223 -1.3124
24979SOL    HW277570   0.494   1.775   1.718 -0.5993 -0.6069 -0.0290
24980SOL     OW77571   0.112   4.832  10.085  0.0443 -0.5102 -0.3471
24980SOL    HW177572   0.203   4.805  10.074 -0.1910 -1.3292 -0.3388
24980SOL    HW277573   0.069   4.804  10.004  0.1423  1.4826 -1.1616
24981SOL     OW77574   5.833   1.112  10.268 -0.1605 -0.0651 -0.1286
24981SOL    HW177575   5.810   1.202  10.246  4.2642  1.8541  1.7801
24981SOL    HW277576   5.877   1.078  10.190 -1.7714 -0.6563 -0.8250
24982SOL     OW77577   5.922   3.180   1.660  0.4876 -0.2312 -0.3861
24982SOL    HW177578   5.982   3.157   1.731 -0.8109  0.2652  0.9389
24982SOL    HW277579   5.978   3.217   1.592  1.6593  0.4546  0.8975
24983SOL     OW77580   8.680   4.311   1.802  0.6838 -0.0482 -0.3348
24983SOL    HW177581   8.624   4.343   1.732 -0.1341  0.4551  0.5348
24983SOL    HW277582   8.679   4.216   1.792  0.4818  0.0104 -0.9284
24984SOL     OW77583   5.077   0.516   9.828 -0.5547 -0.3280  0.0800
24984SOL    HW177584   5.155   0.569   9.847 -1.1559  0.8509 -0.6038
24984SOL    HW277585   5.020   0.531   9.903 -0.5989 -0.2646  0.0335
24985SOL     OW77586   8.021   5.626   7.981 -0.6865 -0.2838 -0.1485
24985SOL    HW177587   7.951   5.630   7.917  1.6947  0.2062 -2.9533
24985SOL    HW277588   8.055   5.536   7.973  0.7881  0.3099 -1.0193
24986SOL     OW77589   4.694   7.537   4.750  0.3279  0.1087  0.0916
24986SOL    HW177590   4.706   7.448   4.718  0.5487  0.3713 -0.5805
24986SOL    HW277591   4.773   7.583   4.721  0.7283  0.2689  1.3595
24987SOL     OW77592   4.306   4.776   1.007 -0.0833  0.2600  0.1670
24987SOL    HW177593   4.274   4.729   1.084  0.1058 -0.3767 -0.1375
24987SOL    HW277594   4.303   4.712   0.936  2.6889 -0.1366  0.3007
24988SOL     OW77595   8.640   8.792   6.342 -0.2414 -0.1972 -0.3989
24988SOL    HW177596   8.663   8.763   6.254  0.8914 -4.0795  0.9620
24988SOL    HW277597   8.563   8.740   6.365 -0.3732  0.5683  1.0120
24989SOL     OW77598   4.210   6.308   5.037  0.1512 -0.0923  0.5152
24989SOL    HW177599   4.152   6.338   4.967  0.5067  1.3124  0.7998
24989SOL    HW277600   4.160   6.240   5.082 -1.1297  0.8137  0.5092
24990SOL     OW77601   7.496   8.182   2.958 -0.0879  0.1370 -0.0094
24990SOL    HW177602   7.432   8.112   2.964  0.8045 -0.5960  1.3912
24990SOL    HW277603   7.458   8.244   2.894 -2.3349 -0.0857  1.0234
24991SOL     OW77604   8.091   9.148   2.978  0.1494  0.3931  0.4996
24991SOL    HW177605   8.137   9.167   2.896  0.5720  1.5498  0.9752
24991SOL    HW277606   8.094   9.231   3.027  0.1416 -0.3362  1.7969
24992SOL     OW77607   1.244   1.695   0.112 -0.5229  0.5197  0.1570
24992SOL    HW177608   1.250   1.786   0.082  0.3187  0.2563 -0.5124
24992SOL    HW277609   1.283   1.696   0.200  0.8803  0.5477 -0.4453
24993SOL     OW77610   4.049   0.884   7.496  0.2735  0.0590 -0.2593
24993SOL    HW177611   4.083   0.804   7.457 -1.4851 -0.9815  0.2181
24993SOL    HW277612   3.956   0.886   7.470 -0.0933  1.1272  1.0162
24994SOL     OW77613   9.564   2.347   2.075 -0.2420  0.1081 -0.2692
24994SOL    HW177614   9.528   2.423   2.030 -1.8970  0.2411  1.1752
24994SOL    HW277615   9.542   2.273   2.019  0.4742  0.5627 -1.1777
24995SOL     OW77616   5.994   3.621   1.929  0.0722 -0.2280 -0.6606
24995SOL    HW177617   5.927   3.621   1.997  0.0518 -0.3642 -0.6797
24995SOL    HW277618   6.048   3.698   1.948 -0.1557 -0.0529 -0.7109
24996SOL     OW77619   3.902   5.503   4.991  0.0288  0.5053 -0.2751
24996SOL    HW177620   3.986   5.545   5.010 -0.2026  0.1908  1.5457
24996SOL    HW277621   3.854   5.568   4.939  1.2187  0.8441 -0.9883
24997SOL     OW77622   2.279   4.925   8.291 -0.3043 -0.7662  0.2753
24997SOL    HW177623   2.195   4.886   8.314 -0.0301 -0.8188  1.2785
24997SOL    HW277624   2.321   4.941   8.376  0.6800 -0.7129 -0.2067
24998SOL     OW77625   4.026   8.017   2.888  0.5395 -0.6176 -0.4015
24998SOL    HW177626   3.930   8.015   2.880  0.4282 -3.4846  0.3320
24998SOL    HW277627   4.044   8.089   2.948 -1.2257 -0.3807 -0.0996
24999SOL     OW77628  10.191   9.075   9.380 -0.3676 -0.5295  0.3171
24999SOL    HW177629  10.224   9.160   9.409  1.6433 -1.1034 -0.0855
24999SOL    HW277630  10.100   9.074   9.407 -0.9714  2.4291 -1.0996
25000SOL     OW77631   4.218   7.480   9.460  1.2005  0.6931 -0.1519
25000SOL    HW177632   4.274   7.540   9.509 -0.5512  1.2196  1.3550
25000SOL    HW277633   4.245   7.490   9.369  2.3995  2.1584  0.3281
25001SOL     OW77634   7.682   8.332   0.064  0.1131 -0.0132  0.2820
25001SOL    HW177635   7.763   8.307   0.020 -0.0973 -2.7942  1.3048
25001SOL    HW277636   7.683   8.283   0.146 -2.7098 -0.3410  0.2214
25002SOL     OW77637   4.227   4.876   0.005 -0.4193  0.0826 -0.2647
25002SOL    HW177638   4.189   4.963   0.020  2.3685  1.3932 -0.1292
25002SOL    HW277639   4.200   4.825   0.081 -0.9027  1.2823  0.4084
25003SOL     OW77640   7.234   4.077   3.917 -0.3258 -0.4635  0.0787
25003SOL    HW177641   7.155   4.023   3.924  0.3273 -1.2539  2.2115
25003SOL    HW277642   7.213   4.155   3.969  0.1696 -0.5269  0.3780
25004SOL     OW77643   3.531   9.533   4.429  0.0201  0.1887 -0.3928
25004SOL    HW177644   3.605   9.592   4.422  0.2497 -0.2200 -1.5848
25004SOL    HW277645   3.462   9.573   4.375 -0.6336  0.5473  0.6688
25005SOL     OW77646   6.853   2.777  10.180 -0.5978 -0.4463 -0.2049
25005SOL    HW177647   6.934   2.749  10.138 -0.3827  0.9253 -0.7607
25005SOL    HW277648   6.785   2.762  10.114 -0.2963  1.4689 -1.0058
25006SOL     OW77649   4.876   6.605   7.353  0.1480 -0.2944 -0.1566
25006SOL    HW177650   4.873   6.515   7.384 -0.2573 -0.9004 -1.8541
25006SOL    HW277651   4.969   6.629   7.358  0.0855 -0.3063  1.5702
25007SOL     OW77652   5.142   3.353   5.753 -0.0266  0.1576  0.3708
25007SOL    HW177653   5.217   3.347   5.694  0.8625  2.1692  1.1841
25007SOL    HW277654   5.155   3.283   5.816  1.4519  0.7271  0.7490
25008SOL     OW77655   8.716   6.743   4.002  0.2957 -0.0656  0.1391
25008SOL    HW177656   8.763   6.685   4.062  1.5509  1.5501  0.7848
25008SOL    HW277657   8.652   6.789   4.056 -1.4339 -1.5142 -0.5593
25009SOL     OW77658   5.823   3.015   6.644  0.3400 -0.1425 -0.0607
25009SOL    HW177659   5.764   3.080   6.607  0.7835  0.0437 -0.4480
25009SOL    HW277660   5.816   3.028   6.739 -0.0720  0.0242 -0.1119
25010SOL     OW77661   5.269   3.043   6.158  0.2200  0.2185  0.2313
25010SOL    HW177662   5.358   3.072   6.138  0.3090  0.4342  0.8971
25010SOL    HW277663   5.280   2.964   6.210  0.0682  0.8821  1.3130
25011SOL     OW77664   0.312   2.621   5.286 -0.2367  0.5100  0.0558
25011SOL    HW177665   0.358   2.664   5.357 -2.7875  1.3463  1.3162
25011SOL    HW277666   0.320   2.681   5.212  1.5184  0.1355 -0.0999
25012SOL     OW77667   9.645   6.269   9.112  0.5712 -0.1656 -0.2717
25012SOL    HW177668   9.702   6.254   9.037  1.1634 -0.8476  0.2944
25012SOL    HW277669   9.661   6.193   9.169  0.6659  0.6778  0.8512
25013SOL     OW77670   6.992   6.352   5.921 -0.2166  0.2348 -0.1656
25013SOL    HW177671   7.024   6.351   6.012  0.3687  0.8289 -0.3499
25013SOL    HW277672   7.068   6.380   5.870  0.3879 -3.0166 -1.2444
25014SOL     OW77673   8.050   0.150   2.725  0.5232 -0.2642  0.1791
25014SOL    HW177674   7.963   0.186   2.742  0.4764 -0.7867  1.0770
25014SOL    HW277675   8.100   0.224   2.689 -0.2613  0.0590 -0.2507
25015SOL     OW77676   9.546   9.234   7.542 -0.2192  0.5231  0.5692
25015SOL    HW177677   9.471   9.255   7.486  0.4752  0.2496 -0.5110
25015SOL    HW277678   9.621   9.272   7.496  0.3812  0.2176  1.2795
25016SOL     OW77679   1.793   6.735   0.813  0.0771 -0.4473  0.1337
25016SOL    HW177680   1.849   6.786   0.754  1.0896 -1.8302 -0.1661
25016SOL    HW277681   1.846   6.659   0.835 -1.9841 -2.2498 -0.7913
25017SOL     OW77682   1.967  10.219   9.822 -0.5324  0.1492  0.0111
25017SOL    HW177683   1.888  10.218   9.876  0.6602 -1.6821  1.8874
25017SOL    HW277684   2.034  10.255   9.880  0.6839 -1.4202 -0.3675
25018SOL     OW77685   7.953   7.843   6.336 -0.3537  0.2498 -0.1251
25018SOL    HW177686   7.913   7.928   6.320 -1.5628 -0.4314 -0.8433
25018SOL    HW277687   8.045   7.855   6.313 -0.3663  1.5086  0.3626
25019SOL     OW77688   5.161   5.244   0.427 -0.2958 -0.1474 -0.7805
25019SOL    HW177689   5.190   5.162   0.388 -0.1309 -1.2293  1.4826
25019SOL    HW277690   5.191   5.240   0.518 -1.9124  1.5814 -0.0977
25020SOL     OW77691   8.530   1.045   2.836  0.3099 -0.6665 -0.3369
25020SOL    HW177692   8.620   1.017   2.824  1.1888  1.7970 -0.0699
25020SOL    HW277693   8.514   1.108   2.766 -0.6190  0.1828  0.5973
25021SOL     OW77694   5.256   1.707   1.358 -0.6444  0.0722  0.1801
25021SOL    HW177695   5.281   1.631   1.411  0.2106  0.5024  0.4168
25021SOL    HW277696   5.319   1.775   1.382 -1.4770  0.9117  0.0811
25022SOL     OW77697   9.540   3.460   9.611 -0.5604  0.0253 -0.2961
25022SOL    HW177698   9.547   3.539   9.663 -0.3230  0.5850 -1.1552
25022SOL    HW277699   9.505   3.489   9.527 -2.4600 -1.0723  0.0550
25023SOL     OW77700   5.530   4.081   7.823 -0.4565  0.6841  0.1670
25023SOL    HW177701   5.447   4.035   7.828  0.0357 -0.2371  0.0258
25023SOL    HW277702   5.587   4.023   7.772 -0.1510  1.9421 -0.9830
25024SOL     OW77703   0.170   4.826   1.748 -0.6436  0.2410 -0.1766
25024SOL    HW177704   0.090   4.877   1.734  0.4557  2.1662  0.1062
25024SOL    HW277705   0.215   4.871   1.819  1.4578  0.2435 -1.4088
25025SOL     OW77706   6.095   4.768   6.090  0.1122  0.7413 -0.5988
25025SOL    HW177707   6.017   4.735   6.046 -1.6096  2.6461  0.8522
25025SOL    HW277708   6.079   4.751   6.183  0.5779  2.7564 -0.1070
25026SOL     OW77709   7.941   8.770   2.778 -0.2169  0.3393 -0.1420
25026SOL    HW177710   7.950   8.858   2.742  0.9786 -0.0058 -0.7559
25026SOL    HW277711   7.932   8.714   2.701 -2.6379  0.0562  0.2780
25027SOL     OW77712   6.390   1.503   7.938 -0.5415  0.5101 -0.4488
25027SOL    HW177713   6.342   1.477   8.016 -1.0736  0.3793 -0.8162
25027SOL    HW277714   6.414   1.420   7.896 -1.4784  0.5884 -1.1599
25028SOL     OW77715   4.951   3.963   0.549  0.0587 -0.1106  0.2529
25028SOL    HW177716   4.873   3.918   0.518 -0.2578 -0.4684  1.5364
25028SOL    HW277717   4.927   3.999   0.634  1.5177 -0.8537  1.0172
25029SOL     OW77718   5.825   5.656   3.820 -0.4005 -0.2314  0.5012
25029SOL    HW177719   5.781   5.597   3.882  0.3158 -1.2557  0.0548
25029SOL    HW277720   5.771   5.736   3.821 -0.3898 -0.1900  2.4625
25030SOL     OW77721   7.340   4.074   8.170 -0.2381  0.2642  0.8474
25030SOL    HW177722   7.318   4.162   8.201 -0.6513  0.2996  0.4708
25030SOL    HW277723   7.421   4.087   8.120 -0.0436  0.3524  1.1867
25031SOL     OW77724   5.248   9.577   5.666 -0.0084  0.4854 -0.6696
25031SOL    HW177725   5.242   9.522   5.744  1.4636 -0.6285 -1.2860
25031SOL    HW277726   5.183   9.540   5.606  0.9172 -0.5978 -1.0502
25032SOL     OW77727   5.803   5.621   4.645  0.3582 -0.2871 -0.4060
25032SOL    HW177728   5.732   5.677   4.678 -1.5082 -0.8364 -3.1335
25032SOL    HW277729   5.858   5.605   4.721 -1.6157  1.4041  1.5272
25033SOL     OW77730   7.541   5.334  10.181  0.4779  0.0235  0.5637
25033SOL    HW177731   7.477   5.277  10.224  0.7087 -0.9361 -0.3163
25033SOL    HW277732   7.490   5.410  10.153 -0.2499 -0.6163  0.0916
25034SOL     OW77733   2.518   6.577  10.056  0.5386  0.0420 -0.3271
25034SOL    HW177734   2.528   6.671  10.042  0.4693 -0.1092 -1.5558
25034SOL    HW277735   2.542   6.563  10.147 -0.6864  1.4299  0.2370
25035SOL     OW77736   9.238   0.369   1.025  0.4175  0.6431  0.2067
25035SOL    HW177737   9.154   0.335   1.056  0.7050  1.9082  2.6567
25035SOL    HW277738   9.218   0.412   0.942 -0.8675 -1.1047 -0.4338
25036SOL     OW77739   2.069   0.026   7.625 -0.0108 -0.3369 -0.0989
25036SOL    HW177740   2.083  -0.027   7.704  1.3330 -0.1646 -0.2150
25036SOL    HW277741   1.975   0.014   7.606  0.1861 -2.4993 -0.0104
25037SOL     OW77742   5.139   6.783   9.411  0.4117  0.2119 -0.0067
25037SOL    HW177743   5.232   6.802   9.404  0.4186  0.5498  0.8552
25037SOL    HW277744   5.108   6.841   9.481 -0.3673 -0.1531 -0.0401
25038SOL     OW77745   5.864   0.856   2.480  0.1606 -0.0912 -0.5554
25038SOL    HW177746   5.787   0.856   2.422 -1.6555  1.5333  1.6768
25038SOL    HW277747   5.839   0.799   2.552  2.6087 -2.5341 -1.4655
25039SOL     OW77748   8.687   1.809   5.952 -0.0632  0.4802  0.1963
25039SOL    HW177749   8.726   1.896   5.965  1.7212 -0.1401 -0.6583
25039SOL    HW277750   8.641   1.816   5.868 -1.4979  1.0762  0.9844
25040SOL     OW77751   9.197   9.695   1.814 -0.1207 -0.3667  0.4938
25040SOL    HW177752   9.168   9.770   1.867 -0.0793 -0.6383  0.9037
25040SOL    HW277753   9.186   9.724   1.724  0.7482  0.4777  0.6432
25041SOL     OW77754   5.974   1.954   6.199  0.0327 -0.7110  0.1176
25041SOL    HW177755   5.975   2.010   6.276  1.4667 -2.4972  1.4803
25041SOL    HW277756   6.048   1.984   6.146 -0.9021  0.4586 -0.5812
25042SOL     OW77757   9.068   5.018   1.483  0.7521  0.0133 -0.3255
25042SOL    HW177758   9.066   4.945   1.545  0.1898 -0.9506 -1.4517
25042SOL    HW277759   9.143   5.070   1.510  1.4695 -1.2459  0.1866
25043SOL     OW77760   7.594   8.068   8.374  0.1433  0.2470  0.2394
25043SOL    HW177761   7.600   8.154   8.331  1.1704  0.5400  0.9327
25043SOL    HW277762   7.514   8.030   8.338  1.3811  0.0818 -2.6679
25044SOL     OW77763   4.452   7.472   8.983  0.0337 -0.2994  0.1997
25044SOL    HW177764   4.467   7.548   8.927 -1.0993  0.4141  0.8012
25044SOL    HW277765   4.391   7.417   8.933 -0.0343 -0.2571  0.2366
25045SOL     OW77766   2.027   6.326   7.462 -0.3560 -0.2693 -0.3975
25045SOL    HW177767   2.009   6.232   7.463 -1.4251 -0.1052 -1.7149
25045SOL    HW277768   2.001   6.356   7.549  1.7280 -1.4449  0.7339
25046SOL     OW77769   9.928   4.347   7.137  0.9495  0.2559  0.3104
25046SOL    HW177770   9.981   4.397   7.075  1.4745  0.5710  0.9971
25046SOL    HW277771   9.864   4.409   7.170  0.5067  0.0213 -0.1023
25047SOL     OW77772   7.034   8.167   3.950 -0.3616  0.1842 -0.6721
25047SOL    HW177773   6.996   8.106   3.887  0.9035 -1.4094  0.0323
25047SOL    HW277774   6.971   8.239   3.955 -1.4789 -0.6300 -2.1938
25048SOL     OW77775   8.654   5.653   2.408 -0.0356 -0.0169 -0.4195
25048SOL    HW177776   8.623   5.617   2.491 -0.8334 -2.0371 -1.5186
25048SOL    HW277777   8.680   5.742   2.429 -1.9599  0.1588  1.6209
25049SOL     OW77778   8.125   6.689   8.391  0.1987 -0.5295  0.4171
25049SOL    HW177779   8.122   6.615   8.330  1.7712  0.4536 -0.9211
25049SOL    HW277780   8.169   6.653   8.468  1.6798 -0.8397 -0.5248
25050SOL     OW77781   9.521   8.805   9.948 -0.1637  0.4863  0.1648
25050SOL    HW177782   9.483   8.893   9.950 -1.5010 -0.0712  0.0711
25050SOL    HW277783   9.505   8.773   9.860 -0.1625 -0.0464  0.3514
25051SOL     OW77784   0.573   3.350   5.624  0.4435 -0.4527 -0.1006
25051SOL    HW177785   0.614   3.363   5.710 -1.2291 -0.5123  0.7499
25051SOL    HW277786   0.523   3.430   5.609 -1.5033 -1.5200  0.3222
25052SOL     OW77787   1.410   4.456   0.022 -1.0656  0.1900  0.0719
25052SOL    HW177788   1.388   4.543  -0.011  1.0245  0.8508  0.2803
25052SOL    HW277789   1.446   4.472   0.109 -0.9528 -0.9296  0.2503
25053SOL     OW77790   5.644   9.457   2.506  0.3433 -0.4988 -0.4571
25053SOL    HW177791   5.672   9.399   2.435  0.6009  1.3242 -1.9309
25053SOL    HW277792   5.572   9.508   2.469  1.9491  2.0925 -0.2640
25054SOL     OW77793   0.003   3.123   5.555 -0.2538  0.0632 -0.1116
25054SOL    HW177794   0.035   3.033   5.565 -0.3426  0.0333 -0.0929
25054SOL    HW277795  -0.087   3.113   5.525 -0.8632  0.1140  1.5599
25055SOL     OW77796   3.540   1.196   2.190  0.3952 -0.1895  0.4447
25055SOL    HW177797   3.519   1.107   2.218  0.2679 -0.6394 -1.0395
25055SOL    HW277798   3.633   1.206   2.208  0.7178 -1.1097 -0.6144
25056SOL     OW77799   7.703   9.100   1.685  0.2199  0.1197  0.0773
25056SOL    HW177800   7.613   9.094   1.653  0.3071 -0.8494 -0.0097
25056SOL    HW277801   7.747   9.023   1.648  1.3327  1.0610 -0.6416
25057SOL     OW77802   6.043   9.604   9.131 -0.4862 -0.5608  0.3603
25057SOL    HW177803   5.960   9.564   9.106  0.7215 -2.8491 -0.3232
25057SOL    HW277804   6.054   9.584   9.223  0.1693 -2.0352 -0.0072
25058SOL     OW77805   6.680   6.557   4.316  0.3146 -0.4163 -0.4024
25058SOL    HW177806   6.617   6.511   4.260  0.1342 -0.0459 -0.5028
25058SOL    HW277807   6.691   6.642   4.275 -2.7197  1.4199  2.1071
25059SOL     OW77808   6.717   1.327   3.925 -0.4257  0.2909  0.1232
25059SOL    HW177809   6.644   1.266   3.935  0.2449 -0.7613 -1.1488
25059SOL    HW277810   6.675   1.413   3.920 -1.5141 -0.2120  0.2656
25060SOL     OW77811   5.132   7.941   4.559  0.6139 -0.0002 -0.7536
25060SOL    HW177812   5.191   7.866   4.562  0.5023 -0.0726 -0.3496
25060SOL    HW277813   5.117   7.964   4.651 -1.3878 -1.0805 -0.7382
25061SOL     OW77814   4.956   8.337   0.768 -0.0834 -0.0195  0.0535
25061SOL    HW177815   4.928   8.320   0.858  0.5926  0.0248  0.2724
25061SOL    HW277816   5.043   8.376   0.777  0.2711 -0.6473 -0.6527
25062SOL     OW77817   8.535   5.856   1.587 -0.4477 -0.1661  0.0493
25062SOL    HW177818   8.555   5.949   1.597 -0.5784 -0.2874  1.5522
25062SOL    HW277819   8.586   5.829   1.510 -0.2159  1.0776 -0.2557
25063SOL     OW77820   5.393   3.887   2.897  0.0741 -0.2359  0.5674
25063SOL    HW177821   5.316   3.833   2.915 -0.0162  0.0387  1.0438
25063SOL    HW277822   5.448   3.876   2.975 -0.3039  0.9608  1.0317
25064SOL     OW77823   2.838   2.130   7.105  0.5793  0.1193 -0.1070
25064SOL    HW177824   2.809   2.051   7.060  1.1248 -0.7170  0.9655
25064SOL    HW277825   2.846   2.104   7.197  1.2777  1.2754  0.1799
25065SOL     OW77826  10.101   8.004   2.242 -0.1157  0.0532 -0.4558
25065SOL    HW177827  10.195   7.987   2.256 -0.2578 -0.9276 -0.5948
25065SOL    HW277828  10.078   7.947   2.168 -0.8996  0.0347 -0.2007
25066SOL     OW77829   6.610   8.490  10.180 -0.3716  0.0634  0.7530
25066SOL    HW177830   6.593   8.582  10.202 -0.2329 -0.1447  1.7666
25066SOL    HW277831   6.523   8.451  10.173 -0.4130  0.0678  1.2258
25067SOL     OW77832   3.811   2.666   4.791 -0.7130 -0.0495 -0.2498
25067SOL    HW177833   3.733   2.709   4.824 -0.7981  0.8838 -1.5688
25067SOL    HW277834   3.793   2.572   4.799 -1.4766  0.1570  0.5442
25068SOL     OW77835   3.396   6.011   2.771 -0.5016 -0.1735 -0.0332
25068SOL    HW177836   3.330   6.071   2.804  0.2271  0.2025  0.7927
25068SOL    HW277837   3.393   6.021   2.676 -0.3567  1.2185  0.0914
25069SOL     OW77838   7.409   7.168   7.750 -0.7568  0.2531 -0.0729
25069SOL    HW177839   7.439   7.085   7.785  0.9514  1.2505  0.9875
25069SOL    HW277840   7.393   7.152   7.658 -2.6083 -1.7663  0.5385
25070SOL     OW77841   8.173   2.222   0.930  0.1190  0.4132 -0.0627
25070SOL    HW177842   8.245   2.177   0.884  0.4175 -0.7209  1.4451
25070SOL    HW277843   8.213   2.303   0.962  0.6706 -0.1035  0.5727
25071SOL     OW77844   1.924   3.831   3.875  0.1780 -0.2139  0.5372
25071SOL    HW177845   1.997   3.809   3.816  0.4761 -0.0688  0.8466
25071SOL    HW277846   1.960   3.899   3.932 -1.1532  2.2281 -1.3728
25072SOL     OW77847   4.852   8.268   9.698 -0.3434 -0.7666  0.6004
25072SOL    HW177848   4.947   8.258   9.701 -0.5737 -3.5325  0.7575
25072SOL    HW277849   4.835   8.311   9.614  1.0020 -0.7541  0.3141
25073SOL     OW77850   2.549   4.075   5.366 -0.4681 -0.7783 -0.3170
25073SOL    HW177851   2.454   4.085   5.356 -0.5213 -1.2782 -0.3147
25073SOL    HW277852   2.563   3.981   5.377  0.1035 -0.7934 -1.0982
25074SOL     OW77853   0.946   8.450   2.535 -0.0760 -0.0471 -0.7551
25074SOL    HW177854   0.896   8.479   2.458 -0.7673 -0.2776 -0.4048
25074SOL    HW277855   0.939   8.523   2.597  1.3434  0.5713 -1.2751
25075SOL     OW77856   4.779   4.511   9.263  0.5385  0.1135  0.0718
25075SOL    HW177857   4.702   4.565   9.248 -0.9029 -1.5717  0.9731
25075SOL    HW277858   4.818   4.546   9.343 -0.9809 -0.7702  1.2407
25076SOL     OW77859   5.338   5.976   7.961 -0.2945 -0.1595 -0.1027
25076SOL    HW177860   5.271   5.908   7.951  0.3437 -0.8981  0.5276
25076SOL    HW277861   5.290   6.051   7.996 -1.1238 -0.0545 -1.3727
25077SOL     OW77862   3.004   3.189   1.315 -0.6486 -0.1208  0.0661
25077SOL    HW177863   3.044   3.105   1.294  0.1796  0.1979  0.3372
25077SOL    HW277864   3.067   3.231   1.374 -1.6730  0.1199  1.0293
25078SOL     OW77865   9.518   7.285   1.780  0.1799 -0.0444  0.0898
25078SOL    HW177866   9.492   7.255   1.693 -1.4976 -0.7470  0.7752
25078SOL    HW277867   9.540   7.205   1.827 -0.1395  0.1977  0.6642
25079SOL     OW77868   1.163   3.891   5.126 -0.8386  0.1151  0.2595
25079SOL    HW177869   1.191   3.881   5.035  0.7996 -0.9305  0.8372
25079SOL    HW277870   1.114   3.812   5.144  0.0609 -0.3556  0.6882
25080SOL     OW77871   6.790   1.060   0.353 -0.2775 -0.0535  0.4312
25080SOL    HW177872   6.742   1.094   0.277 -3.2096  1.4277  2.7408
25080SOL    HW277873   6.830   1.137   0.393  1.2431 -0.8202  0.4617
25081SOL     OW77874   5.706   8.983   9.714  0.2269  0.1388 -0.1945
25081SOL    HW177875   5.693   8.899   9.670 -0.2024  0.0326  0.1383
25081SOL    HW277876   5.756   9.035   9.650  0.2681 -0.2745 -0.5048
25082SOL     OW77877   3.889   1.894   3.527 -0.4185 -0.4891  0.2048
25082SOL    HW177878   3.916   1.837   3.456 -0.1854  0.1884 -0.2616
25082SOL    HW277879   3.803   1.927   3.500  0.4669  1.2433 -0.6989
25083SOL     OW77880   7.908   5.593   7.362 -0.2048 -0.0937 -0.0654
25083SOL    HW177881   7.822   5.633   7.372 -0.8031 -1.7816  2.6407
25083SOL    HW277882   7.969   5.663   7.387 -0.8401  0.7350 -0.7719
25084SOL     OW77883   6.481   2.210   8.408 -0.1115 -0.0101 -0.4145
25084SOL    HW177884   6.405   2.196   8.353 -2.0320 -1.0542  2.2794
25084SOL    HW277885   6.461   2.291   8.456  1.0877  0.3984 -0.5641
25085SOL     OW77886   4.326   7.497   5.020 -0.0247 -0.1136  0.8387
25085SOL    HW177887   4.421   7.483   5.023  0.3782  2.3130  1.2388
25085SOL    HW277888   4.289   7.419   5.063  1.6605 -1.7022 -0.4075
25086SOL     OW77889   0.169   5.967   9.801  0.1330  0.1520  0.2001
25086SOL    HW177890   0.186   5.930   9.888 -1.9840 -0.0702  0.5988
25086SOL    HW277891   0.087   5.925   9.774  0.5053  0.5796 -1.7069
25087SOL     OW77892   3.469   3.133   8.717 -0.4814 -0.6666 -0.2338
25087SOL    HW177893   3.496   3.064   8.657 -0.1888 -1.3215  0.6394
25087SOL    HW277894   3.490   3.100   8.804  1.1215  1.1280  0.1465
25088SOL     OW77895   1.640   7.772   5.888 -0.0667  0.1956  0.3899
25088SOL    HW177896   1.704   7.790   5.819  0.1683  0.6066  0.7175
25088SOL    HW277897   1.692   7.767   5.968 -0.3162 -0.4583  0.5167
25089SOL     OW77898   5.728   2.646   3.080  0.6389  0.6064  0.6587
25089SOL    HW177899   5.703   2.598   3.001 -0.0201  0.4570  0.9503
25089SOL    HW277900   5.816   2.679   3.061  0.9235 -0.3246  0.2753
25090SOL     OW77901   6.900   6.448   8.887 -0.4362 -0.3686 -0.9012
25090SOL    HW177902   6.811   6.473   8.911 -0.4914 -1.7504  0.5033
25090SOL    HW277903   6.953   6.525   8.907 -1.2492  0.3182 -1.3504
25091SOL     OW77904   6.383   9.335   8.490 -0.2788 -0.3367  0.3199
25091SOL    HW177905   6.349   9.326   8.401  0.4264 -1.2226  0.1209
25091SOL    HW277906   6.305   9.333   8.546 -0.6699 -0.7439 -0.2270
25092SOL     OW77907   5.094   4.440   3.825 -0.0490 -0.4869 -0.1718
25092SOL    HW177908   5.107   4.517   3.769 -0.2144  0.5588  1.1466
25092SOL    HW277909   5.004   4.412   3.808  0.4353 -1.2363 -1.6352
25093SOL     OW77910   0.523   0.424   4.379  0.5483  0.2198 -0.9291
25093SOL    HW177911   0.451   0.365   4.357 -0.0462  1.0941 -1.4048
25093SOL    HW277912   0.581   0.421   4.303  0.2222  0.6718 -1.2025
25094SOL     OW77913   4.512   5.706   0.929 -0.2051  0.0097 -0.7015
25094SOL    HW177914   4.424   5.737   0.910  0.5724  2.6198 -0.3701
25094SOL    HW277915   4.543   5.762   1.000  1.2832 -1.7183  0.1159
25095SOL     OW77916   0.708   9.090   8.812  0.3290  0.3837 -0.2624
25095SOL    HW177917   0.625   9.137   8.802 -0.8273 -1.7672 -1.2338
25095SOL    HW277918   0.771   9.159   8.834 -2.0392  1.8574  2.5830
25096SOL     OW77919   0.136   4.824   4.669 -0.4016 -0.6689 -0.3195
25096SOL    HW177920   0.067   4.837   4.603 -0.9260 -0.8829  0.1807
25096SOL    HW277921   0.173   4.912   4.682 -1.7138 -0.2150  0.6247
25097SOL     OW77922   9.772   0.575   1.441  0.1140 -0.5833 -0.2960
25097SOL    HW177923   9.864   0.564   1.462  0.1334  0.2942  0.0773
25097SOL    HW277924   9.751   0.498   1.388  1.3417 -0.2332 -1.3476
25098SOL     OW77925   5.789   9.416   8.035 -0.0852  0.0387  0.1334
25098SOL    HW177926   5.840   9.336   8.021 -0.3262  0.1891 -1.9465
25098SOL    HW277927   5.699   9.391   8.011 -0.6654  0.2760  1.9435
25099SOL     OW77928  10.013   1.257   1.841  0.0386 -0.3176 -0.2662
25099SOL    HW177929  10.100   1.223   1.820  0.4614  0.5044  0.0834
25099SOL    HW277930  10.027   1.313   1.918 -0.6279  0.5422 -0.7448
25100SOL     OW77931   6.089   2.522   6.360  0.4543  0.2849  0.1006
25100SOL    HW177932   6.095   2.540   6.266  1.7746  0.9146  0.2878
25100SOL    HW277933   6.150   2.450   6.375  0.2603  0.1938  0.4820
25101SOL     OW77934   6.340   6.572   7.874 -0.0637  0.5834  0.1521
25101SOL    HW177935   6.309   6.528   7.795 -2.1049 -0.8155  1.5972
25101SOL    HW277936   6.417   6.523   7.901  0.0257  0.4129 -0.4145
25102SOL     OW77937   6.727   8.930   8.362  0.2842 -0.0452 -0.6050
25102SOL    HW177938   6.646   8.910   8.409  0.4852  2.5294  0.9908
25102SOL    HW277939   6.784   8.855   8.380 -0.2987  0.0115  1.8220
25103SOL     OW77940   2.833   6.231   1.400  0.0512  0.7434  0.0607
25103SOL    HW177941   2.805   6.195   1.316  0.9354  0.4611 -0.1260
25103SOL    HW277942   2.900   6.169   1.431 -0.1238  0.9517  0.8797
25104SOL     OW77943   8.677   2.108   5.928 -0.1635 -0.1887  0.0920
25104SOL    HW177944   8.616   2.091   6.000  0.3159  0.4388  0.6630
25104SOL    HW277945   8.623   2.146   5.859 -0.4393  0.2673  0.5544
25105SOL     OW77946   5.686   9.474   1.922  0.4658 -0.3782 -0.2163
25105SOL    HW177947   5.593   9.492   1.936  0.1121 -0.2366 -2.4451
25105SOL    HW277948   5.730   9.521   1.993 -1.1042  0.1718  0.4396
25106SOL     OW77949   2.729   8.247   3.731 -0.1700 -0.5002 -0.0865
25106SOL    HW177950   2.718   8.260   3.825 -0.4072 -0.0214 -0.1800
25106SOL    HW277951   2.695   8.159   3.716  0.2651 -0.7508  0.3397
25107SOL     OW77952  10.176   3.583   4.793 -0.2046 -0.2769  0.1412
25107SOL    HW177953  10.110   3.515   4.781 -0.5017 -0.0670  0.5874
25107SOL    HW277954  10.141   3.640   4.861  0.7056 -0.5041  0.8315
25108SOL     OW77955   0.625   1.346   3.425 -0.0029 -0.2667  0.2815
25108SOL    HW177956   0.664   1.293   3.494  1.6262 -0.4522 -0.7316
25108SOL    HW277957   0.624   1.435   3.460 -2.0353 -0.7559  1.6861
25109SOL     OW77958   3.671   1.087   8.721  0.5860  0.6299 -0.2501
25109SOL    HW177959   3.694   1.142   8.647 -0.8031  0.6615 -0.6928
25109SOL    HW277960   3.592   1.126   8.757  0.0448 -0.5847 -0.0581
25110SOL     OW77961   2.700   4.111   9.418 -0.0533  0.5335 -0.2155
25110SOL    HW177962   2.628   4.148   9.470 -0.1757 -1.8368  1.4506
25110SOL    HW277963   2.657   4.063   9.347 -0.3799 -2.4611  1.8288
25111SOL     OW77964   5.430   7.725   7.424  0.3253  0.1202  0.1817
25111SOL    HW177965   5.390   7.652   7.471  0.6081 -0.2787 -0.1882
25111SOL    HW277966   5.498   7.685   7.370  1.7303  0.8564  1.3412
25112SOL     OW77967   2.818   5.245   0.532  0.2155  0.3540 -0.3512
25112SOL    HW177968   2.801   5.262   0.624 -0.4612  2.5996 -0.8272
25112SOL    HW277969   2.914   5.239   0.526  0.2877  0.6276  0.4205
25113SOL     OW77970   7.313   2.808   5.642 -0.4579  0.5210 -0.4156
25113SOL    HW177971   7.382   2.773   5.585 -0.3476 -0.9746  0.5820
25113SOL    HW277972   7.360   2.836   5.721 -0.9654 -0.4949  0.2642
25114SOL     OW77973   0.073  10.204   8.350  0.2335 -0.2619 -0.0418
25114SOL    HW177974   0.071  10.140   8.279  0.4271  0.5651 -0.8272
25114SOL    HW277975   0.148  10.260   8.329  0.1126  0.1772  0.6523
25115SOL     OW77976   8.245   7.612  10.166  0.2736  0.2884 -0.3609
25115SOL    HW177977   8.266   7.653  10.083 -1.3217 -1.0623 -1.5021
25115SOL    HW277978   8.155   7.639  10.184  0.5998  0.5663  0.9524
25116SOL     OW77979   9.732   4.779   9.388  0.2850 -0.7044  0.3019
25116SOL    HW177980   9.783   4.833   9.449 -0.3610 -0.3073  0.5014
25116SOL    HW277981   9.795   4.715   9.354  1.7990  1.7125 -1.9033
25117SOL     OW77982   2.193   5.947   0.347 -0.1768  0.0832 -0.0646
25117SOL    HW177983   2.202   6.027   0.400  0.0843  0.6371 -0.9316
25117SOL    HW277984   2.151   5.885   0.406  0.1128  0.6865  0.8005
25118SOL     OW77985   1.633   7.232   4.821 -0.7894  0.0768  0.2095
25118SOL    HW177986   1.613   7.255   4.912 -2.0882  0.8801 -0.2418
25118SOL    HW277987   1.548   7.235   4.777  0.0653  1.6364 -1.4408
25119SOL     OW77988   8.654   0.340   5.029 -0.4651 -0.1107 -0.2998
25119SOL    HW177989   8.559   0.331   5.014 -0.5395  1.6038 -1.0257
25119SOL    HW277990   8.663   0.426   5.070  0.6759 -0.8488  1.0931
25120SOL     OW77991   3.814   4.601   2.284 -0.0214 -0.2835  0.0436
25120SOL    HW177992   3.866   4.533   2.242  0.5696  1.0113 -1.4438
25120SOL    HW277993   3.875   4.675   2.292 -1.9398  1.9101 -3.3924
25121SOL     OW77994   6.342   5.035   7.330  0.5005  0.1459 -0.1875
25121SOL    HW177995   6.393   5.113   7.354  0.0561  0.8995 -1.5617
25121SOL    HW277996   6.286   5.064   7.258 -0.5743 -1.1396  0.0847
25122SOL     OW77997   3.822   5.283   9.469 -0.7999  0.2599 -0.1401
25122SOL    HW177998   3.784   5.359   9.424 -0.7192  0.1549 -0.3849
25122SOL    HW277999   3.752   5.251   9.525 -0.1260  1.9487  1.7802
25123SOL     OW78000   0.410   2.684   3.923  0.5368  0.1851  0.3830
25123SOL    HW178001   0.395   2.696   3.829 -0.0102 -1.6212  0.1922
25123SOL    HW278002   0.402   2.772   3.960  0.2617  0.8644 -1.1876
25124SOL     OW78003   2.099   5.388   8.452  0.0804  0.6161 -0.5666
25124SOL    HW178004   2.120   5.447   8.525 -0.9760  0.0128  0.2354
25124SOL    HW278005   2.161   5.316   8.461 -2.6051 -1.5833  2.2995
25125SOL     OW78006   0.134   3.147   2.253 -0.2005 -0.0144  0.0037
25125SOL    HW178007   0.042   3.169   2.242  0.3366  2.4242 -0.3483
25125SOL    HW278008   0.146   3.138   2.348 -0.3976  1.9656  0.2558
25126SOL     OW78009   0.189   9.851   2.519 -0.1474 -0.1536  0.1944
25126SOL    HW178010   0.214   9.942   2.504 -1.6033  0.1438 -0.6927
25126SOL    HW278011   0.230   9.802   2.448 -1.5648  0.2569 -0.9676
25127SOL     OW78012   3.747   6.351   5.689 -0.4378  0.5192  0.2641
25127SOL    HW178013   3.746   6.306   5.774 -0.8593  1.3267  0.7034
25127SOL    HW278014   3.758   6.443   5.711 -0.2698  0.7085 -0.5847
25128SOL     OW78015   5.274   4.019   9.314 -0.1145 -0.4981 -0.6218
25128SOL    HW178016   5.368   4.016   9.294  0.1455  2.4459 -0.3276
25128SOL    HW278017   5.264   3.968   9.394  0.6955 -3.2119 -2.1505
25129SOL     OW78018   7.608   8.140   4.069  0.3786 -0.1625 -0.1975
25129SOL    HW178019   7.700   8.116   4.057 -0.3598 -3.5731 -0.0878
25129SOL    HW278020   7.565   8.111   3.988 -0.6891  1.2802 -0.2026
25130SOL     OW78021   2.292   0.620   8.343 -0.1180  0.0634  0.4123
25130SOL    HW178022   2.279   0.575   8.259  0.1121  0.3520  0.2178
25130SOL    HW278023   2.377   0.587   8.374  0.0974  0.4294  0.2228
25131SOL     OW78024   9.808   1.946   9.355 -0.0209 -0.2463 -0.4869
25131SOL    HW178025   9.827   1.858   9.386 -0.6578 -0.1461  0.2093
25131SOL    HW278026   9.818   1.941   9.260 -0.6388 -1.2175 -0.5100
25132SOL     OW78027   9.355   7.731   5.677 -0.2889  0.7383 -0.0529
25132SOL    HW178028   9.291   7.775   5.732 -1.0366  2.1278 -1.9465
25132SOL    HW278029   9.335   7.638   5.687 -0.9393  1.0057  1.3230
25133SOL     OW78030   0.201  10.244   4.271  0.1888 -0.6170 -0.1243
25133SOL    HW178031   0.232  10.334   4.275  1.6699 -1.0058 -1.7762
25133SOL    HW278032   0.163  10.227   4.358 -0.6691  1.7566  0.0168
25134SOL     OW78033   2.026   0.547   9.643 -0.1130  0.4489  1.2624
25134SOL    HW178034   2.055   0.495   9.718 -0.2411 -1.7763 -0.1158
25134SOL    HW278035   2.093   0.531   9.576 -0.5388  1.5257  0.5527
25135SOL     OW78036   2.713   5.201   9.883 -0.4434 -0.1460 -0.4368
25135SOL    HW178037   2.770   5.128   9.906  0.0437  0.4072  0.1425
25135SOL    HW278038   2.637   5.191   9.941  0.1299  0.4211  0.4541
25136SOL     OW78039   8.480   7.010   1.444  0.7706  0.4594 -0.1391
25136SOL    HW178040   8.526   7.028   1.362  1.7425  0.1832  0.3354
25136SOL    HW278041   8.532   6.941   1.486  0.6018  0.9873  0.9605
25137SOL     OW78042   8.036   4.347   3.933 -0.2274 -0.3621 -0.0066
25137SOL    HW178043   7.975   4.273   3.928  0.7748 -1.2649  0.7983
25137SOL    HW278044   8.045   4.364   4.026 -0.1517  0.5466 -0.1757
25138SOL     OW78045   0.593   0.045   2.279 -0.2857  0.0016 -0.0629
25138SOL    HW178046   0.653  -0.013   2.327  1.1307  0.4048 -1.2750
25138SOL    HW278047   0.537  -0.015   2.229  0.7853 -0.3800 -0.8607
25139SOL     OW78048   4.194   1.087   1.357  0.1576  0.2234  0.0944
25139SOL    HW178049   4.268   1.040   1.396  0.2127 -0.8123 -1.1823
25139SOL    HW278050   4.234   1.147   1.294 -0.0826 -0.6795 -0.9460
25140SOL     OW78051   7.240   5.720   8.237  0.2665 -0.2313  1.1874
25140SOL    HW178052   7.320   5.770   8.222 -0.5669  0.2889 -2.2560
25140SOL    HW278053   7.225   5.727   8.331  2.6965  2.0436  1.5188
25141SOL     OW78054   5.797   2.871  10.014 -0.2227  0.4365 -0.6714
25141SOL    HW178055   5.817   2.924   9.937  0.6050  1.2776  0.1027
25141SOL    HW278056   5.879   2.828  10.036 -0.5966 -0.2501 -0.5858
25142SOL     OW78057   0.962  10.100   0.715  0.4098 -0.2303 -0.3820
25142SOL    HW178058   0.929  10.025   0.667  1.4188 -0.2383 -1.0946
25142SOL    HW278059   0.891  10.164   0.711  0.1966 -0.5070 -1.2633
25143SOL     OW78060   9.169   8.183   3.371  0.1260 -0.2192 -0.2784
25143SOL    HW178061   9.115   8.128   3.315  2.1446 -2.3827 -0.2377
25143SOL    HW278062   9.199   8.254   3.313 -0.2448 -0.7443 -1.1253
25144SOL     OW78063   4.053   8.008   9.110 -0.3755  0.2092  0.4676
25144SOL    HW178064   4.101   8.077   9.063  0.0380 -0.8044 -0.6489
25144SOL    HW278065   4.110   7.986   9.183 -0.0117  0.3289  0.2293
25145SOL     OW78066   2.948   2.109   0.204 -0.4808  1.0689  0.0273
25145SOL    HW178067   2.948   2.190   0.153  0.0397  1.6144  0.8658
25145SOL    HW278068   2.992   2.133   0.286 -1.1961  0.1848  0.6787
25146SOL     OW78069   6.861   7.841   9.176  0.5243  0.0211 -0.3569
25146SOL    HW178070   6.847   7.935   9.160 -0.3435  0.2457  1.5219
25146SOL    HW278071   6.788   7.799   9.130  1.2852  0.1860 -1.7664
25147SOL     OW78072   2.875   3.868   9.913  0.6274 -0.3468  0.3279
25147SOL    HW178073   2.970   3.855   9.916  0.5745 -1.1965 -1.0479
25147SOL    HW278074   2.862   3.938   9.849  0.3116 -0.4791  0.2439
25148SOL     OW78075   1.491   8.267  10.323 -0.1654  0.1309 -0.0659
25148SOL    HW178076   1.560   8.202  10.336  0.5261  0.7003 -0.7623
25148SOL    HW278077   1.483   8.275  10.228  0.8182  2.1025 -0.0399
25149SOL     OW78078   6.669   5.870   0.801  0.1012  0.2487 -0.3790
25149SOL    HW178079   6.749   5.843   0.846 -0.5207 -0.0284  0.5930
25149SOL    HW278080   6.625   5.789   0.780  0.1784  0.3934 -1.1327
25150SOL     OW78081   9.637   5.781   4.113 -0.2324  0.4348  0.1276
25150SOL    HW178082   9.689   5.774   4.193 -0.0440  0.3183 -0.0056
25150SOL    HW278083   9.644   5.695   4.072  0.3384  0.7360 -0.4251
25151SOL     OW78084   4.826   2.914   2.742 -0.4068 -0.3067 -0.9505
25151SOL    HW178085   4.749   2.935   2.689 -1.1852 -1.3567 -0.2777
25151SOL    HW278086   4.794   2.851   2.806  1.2736 -1.6542 -1.3806
25152SOL     OW78087   3.191   8.711   7.279  0.5235 -0.1164 -0.0995
25152SOL    HW178088   3.282   8.685   7.263  0.2714 -0.4068 -1.0876
25152SOL    HW278089   3.190   8.805   7.261  0.4491 -0.2679 -0.9182
25153SOL     OW78090   3.673   2.987   1.244 -0.0370 -0.1595  0.0480
25153SOL    HW178091   3.618   2.909   1.246 -0.9991  0.5016  0.2563
25153SOL    HW278092   3.759   2.957   1.271  0.0698 -1.4922 -1.6276
25154SOL     OW78093   8.734   7.085   5.221 -0.5231 -0.5123  0.0256
25154SOL    HW178094   8.709   7.174   5.244  1.6401  0.1950 -0.0739
25154SOL    HW278095   8.787   7.055   5.295  2.6091  0.0552 -1.8159
25155SOL     OW78096   2.998   0.433   4.969  0.1769  0.1331 -0.4820
25155SOL    HW178097   2.989   0.489   5.047 -0.8386 -1.5322  0.6709
25155SOL    HW278098   3.045   0.487   4.906 -1.8037  2.7471  0.0918
25156SOL     OW78099   9.723   4.575   7.881 -0.0515  0.3292 -0.0016
25156SOL    HW178100   9.684   4.661   7.898 -0.9751  0.1506 -1.1469
25156SOL    HW278101   9.781   4.561   7.956  0.2242  2.0026  0.1537
25157SOL     OW78102   1.182   3.539  10.102  0.0998 -0.4623 -0.1365
25157SOL    HW178103   1.241   3.569  10.171 -0.2448  1.6496 -0.6676
25157SOL    HW278104   1.128   3.616  10.082 -1.9385 -1.9300 -0.5919
25158SOL     OW78105   4.564   4.806   3.654  0.6025 -0.2251  0.1144
25158SOL    HW178106   4.472   4.831   3.650  0.4711 -0.6232  0.5923
25158SOL    HW278107   4.599   4.830   3.568  0.3138  0.9313  0.2943
25159SOL     OW78108   1.642   9.321   6.666 -0.1974 -0.2761 -0.4571
25159SOL    HW178109   1.687   9.346   6.747 -1.8672 -0.0734  0.4544
25159SOL    HW278110   1.701   9.257   6.625  0.1121 -1.3701  1.5563
25160SOL     OW78111   5.290   4.016   2.638 -0.1108  0.1599 -0.4903
25160SOL    HW178112   5.235   4.095   2.639  1.4914  1.3216 -0.9298
25160SOL    HW278113   5.249   3.958   2.702 -1.5098  1.2154 -0.3726
25161SOL     OW78114   3.988   3.718   3.025 -0.2275  0.2884 -0.0480
25161SOL    HW178115   3.983   3.729   2.930 -2.0551 -0.5290 -0.0770
25161SOL    HW278116   3.983   3.624   3.039  0.9211  0.3250  0.8552
25162SOL     OW78117   8.737   4.402   9.483  0.6760  0.3810  0.3139
25162SOL    HW178118   8.777   4.389   9.397 -0.4040 -0.8750 -0.0202
25162SOL    HW278119   8.801   4.455   9.531  1.5796  0.5677 -1.0404
25163SOL     OW78120   4.674   2.826   3.431  1.0949 -0.0776  0.3201
25163SOL    HW178121   4.668   2.739   3.471  1.6342 -0.0174  0.5464
25163SOL    HW278122   4.710   2.881   3.501 -1.2260  0.8087  0.8767
25164SOL     OW78123   8.027   5.153   3.041  0.7527 -0.6636 -0.2322
25164SOL    HW178124   8.059   5.073   3.082 -0.9316 -1.3321 -0.1313
25164SOL    HW278125   8.026   5.133   2.947 -0.2257 -0.9957 -0.1609
25165SOL     OW78126   6.549   4.274   8.547  0.1301 -0.1068 -0.1081
25165SOL    HW178127   6.519   4.196   8.595 -0.2627 -0.2816 -0.6285
25165SOL    HW278128   6.543   4.345   8.611  2.0746 -0.7648  0.9099
25166SOL     OW78129   3.239   8.286   7.066  0.7345  0.1767 -0.3578
25166SOL    HW178130   3.171   8.219   7.065  1.2237 -0.4869  2.3568
25166SOL    HW278131   3.193   8.367   7.087  0.6098 -0.0533  0.2851
25167SOL     OW78132   0.999   4.218   4.133 -0.0546  0.2413  0.2242
25167SOL    HW178133   1.055   4.143   4.152 -1.6542 -0.7242  1.4680
25167SOL    HW278134   1.000   4.270   4.214 -0.3334  0.6216 -0.0110
25168SOL     OW78135   9.461   3.106   6.879 -0.3086 -0.1297  0.3534
25168SOL    HW178136   9.422   3.058   6.805 -0.3262  0.0651  0.2347
25168SOL    HW278137   9.395   3.172   6.901 -0.2158 -0.0578  0.4122
25169SOL     OW78138   9.451   9.278   3.898  0.3370  0.4709 -0.7326
25169SOL    HW178139   9.461   9.193   3.941 -0.3142  2.1015  3.0993
25169SOL    HW278140   9.357   9.297   3.905  0.5038  1.6067 -1.3384
25170SOL     OW78141   9.391   5.370   3.973 -0.0998  0.5055 -0.2084
25170SOL    HW178142   9.375   5.398   4.063  0.2143  1.6284 -0.4752
25170SOL    HW278143   9.332   5.424   3.920  0.8357  0.9964 -0.7829
25171SOL     OW78144   0.257   2.839   0.171 -0.4870  0.2112 -0.0985
25171SOL    HW178145   0.294   2.751   0.173  0.5874  0.6707  0.8330
25171SOL    HW278146   0.175   2.832   0.219  0.0701 -0.0822  0.8218
25172SOL     OW78147   7.984   0.886   7.593 -0.0123 -0.0349  0.0900
25172SOL    HW178148   8.003   0.867   7.501  2.0134  0.9985  0.2379
25172SOL    HW278149   8.045   0.829   7.642  0.0725  0.5878  0.7265
25173SOL     OW78150   3.699   7.313   7.998 -0.0463  0.1812  0.1721
25173SOL    HW178151   3.740   7.387   8.044 -0.6925 -0.2987  1.5804
25173SOL    HW278152   3.716   7.238   8.055  0.3056 -0.7115 -1.0776
25174SOL     OW78153   4.831   0.472   5.540  0.3323 -0.9384  0.0332
25174SOL    HW178154   4.872   0.387   5.557  1.0513 -0.5647  0.2129
25174SOL    HW278155   4.901   0.525   5.502  0.3449  0.0566  1.3831
25175SOL     OW78156   9.985   7.212   2.436  0.1088  0.3302 -0.0683
25175SOL    HW178157   9.901   7.241   2.471 -0.6005  0.4519 -1.7760
25175SOL    HW278158  10.020   7.289   2.392  0.1393 -0.2508 -1.0964
25176SOL     OW78159   4.863   9.818   5.397 -0.2876 -0.2193 -0.2185
25176SOL    HW178160   4.817   9.735   5.402  0.1326 -0.4857 -0.6602
25176SOL    HW278161   4.800   9.883   5.427 -0.5603 -0.7169  0.2992
25177SOL     OW78162   3.698   7.216   1.395 -0.2658  0.2377 -0.3308
25177SOL    HW178163   3.676   7.306   1.420 -0.2671  0.3352 -0.6785
25177SOL    HW278164   3.792   7.209   1.411 -0.4462 -0.0070  0.6334
25178SOL     OW78165   0.465   7.479   1.958 -0.1565  0.3997  0.2975
25178SOL    HW178166   0.460   7.491   2.053  1.5100  1.1231  0.3288
25178SOL    HW278167   0.380   7.442   1.934 -0.9618  1.0797  1.9412
25179SOL     OW78168   2.948   6.741   8.174 -0.1622 -0.3739  0.0854
25179SOL    HW178169   2.983   6.807   8.113  0.8275 -0.3796  0.6260
25179SOL    HW278170   2.921   6.669   8.117  0.3094 -0.1806 -0.3982
25180SOL     OW78171   5.483   6.400   5.175 -0.8666  0.0938 -0.1672
25180SOL    HW178172   5.509   6.487   5.205 -3.6252  1.0363 -0.2338
25180SOL    HW278173   5.389   6.396   5.192 -0.9188 -2.7155 -0.6318
25181SOL     OW78174   7.265   3.848  10.330 -0.0295 -0.4386  0.3401
25181SOL    HW178175   7.193   3.861  10.393  1.1903 -0.6860  1.8472
25181SOL    HW278176   7.284   3.754  10.336  0.4202 -0.3723 -0.0530
25182SOL     OW78177   7.314   2.423   7.510 -0.2116 -0.4179 -0.0802
25182SOL    HW178178   7.288   2.332   7.526 -1.3305  0.1331  1.4061
25182SOL    HW278179   7.401   2.416   7.471  0.4339 -2.0928  1.4981
25183SOL     OW78180   5.456   3.078  10.283 -0.4184  0.6224 -0.5581
25183SOL    HW178181   5.425   3.078  10.192  1.8593  1.5806 -1.4021
25183SOL    HW278182   5.519   3.006  10.286 -0.7203  0.3924  0.3587
25184SOL     OW78183   9.344   9.523   5.079 -0.0536 -0.2627  0.1372
25184SOL    HW178184   9.343   9.434   5.114  1.5701 -0.4299 -0.1829
25184SOL    HW278185   9.252   9.544   5.064 -0.4578 -1.8576  0.2592
25185SOL     OW78186   9.382   0.724   0.139 -0.3746 -0.1621 -0.3810
25185SOL    HW178187   9.315   0.756   0.199 -0.4429  0.4082 -0.7529
25185SOL    HW278188   9.343   0.648   0.097 -1.5710  1.2390 -1.9915
25186SOL     OW78189   2.981   6.873   2.394 -0.1096  0.0625  0.3357
25186SOL    HW178190   2.947   6.961   2.404  2.6118  1.6664 -2.5418
25186SOL    HW278191   2.986   6.860   2.299  1.6204 -2.2721  0.6482
25187SOL     OW78192   8.531  10.122   6.561  0.5898 -0.5191  0.0476
25187SOL    HW178193   8.480  10.201   6.574 -0.5795 -1.3392  0.5439
25187SOL    HW278194   8.499  10.086   6.478  0.1384 -1.1851  0.5019
25188SOL     OW78195   4.426   2.018   1.251  1.2224 -0.9595  0.2235
25188SOL    HW178196   4.472   2.017   1.167 -0.2815  0.0379 -0.6606
25188SOL    HW278197   4.449   2.102   1.290 -1.5804  0.6828 -1.3284
25189SOL     OW78198   5.903   3.462   5.557  0.2133 -0.2359 -0.3274
25189SOL    HW178199   5.866   3.542   5.594 -1.0777 -1.3015  0.7899
25189SOL    HW278200   5.910   3.479   5.463  2.2117  2.0142  0.1411
25190SOL     OW78201   3.732   3.226   9.833 -0.3240  0.0745 -0.3349
25190SOL    HW178202   3.769   3.232   9.745  0.1046 -0.8780 -0.2273
25190SOL    HW278203   3.804   3.251   9.891 -0.5408  0.4841 -0.2390
25191SOL     OW78204   5.513  10.351   7.546  0.0357 -0.3363  0.6158
25191SOL    HW178205   5.473  10.291   7.609 -0.6280 -0.2378  0.3005
25191SOL    HW278206   5.490  10.438   7.578 -1.4750 -0.2937 -0.4714
25192SOL     OW78207   9.542   5.165   4.992 -0.0149 -0.6883 -0.0080
25192SOL    HW178208   9.568   5.076   4.972 -0.5619 -1.1994  1.4240
25192SOL    HW278209   9.622   5.217   4.984  0.3271 -1.3069 -0.7110
25193SOL     OW78210   1.273   1.295   0.241 -0.0460 -0.0421 -0.3063
25193SOL    HW178211   1.233   1.305   0.155 -0.1923  1.1193 -0.1245
25193SOL    HW278212   1.245   1.373   0.290 -1.0358 -1.3106  1.2354
25194SOL     OW78213   5.684   2.659   8.577 -0.0378 -0.0621 -0.1799
25194SOL    HW178214   5.768   2.657   8.621  0.0596 -0.2677 -0.3762
25194SOL    HW278215   5.639   2.734   8.616 -0.5340 -1.0872  1.3286
25195SOL     OW78216   9.633   8.693   8.693  0.6667 -0.2397  0.1141
25195SOL    HW178217   9.567   8.747   8.736  1.3257  0.8261 -0.1780
25195SOL    HW278218   9.716   8.730   8.722  1.1433 -1.2740  0.1159
25196SOL     OW78219   5.609   7.910   0.242  0.3504  0.2095 -0.5548
25196SOL    HW178220   5.700   7.911   0.215  0.7864  0.4643  0.8602
25196SOL    HW278221   5.560   7.890   0.162  1.6748 -0.4988 -1.2123
25197SOL     OW78222   4.443   3.108   7.849 -0.3085 -0.5476 -0.1983
25197SOL    HW178223   4.477   3.183   7.801 -2.8220  0.2144 -0.9384
25197SOL    HW278224   4.494   3.107   7.930  0.4821  1.3284 -0.6083
25198SOL     OW78225   0.794   1.097   3.146  0.5303  0.3015  0.2472
25198SOL    HW178226   0.833   1.048   3.218 -1.0991  0.2649  1.1347
25198SOL    HW278227   0.795   1.188   3.175  0.6072  0.3927 -0.0344
25199SOL     OW78228   4.856   2.776   5.921  0.1080 -0.0926  0.1078
25199SOL    HW178229   4.845   2.870   5.936  0.9061 -0.1241  1.0246
25199SOL    HW278230   4.776   2.749   5.877 -0.1099  1.0268 -0.2191
25200SOL     OW78231   4.609   8.265   6.630  0.2475 -1.0141 -0.1690
25200SOL    HW178232   4.698   8.298   6.618 -0.6405  2.7828  1.8096
25200SOL    HW278233   4.609   8.228   6.718 -0.0442 -1.4697 -0.3571
25201SOL     OW78234   1.403   4.033   1.816 -0.0307  0.0898  0.0222
25201SOL    HW178235   1.489   3.994   1.827  0.0563 -0.4790 -2.0949
25201SOL    HW278236   1.388   4.084   1.895  1.8147 -0.5984  0.8540
25202SOL     OW78237   7.707   9.120   2.741  0.5545 -0.8253  0.5135
25202SOL    HW178238   7.636   9.174   2.776  1.5940  0.4968  0.6611
25202SOL    HW278239   7.676   9.092   2.655 -0.3789 -0.7537  0.8147
25203SOL     OW78240   0.654   2.250   8.150  0.0416  0.0100  0.1088
25203SOL    HW178241   0.662   2.155   8.143  0.8298  0.0642  0.1301
25203SOL    HW278242   0.664   2.281   8.060 -1.1241  0.0239 -0.0262
25204SOL     OW78243   6.764   7.982   5.625  0.5220 -0.2385  0.2330
25204SOL    HW178244   6.836   7.981   5.688  1.0259  1.1985 -0.2777
25204SOL    HW278245   6.694   7.931   5.667  1.6618 -1.2885  0.9275
25205SOL     OW78246   1.205   7.555   4.604  0.2941  0.0138  0.0825
25205SOL    HW178247   1.146   7.524   4.673 -1.1585  1.6821 -0.3286
25205SOL    HW278248   1.199   7.650   4.609  0.1749  0.1983 -2.2949
25206SOL     OW78249   5.241  10.300   4.565  0.2767 -0.4080  0.2849
25206SOL    HW178250   5.300  10.264   4.498  0.2217  0.7264 -0.4037
25206SOL    HW278251   5.299  10.337   4.631  0.3470  0.2451 -0.1352
25207SOL     OW78252   3.028   0.012   2.115  0.2980 -0.3668  0.1550
25207SOL    HW178253   3.031   0.048   2.204 -1.2234 -1.3129  0.6100
25207SOL    HW278254   3.119  -0.015   2.098  1.0898  1.8519  0.5238
25208SOL     OW78255   9.092   1.339   9.009  0.1590  0.2223 -0.2684
25208SOL    HW178256   9.060   1.391   8.935  0.6954  0.1716 -0.5430
25208SOL    HW278257   9.094   1.249   8.976 -2.1421 -0.2528  0.6441
25209SOL     OW78258   0.249   5.696   9.497 -0.4008 -0.0254  0.1396
25209SOL    HW178259   0.201   5.777   9.512  2.1401  1.5401  0.4995
25209SOL    HW278260   0.321   5.698   9.560  1.9207 -0.6461 -2.2541
25210SOL     OW78261   4.944   2.562   8.803  0.6109 -0.6558  0.3236
25210SOL    HW178262   4.961   2.576   8.710  0.9654  0.4814  0.5397
25210SOL    HW278263   4.947   2.650   8.841 -0.5561 -0.9817  1.2466
25211SOL     OW78264   9.177   3.516   9.427  0.0422 -0.1429 -0.2334
25211SOL    HW178265   9.139   3.548   9.509 -1.1991 -0.8593 -0.5112
25211SOL    HW278266   9.137   3.430   9.414  0.6219 -0.2637 -1.3394
25212SOL     OW78267   0.377   5.679   0.126  0.0881  0.1376 -0.0168
25212SOL    HW178268   0.472   5.682   0.120  0.2749 -3.3299 -0.8304
25212SOL    HW278269   0.358   5.701   0.217  1.5907  1.4041  0.0245
25213SOL     OW78270   9.718   5.028   3.146  0.2481  0.1014 -0.0800
25213SOL    HW178271   9.663   5.059   3.074 -2.6912 -0.9071  1.5541
25213SOL    HW278272   9.754   4.945   3.114 -1.4230 -0.5833 -0.2904
25214SOL     OW78273   5.017   4.629   4.955  0.2063  1.0564 -0.0479
25214SOL    HW178274   4.981   4.691   5.019 -1.7218 -0.3663  0.3629
25214SOL    HW278275   5.099   4.599   4.994 -1.1653 -0.1564  2.1127
25215SOL     OW78276   9.813   2.495   8.500 -0.4222 -0.2224  0.4986
25215SOL    HW178277   9.884   2.432   8.512 -1.3803 -1.4162  0.1681
25215SOL    HW278278   9.849   2.563   8.444  0.5183 -0.6931  0.5192
25216SOL     OW78279   3.877   0.300   5.181 -0.3549  0.1168  0.5601
25216SOL    HW178280   3.789   0.277   5.209 -0.0227  0.3511  1.8344
25216SOL    HW278281   3.865   0.373   5.120 -1.1070 -0.6175 -0.1961
25217SOL     OW78282   0.950   3.817   9.944  0.1030 -0.5672 -0.7358
25217SOL    HW178283   0.948   3.724   9.919  1.6807 -0.5306 -1.1162
25217SOL    HW278284   1.030   3.851   9.904 -0.4946  0.9945 -0.6752
25218SOL     OW78285   9.210   7.461   9.232  0.5274  0.6507  0.3069
25218SOL    HW178286   9.133   7.414   9.262 -0.2757  2.1084  0.6315
25218SOL    HW278287   9.274   7.393   9.212 -1.5955 -0.7903 -2.2443
25219SOL     OW78288   1.250   1.301   9.068  0.4128  0.0771  0.1428
25219SOL    HW178289   1.281   1.271   8.983 -0.1056 -1.3639  0.4291
25219SOL    HW278290   1.324   1.289   9.127  0.4312  0.0381  0.1112
25220SOL     OW78291   5.795   9.681   6.468 -0.8428  0.2003  0.3417
25220SOL    HW178292   5.796   9.586   6.453 -2.8774  0.2467 -0.2873
25220SOL    HW278293   5.788   9.719   6.381  0.9250  1.0079  0.5167
25221SOL     OW78294   4.431   5.829   7.106 -0.3946  0.2302  0.3232
25221SOL    HW178295   4.413   5.921   7.088 -3.5355 -0.5152 -0.8956
25221SOL    HW278296   4.477   5.797   7.029 -1.2205  0.3091 -0.2077
25222SOL     OW78297   3.461   3.552   2.705  0.1283  0.0615 -0.5106
25222SOL    HW178298   3.472   3.606   2.627 -1.6280 -1.9536 -2.2901
25222SOL    HW278299   3.466   3.613   2.778  3.3258  1.8365 -2.0216
25223SOL     OW78300   7.214   5.449   7.396 -0.0722 -0.0429 -0.0697
25223SOL    HW178301   7.138   5.484   7.443 -0.4040  0.3695 -0.8871
25223SOL    HW278302   7.270   5.525   7.383  0.0281 -0.1551 -0.3051
25224SOL     OW78303   0.083   8.789   9.840 -0.2272  0.1824  0.2077
25224SOL    HW178304   0.039   8.828   9.915  0.3893  0.6440  0.3362
25224SOL    HW278305   0.049   8.838   9.765  0.3013  0.7652  0.3384
25225SOL     OW78306   5.461   9.083   4.708 -0.4046  0.4991 -0.2388
25225SOL    HW178307   5.412   9.098   4.789 -0.5899  1.0295 -0.4439
25225SOL    HW278308   5.434   9.154   4.650 -1.0726 -0.4684 -1.1424
25226SOL     OW78309   7.293   0.847   2.820  0.7711  0.4792 -0.4098
25226SOL    HW178310   7.360   0.802   2.870  1.8588 -2.1736 -3.8397
25226SOL    HW278311   7.211   0.822   2.862  1.6472 -0.4860  0.7952
25227SOL     OW78312   1.993   7.188   0.068 -0.2136  0.0594 -0.4139
25227SOL    HW178313   1.907   7.156   0.040 -0.2814 -0.8380  0.7722
25227SOL    HW278314   1.976   7.275   0.103 -0.5185  0.1784 -0.8509
25228SOL     OW78315   4.956   7.362   6.273  0.4382 -0.0762 -0.4034
25228SOL    HW178316   4.982   7.406   6.354 -0.8116 -1.3585  0.7632
25228SOL    HW278317   4.870   7.400   6.253  0.1102 -0.7655 -0.3180
25229SOL     OW78318   9.378  10.294   6.491 -0.0614  0.0975 -0.2802
25229SOL    HW178319   9.455  10.344   6.518 -0.6195  0.9156 -0.1639
25229SOL    HW278320   9.387  10.285   6.396  1.5572 -2.1970 -0.0024
25230SOL     OW78321   4.808   8.789   4.286 -0.5291 -0.1362  0.3348
25230SOL    HW178322   4.774   8.720   4.229  1.8187 -2.2687  1.3258
25230SOL    HW278323   4.884   8.749   4.329  2.2674  3.6425 -0.5313
25231SOL     OW78324   4.679   0.819   8.309  0.5489  0.3797  0.0920
25231SOL    HW178325   4.586   0.829   8.325  0.6652 -0.5031  1.4338
25231SOL    HW278326   4.709   0.758   8.376  1.7320 -0.8724 -1.5029
25232SOL     OW78327   6.521   9.851   8.716 -0.5795  0.4515 -0.4569
25232SOL    HW178328   6.495   9.819   8.802 -1.1987 -0.1808 -0.8623
25232SOL    HW278329   6.595   9.909   8.733  0.9080 -1.5287  0.2928
25233SOL     OW78330   2.083   7.583   7.997 -0.6663  0.5527  0.9916
25233SOL    HW178331   2.166   7.574   8.044 -0.3156  0.3176  0.3368
25233SOL    HW278332   2.108   7.596   7.906 -1.3569  0.2986  0.7582
25234SOL     OW78333   9.898   0.837   7.897 -0.5007 -0.7148  0.5144
25234SOL    HW178334   9.853   0.859   7.978  0.3430  2.3933  0.2695
25234SOL    HW278335   9.984   0.878   7.905 -0.5194  0.0487 -2.0455
25235SOL     OW78336   1.501   5.768   1.804 -0.3340 -0.0773 -0.2183
25235SOL    HW178337   1.572   5.707   1.822 -1.0648 -1.4273 -1.6474
25235SOL    HW278338   1.431   5.744   1.865 -0.7136 -0.8779 -0.9463
25236SOL     OW78339   6.015   4.740   7.459 -0.0103  0.0977  0.2074
25236SOL    HW178340   5.996   4.646   7.450 -0.8925  0.3926 -1.5202
25236SOL    HW278341   6.100   4.751   7.417  1.4830 -0.3174  2.9116
25237SOL     OW78342   9.954   0.816   2.288 -0.3933 -0.2531 -0.4661
25237SOL    HW178343  10.032   0.857   2.327 -0.3203 -0.0971 -0.7704
25237SOL    HW278344   9.906   0.888   2.249 -1.9722  0.0157  1.8179
25238SOL     OW78345   8.235   5.274   1.572 -0.2890  0.5252 -0.0315
25238SOL    HW178346   8.182   5.270   1.652 -0.5316 -2.4719 -0.2225
25238SOL    HW278347   8.285   5.193   1.573 -0.2938  0.4021 -2.9330
25239SOL     OW78348   9.313   3.275   7.253  0.5316  0.0085 -0.2567
25239SOL    HW178349   9.360   3.355   7.230 -0.2800  1.1254  1.7003
25239SOL    HW278350   9.353   3.246   7.335 -0.2910 -0.6362 -0.0660
25240SOL     OW78351   8.727   0.456   8.657 -0.6858  0.1148 -0.3601
25240SOL    HW178352   8.747   0.507   8.579  1.5217 -1.0315 -0.6246
25240SOL    HW278353   8.812   0.420   8.684 -1.7361 -1.2015  1.3652
25241SOL     OW78354   5.876   7.552   9.304 -0.0847  0.3054 -0.4242
25241SOL    HW178355   5.814   7.562   9.232  1.8497  1.5333 -2.0442
25241SOL    HW278356   5.932   7.480   9.278 -1.3534 -1.4962  1.5203
25242SOL     OW78357   8.131   5.533   9.150 -0.2849 -0.8096 -0.7844
25242SOL    HW178358   8.041   5.547   9.119  0.1360 -0.6247 -1.9657
25242SOL    HW278359   8.178   5.612   9.124  0.0034 -0.4429  0.7481
25243SOL     OW78360  10.259   6.142   3.657 -0.1914  0.2945  0.2852
25243SOL    HW178361  10.291   6.060   3.694  1.7205  0.5565 -0.6610
25243SOL    HW278362  10.197   6.115   3.589  1.0769 -0.4624 -0.6239
25244SOL     OW78363   5.661   9.042   7.946  0.0126  0.1118  0.2362
25244SOL    HW178364   5.722   9.020   8.015 -1.0360 -0.6788  0.9398
25244SOL    HW278365   5.658   9.138   7.946  1.5851  0.1835 -0.1511
25245SOL     OW78366   4.329   3.711   8.585  0.7353 -0.3073 -0.7241
25245SOL    HW178367   4.379   3.791   8.569  1.1622 -0.0853  1.5215
25245SOL    HW278368   4.237   3.740   8.582  0.8953  0.7051  1.8345
25246SOL     OW78369   0.261   1.647   3.571 -0.0927  0.1340  0.3887
25246SOL    HW178370   0.328   1.692   3.623 -1.0439  1.1228  0.7707
25246SOL    HW278371   0.290   1.556   3.571  0.1154  0.1518  2.3661
25247SOL     OW78372   7.647   3.764   2.088  0.7314 -0.1373 -0.4088
25247SOL    HW178373   7.631   3.769   2.183  2.2896  2.0459 -0.1849
25247SOL    HW278374   7.560   3.770   2.049  0.1714  0.5829  0.8832
25248SOL     OW78375   5.929   8.991   7.100 -0.1423  0.3789  0.6768
25248SOL    HW178376   5.875   9.065   7.126  0.0726  0.7455  0.1008
25248SOL    HW278377   5.890   8.915   7.144 -0.7522  0.7354  0.7523
25249SOL     OW78378   3.879   7.914   5.929  0.2097 -0.2601 -0.0076
25249SOL    HW178379   3.899   7.999   5.889  1.9762 -0.7775 -0.3243
25249SOL    HW278380   3.903   7.925   6.022  1.9351 -0.8171 -0.3450
25250SOL     OW78381   4.412   1.045   9.505 -0.2078 -0.6750  0.2628
25250SOL    HW178382   4.348   0.987   9.547 -1.3229  0.5785  0.3781
25250SOL    HW278383   4.396   1.130   9.545  1.7190 -0.3604  0.4571
25251SOL     OW78384   9.357   5.425   9.624  0.2647  0.3281 -0.1428
25251SOL    HW178385   9.316   5.509   9.602  2.0338  1.1978 -0.3385
25251SOL    HW278386   9.431   5.449   9.680 -1.4861 -1.4320  3.2878
25252SOL     OW78387   6.781   1.722   3.032  0.2068 -0.3556  0.2275
25252SOL    HW178388   6.697   1.767   3.024 -0.2689 -1.0224  1.2103
25252SOL    HW278389   6.805   1.701   2.942 -1.5441 -1.6740  0.0065
25253SOL     OW78390   3.445   8.620   7.221  0.3642 -0.2355 -0.7728
25253SOL    HW178391   3.488   8.538   7.244 -0.2298  0.0616  1.6720
25253SOL    HW278392   3.512   8.670   7.173  1.7633 -0.9446  0.3697
25254SOL     OW78393   3.405   1.858   8.128 -0.1010 -0.5638 -0.5764
25254SOL    HW178394   3.357   1.884   8.049 -0.1657  3.5530  0.6127
25254SOL    HW278395   3.347   1.880   8.200  1.1192 -1.4922  0.7456
25255SOL     OW78396   0.407   2.364   4.257  0.0440 -0.1427  0.0477
25255SOL    HW178397   0.401   2.269   4.271  2.6539 -0.6475 -1.6485
25255SOL    HW278398   0.493   2.388   4.291  0.5721  1.0739 -1.9679
25256SOL     OW78399   0.029   3.624  10.024 -0.4119  0.2550  0.3843
25256SOL    HW178400   0.100   3.614  10.087  0.7576 -1.0123 -1.0584
25256SOL    HW278401   0.070   3.667   9.949 -1.1392 -0.5869 -0.5110
25257SOL     OW78402   3.620   9.002   6.717  0.2088 -0.0347  0.1348
25257SOL    HW178403   3.536   9.033   6.749  0.3921 -0.7703  1.3881
25257SOL    HW278404   3.628   8.913   6.753  2.1909  0.5764  1.3229
25258SOL     OW78405   7.638   0.143   5.525  0.1501 -0.0450  0.2388
25258SOL    HW178406   7.650   0.049   5.530 -0.1998 -0.1093 -0.0612
25258SOL    HW278407   7.621   0.160   5.432 -0.9390  0.1659  0.4525
25259SOL     OW78408   3.285   0.804   7.854 -0.5806 -0.2402 -0.1099
25259SOL    HW178409   3.350   0.764   7.797 -0.3886 -1.0229  0.6433
25259SOL    HW278410   3.279   0.745   7.930 -0.7535  0.8210  0.7294
25260SOL     OW78411   1.577   7.448   6.625  0.4077 -0.3286  0.7039
25260SOL    HW178412   1.633   7.404   6.688 -0.2209  0.1991  1.6568
25260SOL    HW278413   1.496   7.397   6.624  0.9198 -1.1598 -0.7534
25261SOL     OW78414   4.181   8.659   4.606 -0.2040 -0.7118 -0.0756
25261SOL    HW178415   4.230   8.585   4.569  1.4763  0.1160  0.4209
25261SOL    HW278416   4.174   8.639   4.699 -0.3782 -0.5764 -0.0601
25262SOL     OW78417   8.088   1.714   7.736 -0.4040 -0.0033 -0.0788
25262SOL    HW178418   8.155   1.683   7.798 -1.3707  1.0585  1.5619
25262SOL    HW278419   8.111   1.806   7.721 -0.6066 -0.0589 -0.7488
25263SOL     OW78420   1.287   7.017   0.314  0.1119 -0.6518  0.3375
25263SOL    HW178421   1.223   7.087   0.302  0.7078 -0.0689  0.4516
25263SOL    HW278422   1.240   6.948   0.360 -0.0972  0.3079  1.6344
25264SOL     OW78423   7.015   7.662   9.878  0.3103  0.2512 -0.1996
25264SOL    HW178424   7.064   7.624   9.806  0.3645 -1.0831  0.5274
25264SOL    HW278425   7.017   7.596   9.947 -0.0367  1.3583  0.9082
25265SOL     OW78426   0.347   0.972  10.021  0.2260  0.4544 -0.3632
25265SOL    HW178427   0.410   0.929  10.080  0.4782  0.2710 -0.7652
25265SOL    HW278428   0.340   0.913   9.946  0.7676  1.2244 -1.0380
25266SOL     OW78429   6.993   6.369   7.578 -0.2021 -0.0252  0.0441
25266SOL    HW178430   6.907   6.363   7.536 -1.0505  0.2908  1.6683
25266SOL    HW278431   6.994   6.296   7.641  0.3805  0.4709  0.6228
25267SOL     OW78432   9.756   7.546   2.670  0.0362 -0.1534 -0.2036
25267SOL    HW178433   9.746   7.491   2.593  1.3235 -0.0229 -0.4848
25267SOL    HW278434   9.832   7.600   2.651 -0.3603  0.7310  0.6623
25268SOL     OW78435   2.481   2.814   9.617 -0.2110 -0.5920  0.1919
25268SOL    HW178436   2.484   2.845   9.526 -1.1350 -2.7605 -0.6357
25268SOL    HW278437   2.402   2.853   9.653 -0.9957 -1.3875 -0.6225
25269SOL     OW78438   1.786   5.831   9.596  0.0780 -0.0306  0.2963
25269SOL    HW178439   1.824   5.759   9.645  1.4115 -0.0071 -0.6533
25269SOL    HW278440   1.860   5.875   9.554 -0.8809  0.6855 -0.7449
25270SOL     OW78441   7.194   9.198   1.670  0.7367  0.3735  0.4443
25270SOL    HW178442   7.153   9.282   1.689 -0.6094 -0.0633 -0.4212
25270SOL    HW278443   7.177   9.183   1.577 -0.1280 -1.4089  0.8498
25271SOL     OW78444  10.049   5.601   2.724 -0.3669  0.2480 -0.3788
25271SOL    HW178445   9.962   5.614   2.762  0.0966 -0.2211  0.8725
25271SOL    HW278446  10.106   5.582   2.799  0.6024 -0.5466 -1.2853
25272SOL     OW78447   7.270   1.872   3.140  0.5005 -0.3551  0.1681
25272SOL    HW178448   7.257   1.777   3.130  0.9704 -0.5892  1.6354
25272SOL    HW278449   7.206   1.911   3.081  0.3026 -1.5861 -0.4648
25273SOL     OW78450   6.409   7.298   3.547 -0.0881  0.4421  1.0581
25273SOL    HW178451   6.349   7.290   3.622 -0.0807 -0.6235  0.9635
25273SOL    HW278452   6.487   7.250   3.574  0.4234  1.1620  0.8700
25274SOL     OW78453   8.439   2.780   5.560 -0.2874 -0.4864 -0.1415
25274SOL    HW178454   8.374   2.709   5.556  0.9639 -1.6583 -0.3057
25274SOL    HW278455   8.487   2.773   5.477 -1.5765  2.0179 -1.1936
25275SOL     OW78456   8.998   2.537   8.697  0.0310 -0.3517  0.0352
25275SOL    HW178457   9.086   2.522   8.664  0.3832 -1.0252  1.2505
25275SOL    HW278458   9.004   2.620   8.744  0.4357 -1.1772  1.4936
25276SOL     OW78459   5.439   8.302   4.522  0.1053 -0.0168 -0.2626
25276SOL    HW178460   5.420   8.357   4.446  1.5577  1.6737  0.5257
25276SOL    HW278461   5.534   8.296   4.524  0.2506  1.6041  2.4566
25277SOL     OW78462   9.238   4.446   5.555 -0.0600 -0.1063 -0.4541
25277SOL    HW178463   9.153   4.439   5.513 -0.7435  0.1558  0.8139
25277SOL    HW278464   9.277   4.525   5.518 -0.2626 -0.3676 -1.2281
25278SOL     OW78465   0.289   4.314   3.250  0.1547 -0.0686  0.3011
25278SOL    HW178466   0.294   4.395   3.200 -1.3571 -0.4490 -0.5223
25278SOL    HW278467   0.298   4.341   3.341  0.3632  0.9262  0.0014
25279SOL     OW78468   5.956   9.735   7.055 -0.2224 -0.3267  0.3208
25279SOL    HW178469   5.938   9.645   7.080  1.8717 -0.8654  0.0863
25279SOL    HW278470   6.032   9.729   6.996 -1.6770  1.3409 -1.9148
25280SOL     OW78471   6.004   3.716   9.463  0.0952  0.2852  0.1718
25280SOL    HW178472   6.006   3.705   9.558  0.1201 -0.3455  0.0983
25280SOL    HW278473   5.930   3.663   9.434  0.1048  0.4543 -0.1672
25281SOL     OW78474   7.642   8.534   1.860 -0.4115  0.3322  0.1900
25281SOL    HW178475   7.611   8.598   1.924 -0.8716  1.1481 -0.8223
25281SOL    HW278476   7.573   8.469   1.855 -0.5655  0.4950  0.2043
25282SOL     OW78477   7.388   4.002   2.271  0.5273  0.2232 -0.0701
25282SOL    HW178478   7.382   4.040   2.184  1.9271  0.2456 -0.1905
25282SOL    HW278479   7.299   4.002   2.304  0.1528  1.3499 -1.0214
25283SOL     OW78480   0.928   4.927   2.945 -0.6001  0.2844  0.5409
25283SOL    HW178481   0.940   4.968   3.031  0.2278 -0.5973  0.8649
25283SOL    HW278482   0.953   4.996   2.883 -1.3098  0.9648  0.9954
25284SOL     OW78483   3.701   4.158   0.215  0.3959 -0.0022 -0.4083
25284SOL    HW178484   3.660   4.244   0.204  0.2292  0.1351  1.1040
25284SOL    HW278485   3.673   4.128   0.301  3.9514  0.3934  1.0712
25285SOL     OW78486   6.835   7.637   9.365 -0.0766  0.0148  0.0691
25285SOL    HW178487   6.804   7.723   9.395 -1.4257 -0.0704 -0.9844
25285SOL    HW278488   6.755   7.586   9.352  0.5642 -0.6462 -1.5059
25286SOL     OW78489   8.249   6.886   3.394 -0.0659 -0.0496  0.0637
25286SOL    HW178490   8.187   6.813   3.394  0.7526 -0.7534 -0.5968
25286SOL    HW278491   8.312   6.864   3.463 -0.8189  0.9219  1.0994
25287SOL     OW78492   8.549   4.669   1.540  0.9270 -0.7479  0.1089
25287SOL    HW178493   8.615   4.708   1.596 -1.0670  0.5929  1.6726
25287SOL    HW278494   8.545   4.577   1.567  1.4911 -0.6265  0.6211
25288SOL     OW78495   3.937   9.115   5.240 -0.3151 -0.1097  0.1655
25288SOL    HW178496   3.984   9.103   5.158  0.7554  3.9313 -0.0234
25288SOL    HW278497   3.847   9.135   5.214 -0.3460 -0.3536  0.0837
25289SOL     OW78498   1.467   7.831   8.307  0.7579 -0.6691  0.0043
25289SOL    HW178499   1.522   7.870   8.375  2.4622 -0.9242 -1.1609
25289SOL    HW278500   1.445   7.903   8.249  0.3856 -0.6884  0.1176
25290SOL     OW78501  10.169   2.299   8.785 -0.2180 -0.0087 -0.0221
25290SOL    HW178502  10.163   2.227   8.849  0.9756 -0.0810  0.0346
25290SOL    HW278503  10.252   2.283   8.740 -0.0361  1.2369 -0.1451
25291SOL     OW78504   0.739   0.439   0.961  0.1399 -0.2077  0.4128
25291SOL    HW178505   0.690   0.374   0.911  0.5414 -1.0965  1.1418
25291SOL    HW278506   0.729   0.411   1.052  0.4869  0.6433  0.7156
25292SOL     OW78507   5.704   8.938   6.802  0.1544  0.0110  0.4626
25292SOL    HW178508   5.759   9.014   6.783 -1.8758  1.1608 -1.1738
25292SOL    HW278509   5.684   8.946   6.895  1.9357  0.0862  0.8756
25293SOL     OW78510   4.957   7.574   7.455  0.0506 -0.1837 -0.1511
25293SOL    HW178511   5.014   7.594   7.380 -1.4259  2.3416 -0.7041
25293SOL    HW278512   4.970   7.647   7.515 -0.1818 -1.2529  1.2476
25294SOL     OW78513   2.205  10.272   1.730  0.8540  0.7061  0.6060
25294SOL    HW178514   2.201  10.363   1.699  0.0854  0.8235  1.0325
25294SOL    HW278515   2.281  10.270   1.788  0.8854  1.0749  0.5816
25295SOL     OW78516   0.751   0.669   2.616 -1.1070  0.2238  0.0417
25295SOL    HW178517   0.835   0.711   2.631 -1.4415  0.3152  1.8169
25295SOL    HW278518   0.688   0.741   2.612 -1.3365  0.0565  0.5446
25296SOL     OW78519   8.884   8.202   5.765  0.8043  0.5457 -0.3547
25296SOL    HW178520   8.831   8.200   5.845  0.0586 -0.6802 -0.8484
25296SOL    HW278521   8.885   8.111   5.735  1.0627  0.9886 -1.7393
25297SOL     OW78522   7.671   3.724  10.069  0.1015  0.1653  0.3455
25297SOL    HW178523   7.594   3.761  10.025  0.4902 -1.1616 -1.5676
25297SOL    HW278524   7.698   3.793  10.130 -1.9093  1.1219  0.2541
25298SOL     OW78525   1.670   5.392  10.038  0.0719 -0.1543  0.2021
25298SOL    HW178526   1.744   5.331  10.034 -0.0028 -0.2537  0.3212
25298SOL    HW278527   1.593   5.336  10.028  0.0239 -0.0094 -0.3180
25299SOL     OW78528   0.409   5.512   7.852 -0.2250  0.3408 -0.6585
25299SOL    HW178529   0.374   5.470   7.930 -1.9095  0.4641 -1.2857
25299SOL    HW278530   0.500   5.485   7.848  0.2869  1.3605  2.0324
25300SOL     OW78531   0.334  10.159   9.611  0.0356  0.3931 -0.0402
25300SOL    HW178532   0.282  10.138   9.533 -0.0988 -1.2667  0.4609
25300SOL    HW278533   0.417  10.114   9.597 -0.6715 -1.5784  1.5846
25301SOL     OW78534   1.796   9.899   2.213 -0.5761 -0.0386  0.4001
25301SOL    HW178535   1.708   9.937   2.209 -0.4649  0.2435  0.5235
25301SOL    HW278536   1.782   9.806   2.230 -0.8345  0.4507  3.5002
25302SOL     OW78537   5.869   9.233  10.179 -0.1115 -0.1300 -0.1293
25302SOL    HW178538   5.843   9.324  10.195 -1.8741 -0.6073 -0.0699
25302SOL    HW278539   5.900   9.233  10.088  1.2172  0.7791  0.2935
25303SOL     OW78540   5.437   5.141   5.630  0.1704 -0.4165 -0.6258
25303SOL    HW178541   5.482   5.217   5.668  1.3891 -1.4129  0.0076
25303SOL    HW278542   5.356   5.133   5.682 -0.0475  0.5198 -0.8008
25304SOL     OW78543   4.575   0.705   5.129  0.3209  0.2755  0.2699
25304SOL    HW178544   4.517   0.649   5.181 -2.9143  2.4805 -0.6750
25304SOL    HW278545   4.579   0.661   5.044  1.0988 -0.5151  0.7009
25305SOL     OW78546   4.355   7.619   2.880 -0.4367 -0.6820  0.0721
25305SOL    HW178547   4.393   7.541   2.839 -1.5013 -0.5169 -1.3278
25305SOL    HW278548   4.284   7.585   2.935  0.4301 -0.8357  1.1257
25306SOL     OW78549   3.077   8.442   7.231 -0.3756  0.0641  0.9157
25306SOL    HW178550   3.107   8.533   7.239  0.0078  0.1127 -0.8044
25306SOL    HW278551   3.109   8.400   7.311  0.7393  1.0917  1.0429
25307SOL     OW78552   2.025   1.147   9.685 -0.0186 -0.3011  0.2915
25307SOL    HW178553   2.072   1.098   9.618 -2.8648 -0.0336 -2.1467
25307SOL    HW278554   1.957   1.195   9.637 -0.7624  1.8389  3.1457
25308SOL     OW78555   8.236   3.017   1.096 -0.5480 -0.8081  0.7352
25308SOL    HW178556   8.328   2.991   1.102 -0.6211 -0.8183  1.8946
25308SOL    HW278557   8.236   3.089   1.033  0.1795 -1.1304  0.3534
25309SOL     OW78558   1.224   7.442   6.598  0.5695  0.1768 -0.0175
25309SOL    HW178559   1.219   7.534   6.571 -0.2424 -0.6664 -3.0257
25309SOL    HW278560   1.265   7.446   6.685 -1.7680  3.5531  1.1992
25310SOL     OW78561   9.299   2.411   2.232 -0.1771  0.0283 -0.0150
25310SOL    HW178562   9.382   2.384   2.271  0.0196  1.5330  0.6868
25310SOL    HW278563   9.284   2.347   2.162  1.0252 -0.9005  0.5280
25311SOL     OW78564   3.997   9.621   6.925 -0.1906  0.3280  0.4468
25311SOL    HW178565   4.010   9.650   7.015  0.3971  1.5245 -0.0069
25311SOL    HW278566   4.020   9.696   6.871 -1.9805  0.1429 -0.6822
25312SOL     OW78567   4.107   8.347   9.180  0.6606 -0.5262 -0.4353
25312SOL    HW178568   4.084   8.410   9.247 -1.4271 -0.2632 -1.3296
25312SOL    HW278569   4.152   8.398   9.113  4.1697 -1.0289  1.2753
25313SOL     OW78570   0.419   6.089   0.616  0.2048  0.4196 -0.3332
25313SOL    HW178571   0.438   6.001   0.585 -1.1058  0.1962 -0.5609
25313SOL    HW278572   0.504   6.125   0.642  0.5293 -1.7183  1.9247
25314SOL     OW78573   5.735   8.523   0.140  0.2722 -0.3257 -0.5610
25314SOL    HW178574   5.659   8.520   0.083  0.2671 -0.1000 -0.5648
25314SOL    HW278575   5.805   8.482   0.089 -0.2133 -1.9549  0.0077
25315SOL     OW78576   6.497   5.771   1.636 -0.2194 -0.5341 -0.3316
25315SOL    HW178577   6.451   5.848   1.605  2.4647  0.1515 -3.1500
25315SOL    HW278578   6.449   5.697   1.599 -1.4604 -0.1509  0.4512
25316SOL     OW78579   3.557   1.709   1.941  0.0615 -0.5756  0.0146
25316SOL    HW178580   3.491   1.777   1.953 -0.9237 -1.7154  1.2834
25316SOL    HW278581   3.514   1.640   1.892  0.6666 -0.8239 -0.1833
25317SOL     OW78582   5.750   4.673   9.928 -0.0243 -0.2199  0.0553
25317SOL    HW178583   5.754   4.579   9.909  0.5622 -0.3568  0.8144
25317SOL    HW278584   5.667   4.702   9.890 -0.9424 -1.3499  1.1414
25318SOL     OW78585  10.359   5.584   9.415 -0.1576 -0.3210  0.0967
25318SOL    HW178586  10.287   5.594   9.478 -0.5129 -2.2084  0.0379
25318SOL    HW278587  10.436   5.618   9.461 -0.5933 -0.7601  1.1869
25319SOL     OW78588   4.775   1.804   2.118  0.1255  0.2806  0.1537
25319SOL    HW178589   4.824   1.797   2.036 -0.2463 -1.8951  0.0603
25319SOL    HW278590   4.722   1.883   2.108 -2.8825 -1.8757 -3.4224
25320SOL     OW78591   3.367   4.576   1.055  0.0215  0.5578  0.0067
25320SOL    HW178592   3.359   4.501   0.996  1.4611  0.2456  0.1819
25320SOL    HW278593   3.321   4.647   1.010  0.8690  0.2576 -1.3701
25321SOL     OW78594   8.453   3.185   2.127  0.1997 -0.0447  0.6037
25321SOL    HW178595   8.506   3.178   2.048  0.5927 -0.1208  0.8719
25321SOL    HW278596   8.365   3.204   2.095  0.9207  3.2075  0.2279
25322SOL     OW78597   6.631   5.596   6.316  0.2664 -0.2308  0.5881
25322SOL    HW178598   6.642   5.523   6.254  2.2955 -0.7977  1.5350
25322SOL    HW278599   6.537   5.612   6.316 -0.3657 -3.2544  0.7546
25323SOL     OW78600   3.595   1.651   4.319 -0.3108  0.0305 -0.0521
25323SOL    HW178601   3.610   1.746   4.319 -0.0983  0.0253  1.7687
25323SOL    HW278602   3.505   1.641   4.287 -1.8248  1.1963  3.3550
25324SOL     OW78603   2.038   2.020   7.880  0.0560 -0.3125 -0.0539
25324SOL    HW178604   2.116   1.970   7.904  2.0233  2.1062 -1.0001
25324SOL    HW278605   2.063   2.064   7.799 -1.0554  3.1299  1.3262
25325SOL     OW78606   1.004   9.562  10.067 -0.2258 -0.1634  0.7638
25325SOL    HW178607   1.071   9.591  10.129  0.5312 -1.8525  0.7875
25325SOL    HW278608   0.961   9.488  10.111  0.1760 -1.2545 -0.5798
25326SOL     OW78609   8.393   5.054   2.548 -0.1903  0.2791 -0.7478
25326SOL    HW178610   8.415   5.134   2.502  2.1688  0.4029  0.4723
25326SOL    HW278611   8.458   4.990   2.518  0.1925 -0.1621  0.9217
25327SOL     OW78612   4.479   6.881   8.749  0.8433  0.4779 -0.3791
25327SOL    HW178613   4.446   6.795   8.776 -2.4985  2.1219  1.4673
25327SOL    HW278614   4.507   6.922   8.831 -2.0573  2.7196 -0.3360
25328SOL     OW78615   2.772   3.895   5.754  0.1323  0.8726  0.0940
25328SOL    HW178616   2.819   3.837   5.814 -0.4719  0.9887  0.6864
25328SOL    HW278617   2.769   3.847   5.671  0.1686  0.3166  0.4088
25329SOL     OW78618   5.857   6.815   1.088 -0.1612 -0.3129 -0.6927
25329SOL    HW178619   5.866   6.890   1.147 -1.0868  1.8525 -3.0599
25329SOL    HW278620   5.763   6.811   1.069  0.2992  0.9658 -4.0380
25330SOL     OW78621   8.333   7.857   0.880  0.1950  0.1977  0.4211
25330SOL    HW178622   8.241   7.831   0.871 -0.2523  0.6265  3.0439
25330SOL    HW278623   8.330   7.950   0.902  1.3638  0.5511 -0.7766
25331SOL     OW78624   5.263   5.202   9.976  0.3204 -0.0702 -0.1274
25331SOL    HW178625   5.312   5.264  10.030  0.7618 -1.4599  1.1085
25331SOL    HW278626   5.196   5.256   9.933 -0.0933  1.0707  1.8414
25332SOL     OW78627   2.587  10.284   0.367 -0.5210  0.1104  0.6299
25332SOL    HW178628   2.613  10.365   0.410  0.2331 -0.4042  1.1673
25332SOL    HW278629   2.507  10.306   0.319  1.0920  1.8826 -1.4551
25333SOL     OW78630   8.119   0.484   7.498  0.4960 -0.0224  0.2471
25333SOL    HW178631   8.037   0.533   7.497  0.8557  0.6039  0.4880
25333SOL    HW278632   8.109   0.422   7.569  0.6548  0.8261  1.0313
25334SOL     OW78633   4.280  10.159   1.594 -0.1482  0.1187 -0.7106
25334SOL    HW178634   4.212  10.130   1.533 -0.9376  0.6207 -0.0855
25334SOL    HW278635   4.337  10.216   1.542 -0.6978  0.3806 -1.0330
25335SOL     OW78636   0.741   0.006   5.294 -0.3521  0.3271  0.2119
25335SOL    HW178637   0.826   0.038   5.322 -0.9415  2.1233  0.0609
25335SOL    HW278638   0.753  -0.089   5.285  0.5665 -0.1137  4.1145
25336SOL     OW78639   0.107  10.105   7.610 -0.9137  0.2867 -0.0679
25336SOL    HW178640   0.177  10.168   7.597 -0.5311 -0.4047 -1.5124
25336SOL    HW278641   0.051  10.145   7.677  2.1638 -0.2642  3.1327
25337SOL     OW78642   8.718   8.451   8.652 -0.3775  0.1819  0.5132
25337SOL    HW178643   8.701   8.357   8.658 -0.5970  0.1813 -0.0132
25337SOL    HW278644   8.810   8.457   8.625 -0.5826  0.0921 -0.2375
25338SOL     OW78645   0.267   7.560   9.124 -0.5467 -0.6630  0.0759
25338SOL    HW178646   0.289   7.620   9.052 -1.8739  1.0449  1.0323
25338SOL    HW278647   0.340   7.498   9.126 -0.1421 -0.3526 -2.2935
25339SOL     OW78648   8.677   3.975   6.816 -0.2146 -0.1970  0.3511
25339SOL    HW178649   8.607   3.913   6.833 -0.3554 -0.2047 -0.2422
25339SOL    HW278650   8.750   3.921   6.785  0.5364 -0.3581  2.2275
25340SOL     OW78651   9.341   3.558   5.408 -0.2106  0.1503  0.2564
25340SOL    HW178652   9.292   3.611   5.471  1.0006  0.7063  0.7626
25340SOL    HW278653   9.415   3.613   5.383  1.1974 -1.3571  0.9465
25341SOL     OW78654   0.234   3.655   2.912  0.5146 -0.0669 -0.1604
25341SOL    HW178655   0.199   3.692   2.993  1.2921 -0.3999  0.3405
25341SOL    HW278656   0.326   3.681   2.913  0.6319 -0.4639 -0.7141
25342SOL     OW78657   2.099   7.265   1.371  0.0062  0.3265 -0.1190
25342SOL    HW178658   2.075   7.310   1.451  0.4922 -2.1290  1.5085
25342SOL    HW278659   2.016   7.251   1.325 -0.5005  0.2093  0.8185
25343SOL     OW78660   5.141   1.024   5.217 -0.1832 -0.1692 -0.2028
25343SOL    HW178661   5.099   0.939   5.228 -1.2122 -0.0909 -2.8425
25343SOL    HW278662   5.229   1.004   5.186  0.7445 -0.2655  2.2942
25344SOL     OW78663   8.604   1.376   0.185 -0.2832  0.2574 -0.2416
25344SOL    HW178664   8.643   1.412   0.264 -2.5852  1.0811  0.5974
25344SOL    HW278665   8.623   1.441   0.117  1.2902 -0.2266 -0.2936
25345SOL     OW78666   5.190   8.444   7.843  0.6325  0.6522 -0.0064
25345SOL    HW178667   5.214   8.535   7.825  0.8085  0.6263  0.0913
25345SOL    HW278668   5.176   8.405   7.757  0.7690  0.7155 -0.0576
25346SOL     OW78669   1.278   7.685   0.715  0.1092  0.4063 -0.5474
25346SOL    HW178670   1.262   7.685   0.809  2.0235 -0.7281 -0.1486
25346SOL    HW278671   1.208   7.630   0.678  0.3831 -0.6735  0.4777
25347SOL     OW78672   6.630   7.522   1.429  0.3154 -0.6730  0.1704
25347SOL    HW178673   6.618   7.553   1.519  1.1313  0.8342 -0.1910
25347SOL    HW278674   6.725   7.528   1.415  0.3095 -1.8689 -0.4671
25348SOL     OW78675   8.685   5.538   8.783 -0.6062  0.8503 -0.5334
25348SOL    HW178676   8.628   5.472   8.745 -0.8287  1.2647 -0.9382
25348SOL    HW278677   8.752   5.489   8.830 -0.7559  0.3419 -0.8467
25349SOL     OW78678   3.863   2.970   5.733 -0.5151 -0.0794  0.0778
25349SOL    HW178679   3.858   3.001   5.643 -0.0568 -3.8146 -1.4480
25349SOL    HW278680   3.937   3.018   5.772 -0.2276  1.0557 -1.7796
25350SOL     OW78681   5.709  10.344   7.140  0.0686  0.0021  0.3373
25350SOL    HW178682   5.749  10.258   7.125 -0.7298 -0.5401  1.1798
25350SOL    HW278683   5.740  10.398   7.067 -1.0745 -1.5819 -1.4262
25351SOL     OW78684   9.842   0.887   9.600  0.2864 -0.0632  0.6351
25351SOL    HW178685   9.773   0.948   9.573 -0.4101 -0.1209  2.1387
25351SOL    HW278686   9.867   0.841   9.520 -2.0021 -0.6075  0.1692
25352SOL     OW78687   2.976   1.712   0.871 -0.4745  0.0552 -1.0026
25352SOL    HW178688   2.915   1.785   0.886  0.7029  0.9384 -0.3591
25352SOL    HW278689   3.018   1.698   0.955  0.9332  0.1401 -1.6712
25353SOL     OW78690   2.440   4.555   6.359 -0.6564  0.0480 -0.2402
25353SOL    HW178691   2.416   4.575   6.449 -1.3254 -1.9893  0.0892
25353SOL    HW278692   2.535   4.556   6.359 -0.6418  1.3321  0.1389
25354SOL     OW78693   2.113   6.964   5.437  0.1503  0.6606 -0.5277
25354SOL    HW178694   2.161   6.980   5.355  1.3999  1.6472  0.3668
25354SOL    HW278695   2.038   6.910   5.410  0.9875  0.2542 -2.1846
25355SOL     OW78696   5.793   6.738   2.357 -0.4449  0.3328 -0.6410
25355SOL    HW178697   5.700   6.743   2.380 -0.2693 -0.5010  0.3287
25355SOL    HW278698   5.801   6.654   2.311 -0.1190  0.2684 -0.4649
25356SOL     OW78699   3.436   2.450  10.177  0.2878  0.1314  0.1314
25356SOL    HW178700   3.433   2.545  10.165  0.1263  0.0946 -0.1361
25356SOL    HW278701   3.383   2.416  10.106  1.0897 -0.2049 -0.3205
25357SOL     OW78702   5.586   1.691   5.501 -0.4783  0.4457  0.1140
25357SOL    HW178703   5.650   1.635   5.456 -1.7514 -0.8307 -0.2034
25357SOL    HW278704   5.584   1.658   5.591 -3.3639 -2.1615 -0.7434
25358SOL     OW78705   7.374   7.908   8.731 -0.0657  0.2149 -0.0155
25358SOL    HW178706   7.380   7.913   8.826 -1.7845 -0.3897  0.1613
25358SOL    HW278707   7.434   7.837   8.707  0.1658  0.1848  0.6303
25359SOL     OW78708   3.516   1.389   3.894 -0.0418  0.1741 -0.1347
25359SOL    HW178709   3.569   1.454   3.941 -0.5856 -0.1031  0.9088
25359SOL    HW278710   3.576   1.349   3.832  0.6377  0.7702  0.1267
25360SOL     OW78711   6.587   6.302   3.182 -0.2571 -0.2525  0.0470
25360SOL    HW178712   6.628   6.257   3.257  0.2123  1.4193  0.8294
25360SOL    HW278713   6.655   6.302   3.114  1.1461  2.3978  1.2941
25361SOL     OW78714   6.150   5.264   6.982  0.6201  0.8397  0.1337
25361SOL    HW178715   6.075   5.320   7.001 -1.0921 -1.5473  0.8733
25361SOL    HW278716   6.167   5.277   6.889 -0.8449  1.2725 -0.0944
25362SOL     OW78717   8.414   4.669   7.067 -0.2180 -0.8143 -0.5106
25362SOL    HW178718   8.379   4.586   7.098  0.7141 -1.1444 -0.3023
25362SOL    HW278719   8.435   4.717   7.147  1.7889 -1.4910 -0.5733
25363SOL     OW78720   8.657   1.984   4.977  0.0063 -0.4793 -0.0192
25363SOL    HW178721   8.576   1.935   4.961  0.5557 -1.6769  0.7132
25363SOL    HW278722   8.726   1.929   4.940  0.7161 -0.6289  1.4707
25364SOL     OW78723   0.876   4.640   2.751  0.3037 -0.0571 -0.3436
25364SOL    HW178724   0.923   4.679   2.677 -1.9693  0.6920 -1.4976
25364SOL    HW278725   0.879   4.707   2.819 -0.5970  0.7594 -1.0689
25365SOL     OW78726   6.548   7.752   0.212 -0.1061 -0.0637  0.1481
25365SOL    HW178727   6.605   7.719   0.282  2.2088  3.3781  0.1471
25365SOL    HW278728   6.604   7.752   0.134 -1.3864 -0.1107 -0.7998
25366SOL     OW78729   4.113   7.220   1.702 -0.0940  0.5209  0.2401
25366SOL    HW178730   4.101   7.134   1.740  2.5217 -0.1521 -0.2706
25366SOL    HW278731   4.116   7.280   1.777  2.8664 -0.5055  1.0656
25367SOL     OW78732   1.300   1.268   4.034 -0.0638 -0.3091 -0.1386
25367SOL    HW178733   1.277   1.361   4.031  1.6698  0.2650  1.6946
25367SOL    HW278734   1.380   1.261   3.982  0.0278 -0.6989  0.0499
25368SOL     OW78735   7.684   1.589   0.463  0.3934  0.1720 -0.0684
25368SOL    HW178736   7.725   1.637   0.391  1.5285 -0.2242  0.2937
25368SOL    HW278737   7.702   1.497   0.443 -0.5081 -0.0193 -0.0101
25369SOL     OW78738   9.122   4.776   9.586  0.3855  0.3420  0.1654
25369SOL    HW178739   9.156   4.688   9.572  2.2128  1.1426 -0.7421
25369SOL    HW278740   9.194   4.823   9.627  0.0843  1.8635 -0.9655
25370SOL     OW78741   9.251   7.714   1.577 -0.5975 -0.1650 -0.4694
25370SOL    HW178742   9.284   7.801   1.599  1.8257 -0.6854 -1.7494
25370SOL    HW278743   9.282   7.657   1.647  0.4849 -0.5019 -1.2068
25371SOL     OW78744   5.571   4.607  10.232  0.5892 -0.3301  0.5722
25371SOL    HW178745   5.484   4.635  10.203  1.6996  1.3805 -1.3706
25371SOL    HW278746   5.578   4.516  10.203 -1.4229 -1.3744  3.0059
25372SOL     OW78747   0.107   4.348   6.619  0.2060 -0.7002  0.3088
25372SOL    HW178748   0.019   4.312   6.631  0.4124 -1.7839 -1.1635
25372SOL    HW278749   0.166   4.277   6.645  0.6317 -0.7088 -0.6425
25373SOL     OW78750   7.739   4.053  10.002  0.4605 -1.1358  0.0338
25373SOL    HW178751   7.697   4.012  10.078  1.1449 -1.9113  0.0117
25373SOL    HW278752   7.748   4.145  10.027 -0.7825 -1.0443  0.2301
25374SOL     OW78753   8.167   0.149   3.225 -0.2938 -0.3663  0.5560
25374SOL    HW178754   8.193   0.144   3.317 -1.4399  3.3233  1.2446
25374SOL    HW278755   8.072   0.148   3.226 -0.3226 -0.2180 -0.6073
25375SOL     OW78756   3.535   2.556   0.113 -1.1564  0.2462  0.0846
25375SOL    HW178757   3.555   2.597   0.029 -0.5759 -0.1821  0.0033
25375SOL    HW278758   3.451   2.514   0.100 -1.1896  0.3986 -0.2036
25376SOL     OW78759   1.471   8.044   1.559 -0.0402 -0.0327 -0.0524
25376SOL    HW178760   1.500   8.035   1.650  1.8913 -2.6170 -0.7963
25376SOL    HW278761   1.378   8.022   1.562 -0.2780  1.0204  1.4075
25377SOL     OW78762   9.590   0.985   3.056 -0.0895 -0.5350  0.5435
25377SOL    HW178763   9.570   0.897   3.025 -1.6153  0.5509 -1.9052
25377SOL    HW278764   9.504   1.028   3.062  0.7553  1.4422 -0.6756
25378SOL     OW78765  10.030   2.017   4.277 -0.4027 -0.6265 -0.4596
25378SOL    HW178766  10.037   1.963   4.198  1.6339 -2.5184  0.8789
25378SOL    HW278767  10.043   2.107   4.246 -2.2439 -0.9993 -2.5520
25379SOL     OW78768  10.118   5.984   8.951 -0.3350  0.2507  0.0043
25379SOL    HW178769  10.206   5.946   8.959 -0.0161  0.8892 -0.3702
25379SOL    HW278770  10.070   5.921   8.896 -0.1286 -0.1227  0.2466
25380SOL     OW78771   6.732   5.284   5.048 -0.3599  0.2069  0.5387
25380SOL    HW178772   6.723   5.203   5.097 -0.5759  0.2624  0.5922
25380SOL    HW278773   6.642   5.311   5.029 -0.2981 -1.0203 -1.8947
25381SOL     OW78774   8.228   8.321   2.517 -0.1157 -0.0360 -0.0728
25381SOL    HW178775   8.176   8.294   2.442 -0.0525 -1.1975  0.2794
25381SOL    HW278776   8.286   8.247   2.534  0.2586  0.4345  0.7707
25382SOL     OW78777   9.480   8.454   7.514 -0.4247  0.4662  0.4081
25382SOL    HW178778   9.435   8.400   7.449  0.1515  2.8886 -2.2155
25382SOL    HW278779   9.409   8.499   7.561 -0.8194  0.0550  0.2139
25383SOL     OW78780   3.632   3.336   6.814 -0.0401  0.0728  0.5885
25383SOL    HW178781   3.547   3.368   6.783  0.7003  0.2938 -1.3909
25383SOL    HW278782   3.663   3.404   6.874 -1.5302 -0.3391  1.8758
25384SOL     OW78783   0.585   7.445   4.370 -0.1348  0.1213 -0.5029
25384SOL    HW178784   0.512   7.427   4.311  0.1000  0.1039 -0.7932
25384SOL    HW278785   0.592   7.541   4.370 -0.2067  0.1269 -0.4112
25385SOL     OW78786   7.282   6.196   1.684  0.2276  0.3584 -0.3240
25385SOL    HW178787   7.282   6.138   1.608 -0.8807 -0.4943  0.2921
25385SOL    HW278788   7.331   6.273   1.655  1.2001 -0.5992 -1.3753
25386SOL     OW78789   9.007   5.662   7.811 -0.6099  0.1938 -1.1166
25386SOL    HW178790   8.985   5.607   7.736 -0.0359 -1.6489 -0.0177
25386SOL    HW278791   9.095   5.635   7.836 -0.7574  0.7955  0.1606
25387SOL     OW78792   4.724   1.438   8.461 -0.3404  0.6395 -0.4087
25387SOL    HW178793   4.734   1.464   8.370 -1.8208  0.7358 -0.5645
25387SOL    HW278794   4.654   1.494   8.495 -1.1311 -0.6820  0.2288
25388SOL     OW78795   0.334   6.901   7.663  0.0376  0.4110 -0.2300
25388SOL    HW178796   0.262   6.869   7.718 -0.9266  0.4983 -1.4050
25388SOL    HW278797   0.349   6.831   7.600 -0.1860  1.0859 -1.0558
25389SOL     OW78798   5.147   0.197   0.511  0.5557 -0.3894  0.1751
25389SOL    HW178799   5.179   0.239   0.591  0.0181 -1.1493  0.8027
25389SOL    HW278800   5.100   0.120   0.542 -0.1012 -0.4132 -0.8524
25390SOL     OW78801   5.021   7.159   7.260 -0.1647  0.2719  0.3972
25390SOL    HW178802   4.949   7.099   7.240  1.1386 -0.5059 -2.5840
25390SOL    HW278803   5.068   7.117   7.333 -0.9290 -0.8590  0.2706
25391SOL     OW78804   3.935   4.689   8.785 -0.1266 -0.1257 -0.0024
25391SOL    HW178805   3.862   4.647   8.739 -0.9603  0.4389  0.7566
25391SOL    HW278806   3.942   4.775   8.745 -1.5412  0.7734  1.5280
25392SOL     OW78807   0.367   8.318   5.181 -0.3833  0.5594 -0.2102
25392SOL    HW178808   0.428   8.380   5.142 -1.1637  1.6328  0.1997
25392SOL    HW278809   0.280   8.354   5.161 -1.0040 -1.8424 -2.3162
25393SOL     OW78810   5.399   8.283   5.561  0.6310 -0.4762 -0.1158
25393SOL    HW178811   5.374   8.369   5.593  2.1626  0.4870 -1.3974
25393SOL    HW278812   5.411   8.294   5.467  2.1943 -1.7427 -0.1116
25394SOL     OW78813   1.634   4.644   2.857 -0.9773  0.6941 -0.4276
25394SOL    HW178814   1.719   4.609   2.883 -0.0070  2.4970 -0.9742
25394SOL    HW278815   1.613   4.597   2.777 -0.0885  0.8001 -0.7411
25395SOL     OW78816   2.574   3.483   0.803 -0.9335  0.1587 -0.0784
25395SOL    HW178817   2.519   3.556   0.832 -0.2908 -0.0034  1.6728
25395SOL    HW278818   2.615   3.451   0.883 -0.0708 -1.2002 -1.0268
25396SOL     OW78819   4.279   6.261   5.436  0.1532 -0.4002  0.5648
25396SOL    HW178820   4.304   6.211   5.513  0.0174  0.5465  1.2451
25396SOL    HW278821   4.214   6.323   5.467  1.1597  0.9955  0.0252
25397SOL     OW78822   0.333   4.922   8.980 -0.8594  0.1303 -0.5245
25397SOL    HW178823   0.426   4.918   9.003 -0.9265  0.1208 -0.2554
25397SOL    HW278824   0.287   4.923   9.064 -1.0992  0.2278 -0.6550
25398SOL     OW78825   7.123   4.654   7.852 -0.0092  0.2927  0.5349
25398SOL    HW178826   7.102   4.715   7.781 -0.7066 -0.7268 -0.1692
25398SOL    HW278827   7.038   4.626   7.885  0.2996 -0.5899  0.5964
25399SOL     OW78828   1.120   1.967   5.894 -0.1228 -0.0654  0.7515
25399SOL    HW178829   1.091   1.972   5.985  0.6928  0.5365  0.9857
25399SOL    HW278830   1.214   1.980   5.898 -0.1458  0.4746 -0.2268
25400SOL     OW78831   2.609   9.940   9.646  0.0728 -0.1284  0.1865
25400SOL    HW178832   2.673   9.908   9.709  0.8580  1.2819  0.1467
25400SOL    HW278833   2.583  10.026   9.680 -0.2921  0.1887 -0.8415
25401SOL     OW78834   2.878   0.934   8.702  0.5221 -0.4776  0.0364
25401SOL    HW178835   2.797   0.902   8.662  0.1950 -0.1116  0.4002
25401SOL    HW278836   2.947   0.895   8.648  0.1092 -0.7252 -0.3314
25402SOL     OW78837   3.125   3.035   8.288 -0.1683  0.1645  0.2035
25402SOL    HW178838   3.066   3.103   8.320 -0.7943  0.2794 -1.1016
25402SOL    HW278839   3.196   3.032   8.352 -0.4154  1.6592  0.5967
25403SOL     OW78840   6.112   2.283   8.791  0.2125  0.6870  0.3577
25403SOL    HW178841   6.160   2.346   8.845 -1.6853 -0.6147  3.9041
25403SOL    HW278842   6.043   2.334   8.749  1.6192  1.7132 -0.7947
25404SOL     OW78843   5.136   3.304   0.708 -0.0273  0.0194 -0.2332
25404SOL    HW178844   5.089   3.329   0.628  1.8781  1.5883 -0.9281
25404SOL    HW278845   5.136   3.208   0.707 -2.1689 -0.0283 -0.7716
25405SOL     OW78846   5.754   8.309   7.425 -0.1644  0.4347 -0.0566
25405SOL    HW178847   5.742   8.317   7.330  0.9594  1.9007 -0.1128
25405SOL    HW278848   5.672   8.344   7.462 -0.6100 -0.1522 -0.4792
25406SOL     OW78849   4.410   8.218   7.160 -0.0930  0.1892 -0.0185
25406SOL    HW178850   4.321   8.245   7.182 -0.6920 -0.5107 -1.4572
25406SOL    HW278851   4.399   8.148   7.096  1.5017  1.2180 -1.5126
25407SOL     OW78852   0.083   1.028   0.434  0.1483 -0.3306 -0.5294
25407SOL    HW178853   0.111   1.002   0.346  1.1590 -0.8061 -0.0832
25407SOL    HW278854   0.121   1.115   0.446 -0.4852 -0.0104 -0.7725
25408SOL     OW78855   9.919   0.586   7.794 -0.0487  0.7246 -0.4657
25408SOL    HW178856   9.920   0.666   7.846 -1.5198  1.0137 -0.8146
25408SOL    HW278857   9.975   0.525   7.842  0.5592  1.7416  0.1563
25409SOL     OW78858   8.945   4.143   0.186 -0.2165  0.1807  0.1077
25409SOL    HW178859   8.955   4.103   0.272  1.9722 -0.0507 -0.2057
25409SOL    HW278860   9.032   4.139   0.147 -0.1369  4.0882 -0.4897
25410SOL     OW78861   2.544   8.113  10.244  0.7854 -0.5819  0.3246
25410SOL    HW178862   2.596   8.084  10.170  2.0771 -0.8256  1.2872
25410SOL    HW278863   2.545   8.040  10.305 -0.4248 -0.4638  0.5213
25411SOL     OW78864   0.038   4.364   7.713  0.0038 -0.1412 -0.6530
25411SOL    HW178865   0.034   4.297   7.645 -2.3075 -0.1041 -0.6602
25411SOL    HW278866   0.103   4.427   7.682  0.8735 -1.4289 -1.5298
25412SOL     OW78867   5.883   7.004   9.890  0.5469 -0.5742 -0.2796
25412SOL    HW178868   5.962   7.049   9.859  1.3577 -0.7207  1.4547
25412SOL    HW278869   5.885   7.016   9.985 -2.1184  0.3672 -0.2567
25413SOL     OW78870   4.149   0.156   1.254 -0.0508 -0.6999  0.6669
25413SOL    HW178871   4.055   0.143   1.259 -0.0889 -0.2334  1.4035
25413SOL    HW278872   4.184   0.072   1.226 -0.7106 -0.7765  0.0625
25414SOL     OW78873   5.434   5.269   0.186 -0.3878  0.0189  0.1419
25414SOL    HW178874   5.384   5.190   0.206  1.8063 -0.8149  3.0257
25414SOL    HW278875   5.479   5.248   0.104  0.4299 -1.9981  1.0126
25415SOL     OW78876   4.173   8.539   4.848  0.1730  0.1767  0.3125
25415SOL    HW178877   4.154   8.447   4.865  2.2729 -0.8391 -2.2504
25415SOL    HW278878   4.234   8.564   4.917 -0.8813 -0.1150  1.3853
25416SOL     OW78879   4.090   3.426   3.054  0.0315  0.2105  0.1103
25416SOL    HW178880   4.135   3.446   2.971 -0.0088  3.3516  0.7336
25416SOL    HW278881   4.096   3.331   3.061 -1.4109 -0.4453 -4.2938
25417SOL     OW78882   9.271   6.603   2.139 -0.5043 -0.9061 -0.8071
25417SOL    HW178883   9.221   6.674   2.101  0.4710  0.2005 -0.0876
25417SOL    HW278884   9.211   6.561   2.200 -0.5459  0.5257  0.1925
25418SOL     OW78885   9.225   0.991   4.613  0.4259  0.1684  0.4095
25418SOL    HW178886   9.290   1.060   4.624  0.7015  0.0597 -0.4756
25418SOL    HW278887   9.166   1.023   4.545 -1.5333  1.0338  2.4073
25419SOL     OW78888   7.020   0.401   1.246  0.3450  0.1354 -0.6019
25419SOL    HW178889   6.927   0.378   1.235  0.2681 -0.0562  0.3894
25419SOL    HW278890   7.068   0.328   1.207  0.0856  0.1572 -0.9700
25420SOL     OW78891   5.342   0.212   5.091 -0.0040 -0.0632 -1.0173
25420SOL    HW178892   5.356   0.228   5.184 -1.7129 -2.2271 -0.2966
25420SOL    HW278893   5.402   0.141   5.068 -1.7900 -1.8131 -0.6401
25421SOL     OW78894   7.943   9.914   3.748  0.3080  0.1762 -0.4527
25421SOL    HW178895   7.954  10.003   3.714 -0.0706  0.5360  0.3271
25421SOL    HW278896   7.976   9.857   3.679 -0.6262  0.8676 -1.5034
25422SOL     OW78897   9.409   9.582   7.316  0.7821 -0.1173  0.0099
25422SOL    HW178898   9.476   9.617   7.374  1.3036  0.7118 -1.0542
25422SOL    HW278899   9.448   9.586   7.229 -1.1036  1.7512 -0.8609
25423SOL     OW78900   0.151   5.150   8.291  0.3491 -0.0813  0.1505
25423SOL    HW178901   0.230   5.204   8.297  2.0618 -2.0805 -2.4207
25423SOL    HW278902   0.127   5.133   8.382  2.2226  1.4661  1.0154
25424SOL     OW78903   7.322   9.125   4.108  0.4454 -0.4865 -0.2745
25424SOL    HW178904   7.268   9.052   4.137 -2.3609  1.6096  0.1654
25424SOL    HW278905   7.341   9.106   4.016  0.4597 -2.1109  0.0403
25425SOL     OW78906   1.065   5.977   2.633  0.2483 -0.2539 -0.0649
25425SOL    HW178907   0.978   6.008   2.608 -0.0090 -1.2763 -0.4560
25425SOL    HW278908   1.119   6.056   2.632 -1.1658  0.8770  2.5690
25426SOL     OW78909   6.910   3.850   1.720  0.3598 -0.3020  0.1436
25426SOL    HW178910   6.976   3.837   1.653  0.2338 -0.0406 -0.0325
25426SOL    HW278911   6.928   3.782   1.785  0.1329 -0.9197 -0.4302
25427SOL     OW78912   7.482   4.980   3.941  0.0210 -0.1013  0.1530
25427SOL    HW178913   7.556   4.953   3.996  1.4241  0.5654 -1.3261
25427SOL    HW278914   7.514   4.972   3.851 -0.8239  2.5817 -0.4992
25428SOL     OW78915   5.388   4.378   5.417 -0.4219  0.1502  0.2373
25428SOL    HW178916   5.426   4.364   5.504 -2.7119 -0.0809  1.2766
25428SOL    HW278917   5.387   4.292   5.376 -0.2738  0.0742  0.3947
25429SOL     OW78918   6.297   2.598   9.635  0.0399 -0.1325 -0.1189
25429SOL    HW178919   6.228   2.532   9.640  0.8079 -0.8824  1.7505
25429SOL    HW278920   6.262   2.666   9.578 -1.7987 -0.9730 -0.0616
25430SOL     OW78921   1.878   2.394   1.465  0.3479  0.5328  0.2101
25430SOL    HW178922   1.817   2.325   1.439  1.2678 -0.0849 -0.3605
25430SOL    HW278923   1.959   2.374   1.418  0.9996  1.3343  0.9522
25431SOL     OW78924   9.521   4.081   0.853  0.2364 -0.0395 -0.0884
25431SOL    HW178925   9.487   4.038   0.775 -0.3580  1.4300 -0.6723
25431SOL    HW278926   9.479   4.035   0.926 -4.2258  2.4075 -0.7304
25432SOL     OW78927   0.054   1.853   1.237  0.2177 -0.4284 -0.4044
25432SOL    HW178928   0.118   1.921   1.258 -0.6863  0.4474 -0.4179
25432SOL    HW278929  -0.030   1.898   1.241 -0.3662 -1.4696 -0.7868
25433SOL     OW78930   0.238   7.510   2.744 -0.2510 -0.1370  0.0368
25433SOL    HW178931   0.174   7.466   2.800 -0.7743 -1.4351 -1.4831
25433SOL    HW278932   0.319   7.508   2.794 -0.9511 -0.2141  1.2066
25434SOL     OW78933   2.484   2.931   6.749 -0.0918 -0.2256  0.6730
25434SOL    HW178934   2.409   2.888   6.710  0.1074 -0.6683  0.7714
25434SOL    HW278935   2.554   2.865   6.747  0.2082  0.0806  0.8458
25435SOL     OW78936   7.881   6.280   9.872  0.1621  0.1732 -0.0268
25435SOL    HW178937   7.828   6.359   9.855 -1.8002 -0.4529  2.5333
25435SOL    HW278938   7.878   6.231   9.790 -0.7787  1.5504 -0.8655
25436SOL     OW78939   0.879   2.107  10.227 -0.2245  0.0486  0.0841
25436SOL    HW178940   0.949   2.079  10.286 -1.0275  0.8667  1.4560
25436SOL    HW278941   0.862   2.198  10.252 -1.0118  0.2196 -1.0092
25437SOL     OW78942   4.575   7.380   5.000  0.1665 -0.6286 -0.2801
25437SOL    HW178943   4.608   7.290   5.008  1.5051 -0.1368 -0.0493
25437SOL    HW278944   4.609   7.410   4.916  3.2727  1.0084  1.3867
25438SOL     OW78945   2.408   9.707   9.686  0.0658  0.5217  0.0371
25438SOL    HW178946   2.341   9.701   9.755  0.6698 -0.6210  0.5425
25438SOL    HW278947   2.457   9.786   9.708 -0.7035  1.0196  0.0264
25439SOL     OW78948   5.450   1.511   9.365  0.3662 -0.3373 -0.0864
25439SOL    HW178949   5.520   1.558   9.319  0.3459 -1.1766 -1.0177
25439SOL    HW278950   5.492   1.475   9.443  1.0978 -1.1578 -0.8328
25440SOL     OW78951   0.175   1.802   1.983 -0.1042  0.2032  0.0228
25440SOL    HW178952   0.138   1.887   1.960 -3.0657 -0.6776  1.0614
25440SOL    HW278953   0.099   1.745   1.995  1.7362 -2.4306  0.0921
25441SOL     OW78954   8.461   5.655   6.045 -0.2579  0.5109 -0.5363
25441SOL    HW178955   8.503   5.646   5.959 -0.5552 -0.3326 -0.6068
25441SOL    HW278956   8.412   5.573   6.056 -3.2691  2.0623 -1.2025
25442SOL     OW78957   1.005   2.547   8.896 -0.6578  0.1344 -0.2041
25442SOL    HW178958   1.070   2.478   8.909 -1.8338 -0.5788  2.6714
25442SOL    HW278959   1.056   2.626   8.882  0.7829 -0.7142  0.1262
25443SOL     OW78960   0.995   6.646   2.907  0.5264 -0.2227  0.1003
25443SOL    HW178961   0.931   6.607   2.847 -0.0510 -0.8299  1.0778
25443SOL    HW278962   1.078   6.643   2.859 -0.3086  1.3583 -1.5149
25444SOL     OW78963   0.810   5.573   5.311  0.5966  0.4478 -0.1701
25444SOL    HW178964   0.819   5.588   5.405 -0.2989 -2.2665  0.4451
25444SOL    HW278965   0.899   5.562   5.279  0.8247 -0.5633  0.7718
25445SOL     OW78966   6.024   7.359   9.139  0.1462  0.3353  0.5967
25445SOL    HW178967   6.083   7.283   9.133  0.2646  0.3198  1.6720
25445SOL    HW278968   5.940   7.326   9.109  0.7457  0.4490 -1.2976
25446SOL     OW78969   3.631   6.493   3.416 -0.2160  0.0967  0.2354
25446SOL    HW178970   3.681   6.449   3.484 -0.9095 -0.3108  0.4990
25446SOL    HW278971   3.582   6.561   3.462  1.9089  2.1705 -0.3535
25447SOL     OW78972   8.734   8.063   5.956 -0.3609  0.2478 -0.3060
25447SOL    HW178973   8.762   8.050   6.047 -1.5094  0.5869  0.1084
25447SOL    HW278974   8.644   8.093   5.962  0.1551  2.2151 -1.4720
25448SOL     OW78975   4.678   6.708   8.165 -0.2590  0.4662 -0.4355
25448SOL    HW178976   4.682   6.790   8.215 -1.4457 -0.0914  0.6313
25448SOL    HW278977   4.699   6.734   8.075 -1.6214  2.1497 -0.3306
25449SOL     OW78978   1.061   4.439   0.830 -0.2979 -0.2948 -0.8561
25449SOL    HW178979   1.001   4.513   0.824 -1.1532 -1.0780 -4.0318
25449SOL    HW278980   1.133   4.462   0.771 -0.5279 -1.8841 -1.8186
25450SOL     OW78981   0.261   7.836   3.373 -0.0531  0.2581  0.0117
25450SOL    HW178982   0.353   7.850   3.394  0.2211  1.0244 -1.5500
25450SOL    HW278983   0.215   7.842   3.457  1.4537 -1.6644  1.0637
25451SOL     OW78984   3.805   4.968   4.899 -0.2597 -0.4743 -0.0804
25451SOL    HW178985   3.753   5.047   4.916  0.5097  0.3391 -1.3311
25451SOL    HW278986   3.871   4.968   4.969 -0.4762 -0.2020  0.1289
25452SOL     OW78987   7.959   2.861   2.409  0.0924  0.5748  0.0084
25452SOL    HW178988   7.951   2.957   2.412  1.2423  0.7211 -1.0393
25452SOL    HW278989   8.044   2.843   2.448 -0.3263 -0.0866  0.6571
25453SOL     OW78990   7.650   6.087   2.049 -0.4474  0.2248 -0.2648
25453SOL    HW178991   7.566   6.084   2.094 -0.5064  0.4897 -0.3578
25453SOL    HW278992   7.673   6.180   2.047 -0.8232  0.2990 -1.4809
25454SOL     OW78993   5.955   0.905   3.990  0.4972  0.1475  0.1158
25454SOL    HW178994   6.009   0.924   4.066  1.9524  1.0951 -1.1100
25454SOL    HW278995   5.947   0.809   3.989  1.4768  0.0513  0.7627
25455SOL     OW78996   5.116   8.105   8.381  0.2101 -0.3288  0.5647
25455SOL    HW178997   5.053   8.032   8.381 -0.8296  0.5362  1.0387
25455SOL    HW278998   5.095   8.154   8.460  2.6649 -0.9731  1.7066
25456SOL     OW78999   3.562   9.644   0.522  0.3094 -0.3341  0.1939
25456SOL    HW179000   3.566   9.636   0.427 -0.4375  0.3255  0.0999
25456SOL    HW279001   3.591   9.558   0.554  0.3912 -0.6210 -0.6249
25457SOL     OW79002   6.222  10.151   9.645 -0.4911  0.3186 -0.2059
25457SOL    HW179003   6.185  10.172   9.731 -2.0604 -0.4443 -0.6588
25457SOL    HW279004   6.312  10.127   9.662 -0.2991  1.7894  1.0221
25458SOL     OW79005   5.634   2.231   3.998 -0.2194  0.3018  0.2944
25458SOL    HW179006   5.681   2.307   3.966  2.9426 -0.5557  2.4036
25458SOL    HW279007   5.558   2.267   4.043  0.3829  2.0944 -0.0336
25459SOL     OW79008   7.254   8.548   6.765  0.0826  0.0723  0.1972
25459SOL    HW179009   7.252   8.532   6.859 -0.6992 -0.0570  0.1667
25459SOL    HW279010   7.216   8.469   6.726  1.2110 -0.2432 -0.2870
25460SOL     OW79011   5.699   8.247   4.269 -0.1878  0.2889  0.5847
25460SOL    HW179012   5.638   8.280   4.203  1.0346 -1.0659 -1.3355
25460SOL    HW279013   5.755   8.321   4.289 -0.8862  0.8557  0.4799
25461SOL     OW79014   6.631   3.918   7.465 -0.0526 -0.0354 -0.3905
25461SOL    HW179015   6.700   3.956   7.410 -0.0440 -1.3917 -1.3558
25461SOL    HW279016   6.554   3.914   7.408 -0.3536 -0.4650  0.0364
25462SOL     OW79017  10.062   1.192   0.231 -0.2644  0.6024 -0.0210
25462SOL    HW179018   9.978   1.152   0.207 -0.2222  0.1977  0.4845
25462SOL    HW279019  10.066   1.183   0.326  1.1244 -0.9636 -0.1858
25463SOL     OW79020   2.526   1.910   1.062 -0.2410 -0.2901  0.2222
25463SOL    HW179021   2.532   1.899   1.157  0.4742 -0.7627  0.1319
25463SOL    HW279022   2.479   1.833   1.031  1.1964 -1.1333  0.0144
25464SOL     OW79023   7.559   3.820   6.358 -0.3442  0.6441 -0.0299
25464SOL    HW179024   7.562   3.866   6.274 -1.8539  0.0155 -0.4435
25464SOL    HW279025   7.494   3.752   6.346 -1.2147  1.0791  1.9269
25465SOL     OW79026   0.766  10.277   9.057 -0.5417 -0.2614  0.1405
25465SOL    HW179027   0.748  10.264   8.964  0.1832 -2.4388  0.2443
25465SOL    HW279028   0.788  10.370   9.065  0.5053 -0.2684 -2.0665
25466SOL     OW79029   5.271   6.452   4.509 -0.1424  0.2308 -0.4280
25466SOL    HW179030   5.348   6.502   4.481  0.4556 -0.1054  0.5380
25466SOL    HW279031   5.266   6.379   4.448  0.6855 -0.0794 -0.1432
25467SOL     OW79032   9.325   3.241   3.585  0.0808 -0.1522 -0.1553
25467SOL    HW179033   9.309   3.297   3.661 -1.2872 -0.3199 -0.3008
25467SOL    HW279034   9.398   3.283   3.539 -1.5821  2.1875 -0.8588
25468SOL     OW79035   8.749   3.544   8.825  0.1016 -0.4272 -0.1380
25468SOL    HW179036   8.808   3.616   8.846 -0.3562 -0.2909  0.7304
25468SOL    HW279037   8.798   3.465   8.846 -0.0660 -0.3103  0.7386
25469SOL     OW79038   6.393   6.461   3.147  0.3183 -0.2338 -0.0509
25469SOL    HW179039   6.459   6.412   3.195  1.0127  2.5030  2.0207
25469SOL    HW279040   6.428   6.550   3.140 -2.6101  1.0650  0.1490
25470SOL     OW79041   1.587   2.712   0.890 -0.4357  0.1621  0.2861
25470SOL    HW179042   1.659   2.657   0.861 -0.3232  0.4515  0.0075
25470SOL    HW279043   1.601   2.724   0.984  0.4308  1.0111  0.0669
25471SOL     OW79044  10.227  10.114   9.660  0.4085 -0.0162  0.0392
25471SOL    HW179045  10.282  10.137   9.735  1.1442 -2.4652  0.3390
25471SOL    HW279046  10.289  10.107   9.587  0.5250 -2.4641  0.3066
25472SOL     OW79047   2.098   6.839   8.091 -0.2873 -0.0914 -0.2270
25472SOL    HW179048   2.178   6.801   8.054  0.3790  0.4781  0.5873
25472SOL    HW279049   2.101   6.814   8.184  0.7163  2.7647  0.5913
25473SOL     OW79050   1.317   5.790   7.559 -0.3276  0.2697  0.1761
25473SOL    HW179051   1.225   5.790   7.533 -0.5552  1.4124  0.9050
25473SOL    HW279052   1.331   5.877   7.597  0.9203 -0.0764  0.5472
25474SOL     OW79053   0.613   4.887   0.608  0.1416 -0.3350  0.1204
25474SOL    HW179054   0.523   4.916   0.615  0.2298 -0.4169  2.3558
25474SOL    HW279055   0.609   4.807   0.555 -1.1101 -0.4636  0.4014
25475SOL     OW79056   5.472   2.106   1.769 -0.1440 -0.3480 -0.2366
25475SOL    HW179057   5.490   2.138   1.857  0.8198 -2.3175  0.3540
25475SOL    HW279058   5.377   2.093   1.767 -0.3033  0.6663  0.1373
25476SOL     OW79059   8.594   2.595   1.106  0.2038  0.7775  0.2676
25476SOL    HW179060   8.607   2.686   1.132 -0.1950  1.4354 -1.7184
25476SOL    HW279061   8.670   2.574   1.053 -0.1205  0.2332  0.0077
25477SOL     OW79062   1.748   5.212   6.743  0.1198  0.4607 -0.0048
25477SOL    HW179063   1.775   5.172   6.660 -0.0131 -1.2582  0.7518
25477SOL    HW279064   1.653   5.217   6.736  0.0628 -0.1791  0.2447
25478SOL     OW79065   4.424   6.081   4.022  0.2581 -0.1412 -0.1831
25478SOL    HW179066   4.367   6.117   4.090 -0.6552 -2.1115  0.1649
25478SOL    HW279067   4.480   6.154   3.996 -0.2660  1.0059  1.7405
25479SOL     OW79068   0.267   6.724   8.878  0.0595  0.6791  0.1234
25479SOL    HW179069   0.311   6.774   8.809  1.4598  0.8318  1.0936
25479SOL    HW279070   0.248   6.639   8.837  0.3421  0.9685 -0.6293
25480SOL     OW79071   5.374   1.069   9.672 -0.1538 -0.1681 -0.4172
25480SOL    HW179072   5.412   0.990   9.710  0.2230  0.9424  1.6326
25480SOL    HW279073   5.283   1.069   9.702 -0.0874  0.2958 -0.2178
25481SOL     OW79074   8.195   1.811   1.877  0.7895 -0.2661 -0.2026
25481SOL    HW179075   8.136   1.758   1.823  0.6240 -1.6188  1.2468
25481SOL    HW279076   8.239   1.748   1.934  1.2951  1.0598  0.9296
25482SOL     OW79077   8.584   3.403   7.934  0.2851  0.4547 -0.2407
25482SOL    HW179078   8.525   3.454   7.881 -1.0587 -1.1173 -0.3384
25482SOL    HW279079   8.626   3.342   7.873  1.3360  0.9380 -0.0270
25483SOL     OW79080   5.560   4.877   2.873 -0.0330  0.1459 -0.4337
25483SOL    HW179081   5.530   4.967   2.869 -1.4979 -0.2382  0.8597
25483SOL    HW279082   5.552   4.845   2.783  0.1020  1.1724 -0.8173
25484SOL     OW79083   5.906   1.521   7.178  0.0522 -0.7600 -0.2972
25484SOL    HW179084   5.956   1.462   7.121 -0.2969 -0.7742 -0.5860
25484SOL    HW279085   5.941   1.504   7.266  0.9006 -0.4166 -0.5606
25485SOL     OW79086   4.620   9.888   2.743 -0.0544 -0.2711 -0.0419
25485SOL    HW179087   4.646   9.973   2.778  3.9850 -0.5076 -1.9002
25485SOL    HW279088   4.633   9.827   2.816 -0.3909  0.3548  0.5519
25486SOL     OW79089   3.948   9.818   0.499 -0.3559 -0.1148  0.6049
25486SOL    HW179090   3.927   9.738   0.450 -2.7204  0.6064  0.3055
25486SOL    HW279091   3.906   9.805   0.584  0.8267  0.0751  1.2343
25487SOL     OW79092   1.541   3.509   4.136  0.5705  0.7729 -0.0470
25487SOL    HW179093   1.617   3.559   4.107  0.9784  0.3587  0.2813
25487SOL    HW279094   1.563   3.482   4.225 -0.3905  1.4922  0.4344
25488SOL     OW79095   2.398   2.009   5.411  0.1652  0.5335 -0.1506
25488SOL    HW179096   2.365   2.073   5.348  1.7447  0.2156 -1.3582
25488SOL    HW279097   2.481   2.046   5.441  0.3159 -0.1901  0.3436
25489SOL     OW79098   2.701   6.583   8.413 -0.8024  0.0069  0.1754
25489SOL    HW179099   2.770   6.647   8.398 -2.1135  1.5350  0.3313
25489SOL    HW279100   2.718   6.549   8.500  0.6352 -0.8256 -0.4031
25490SOL     OW79101   3.906   6.374   2.367 -0.1346  0.1114  0.2737
25490SOL    HW179102   3.891   6.391   2.460  1.8766 -1.7036  1.0166
25490SOL    HW279103   3.820   6.387   2.326 -1.3658 -0.2342  2.5704
25491SOL     OW79104   8.191   7.767   1.563 -0.0454  0.6989 -0.0761
25491SOL    HW179105   8.177   7.838   1.626  0.6810  0.4517  0.3795
25491SOL    HW279106   8.115   7.771   1.505  0.2966  2.2818 -0.4663
25492SOL     OW79107   6.270   2.482   3.096 -0.0941  0.6228 -0.3578
25492SOL    HW179108   6.247   2.474   3.189  0.7744  2.3391  0.0460
25492SOL    HW279109   6.305   2.570   3.088  0.7486  0.1669 -2.1410
25493SOL     OW79110   8.537   8.375   4.980 -0.7005 -0.0127  0.0169
25493SOL    HW179111   8.524   8.453   5.033  0.6264 -1.4711  2.6846
25493SOL    HW279112   8.631   8.358   4.986 -1.1980 -2.8106  1.0820
25494SOL     OW79113   8.408   1.260   4.670 -0.4575 -0.2449  0.2484
25494SOL    HW179114   8.461   1.318   4.616 -0.3045  0.0670  0.7299
25494SOL    HW279115   8.364   1.202   4.607 -2.4374  1.8527 -0.4529
25495SOL     OW79116   6.173   9.332   2.547 -0.4416 -0.2053  0.3022
25495SOL    HW179117   6.093   9.330   2.599 -1.5879  1.8132 -1.2375
25495SOL    HW279118   6.156   9.272   2.474 -1.1176  1.1397 -0.6939
25496SOL     OW79119  10.110   1.583   7.312  0.2147  0.0575 -0.5112
25496SOL    HW179120  10.100   1.674   7.285 -1.3963 -0.0485 -0.3556
25496SOL    HW279121  10.072   1.532   7.241  0.4724 -0.4637 -0.2844
25497SOL     OW79122   4.479   5.891   6.682  0.6104 -0.2800 -0.0022
25497SOL    HW179123   4.476   5.801   6.648  1.7693  0.2397 -1.5991
25497SOL    HW279124   4.558   5.893   6.737  0.7488 -0.1875 -0.1993
25498SOL     OW79125   2.072   8.212   0.409 -0.0918 -0.0431  0.5326
25498SOL    HW179126   2.162   8.201   0.376 -0.1071  0.5712  0.2796
25498SOL    HW279127   2.018   8.159   0.350  0.1128 -0.4697  0.7264
25499SOL     OW79128   5.369   5.492   1.658 -0.2978 -0.0652  0.0091
25499SOL    HW179129   5.448   5.505   1.711 -1.6524 -0.6302  2.3249
25499SOL    HW279130   5.384   5.409   1.612  0.9174  0.4398 -0.5724
25500SOL     OW79131   4.353   3.267  10.167  0.1965  0.3068 -0.3969
25500SOL    HW179132   4.267   3.297  10.197 -0.2907 -0.1966 -1.2359
25500SOL    HW279133   4.402   3.347  10.151  0.3858  0.5934  1.4347
25501SOL     OW79134   3.674   2.208   9.976  0.4339 -0.3154  0.6679
25501SOL    HW179135   3.631   2.293   9.964 -0.2420 -0.8990 -1.5848
25501SOL    HW279136   3.648   2.181  10.064 -1.5226  0.6488  0.4626
25502SOL     OW79137   0.757   4.675   5.484 -0.5554 -0.4595  0.7437
25502SOL    HW179138   0.780   4.586   5.511  0.2001 -1.4817 -2.7584
25502SOL    HW279139   0.704   4.709   5.556  1.7820 -2.5049  3.6854
25503SOL     OW79140   7.999   7.356   3.094 -0.0273  0.2166 -0.3599
25503SOL    HW179141   8.000   7.294   3.021  1.5785 -0.6357  0.3468
25503SOL    HW279142   8.028   7.306   3.170 -1.4405  1.1431  0.8670
25504SOL     OW79143   5.633   2.508   2.270 -0.1505 -0.3878  0.9555
25504SOL    HW179144   5.543   2.522   2.240 -0.5716 -0.0309  2.3293
25504SOL    HW279145   5.687   2.549   2.202 -1.0769  0.5836  0.7709
25505SOL     OW79146   2.936   0.910   2.303 -0.0565 -0.3994 -0.2822
25505SOL    HW179147   2.954   1.002   2.322  0.8796 -0.9523  1.8537
25505SOL    HW279148   3.019   0.874   2.273 -0.0446 -0.8375  0.2470
25506SOL     OW79149   1.587   4.119   5.671 -0.1940 -0.5454  0.2337
25506SOL    HW179150   1.529   4.126   5.595 -0.4018  0.1143  0.4478
25506SOL    HW279151   1.546   4.052   5.726 -1.2930  0.5878  0.8388
25507SOL     OW79152   9.765   6.541   9.169 -0.5025 -0.0294  0.4881
25507SOL    HW179153   9.749   6.452   9.139 -0.8375 -0.1722  1.0764
25507SOL    HW279154   9.678   6.577   9.186 -0.4682  0.9170 -1.1346
25508SOL     OW79155   2.621   7.778   1.653 -0.0472 -0.1700 -0.2655
25508SOL    HW179156   2.569   7.702   1.678 -0.9152  0.4737 -0.0809
25508SOL    HW279157   2.680   7.745   1.585  1.5445 -1.6664  1.7173
25509SOL     OW79158   2.314   2.999   5.164 -0.2055 -0.3471 -0.6366
25509SOL    HW179159   2.361   2.934   5.112 -0.2822 -1.5597  0.7526
25509SOL    HW279160   2.382   3.047   5.210 -0.2290 -1.0584  0.1667
25510SOL     OW79161   4.124   6.605   8.305 -0.5635  0.1518 -0.8350
25510SOL    HW179162   4.083   6.687   8.277  0.8139  0.9259 -0.6797
25510SOL    HW279163   4.059   6.538   8.286 -2.0822  1.3705 -0.1595
25511SOL     OW79164   6.906   7.615   8.814 -0.1678 -0.6748  0.6209
25511SOL    HW179165   6.992   7.618   8.773  0.0335 -1.5278  0.9561
25511SOL    HW279166   6.901   7.528   8.854 -2.1400 -1.6485 -1.4641
25512SOL     OW79167   3.899   5.642   0.429  0.1023  0.7105  0.3034
25512SOL    HW179168   3.912   5.718   0.373  0.8982  0.2329 -0.1717
25512SOL    HW279169   3.925   5.672   0.516  0.5851  0.9243  0.0870
25513SOL     OW79170   9.309   5.911   2.130  0.0151 -0.0808  0.0294
25513SOL    HW179171   9.263   5.904   2.047  0.7306 -1.1966 -0.2940
25513SOL    HW279172   9.400   5.888   2.110  0.7935  2.1818  0.6178
25514SOL     OW79173   1.454   0.917   1.645  0.0295 -0.2680  0.2910
25514SOL    HW179174   1.526   0.974   1.620  0.6483 -1.4943 -0.8706
25514SOL    HW279175   1.380   0.976   1.661  1.1792  0.9800  1.1638
25515SOL     OW79176   9.300   7.575   0.815  0.1369  0.3151  0.7773
25515SOL    HW179177   9.267   7.642   0.756  0.4639  1.7234  2.1543
25515SOL    HW279178   9.390   7.602   0.835  0.4164 -0.7515  1.0473
25516SOL     OW79179   0.894   2.350   0.282  0.2199 -0.0238 -0.0112
25516SOL    HW179180   0.972   2.297   0.269  0.0586 -0.1475 -0.4912
25516SOL    HW279181   0.927   2.437   0.307  0.5521  0.2853 -1.4638
25517SOL     OW79182   5.805   6.163   5.668  0.7776  1.0318  0.1454
25517SOL    HW179183   5.866   6.226   5.707 -0.6619  2.2761  0.4887
25517SOL    HW279184   5.794   6.192   5.578 -0.1677  1.5064  0.4041
25518SOL     OW79185   8.301   4.672   6.154 -0.0287  1.0238  0.3323
25518SOL    HW179186   8.213   4.699   6.125  0.1903  1.3205 -0.0659
25518SOL    HW279187   8.337   4.626   6.079  0.1125  0.7925  0.5414
25519SOL     OW79188   4.960   6.476   1.587  0.0018 -0.0965 -0.0386
25519SOL    HW179189   4.931   6.422   1.660  1.1365  2.1697  2.2470
25519SOL    HW279190   4.929   6.564   1.607  2.2428  1.0387 -1.0767
25520SOL     OW79191  10.046   3.842   6.520 -0.6517 -0.0145  0.0736
25520SOL    HW179192  10.125   3.807   6.480 -1.0578  0.4107 -1.1195
25520SOL    HW279193  10.057   3.937   6.519 -0.8671  0.0245  0.5781
25521SOL     OW79194   7.451   4.872   4.908 -0.3350  0.1781  0.2755
25521SOL    HW179195   7.374   4.815   4.911 -0.0257 -0.3064 -0.7550
25521SOL    HW279196   7.523   4.814   4.886  0.7933  0.1923  3.4864
25522SOL     OW79197   6.796   0.289   1.844  0.5552 -0.4708  0.1143
25522SOL    HW179198   6.801   0.378   1.878  2.1610 -0.9298  1.1708
25522SOL    HW279199   6.832   0.294   1.756 -2.6602  0.5323 -1.2749
25523SOL     OW79200   3.178  10.057   7.915  0.4397 -0.8791  0.1732
25523SOL    HW179201   3.154  10.038   7.824  1.0813 -0.7225 -0.0304
25523SOL    HW279202   3.152   9.979   7.963  1.1895 -1.4554 -0.3341
25524SOL     OW79203   3.815   1.069   8.237  0.0475 -0.9641  0.6202
25524SOL    HW179204   3.895   1.122   8.244 -1.1667  1.0151  0.4393
25524SOL    HW279205   3.795   1.043   8.327  0.8494 -1.3943  0.6751
25525SOL     OW79206   5.724   3.469   9.069 -0.4138  0.4423  0.0748
25525SOL    HW179207   5.801   3.438   9.118 -1.5867  0.6947  2.1930
25525SOL    HW279208   5.650   3.423   9.109 -1.7588  2.9151  0.6192
25526SOL     OW79209   5.089   0.245   1.838 -0.0885 -0.5889 -0.1685
25526SOL    HW179210   5.051   0.217   1.921 -2.4023 -1.5896 -1.4750
25526SOL    HW279211   5.081   0.340   1.838 -1.8751 -0.7147 -0.0212
25527SOL     OW79212   9.141   6.210   5.409 -0.4084  0.0515  0.2646
25527SOL    HW179213   9.203   6.282   5.416 -0.6073  0.5845 -2.3349
25527SOL    HW279214   9.172   6.144   5.472  2.0217  0.8258 -0.0247
25528SOL     OW79215   5.443   1.194   0.795  0.1292  0.0197  0.3684
25528SOL    HW179216   5.515   1.243   0.836  0.7138  0.0943 -0.7127
25528SOL    HW279217   5.401   1.257   0.737 -0.6849 -0.0909  0.8157
25529SOL     OW79218   9.740   1.356   1.207 -0.1452 -0.1179  0.2791
25529SOL    HW179219   9.708   1.421   1.144  1.6101  2.8125  2.1695
25529SOL    HW279220   9.661   1.330   1.255 -0.7457  2.0747  0.6337
25530SOL     OW79221   0.036   4.598   5.594 -0.3929  0.5589 -0.0118
25530SOL    HW179222  -0.029   4.587   5.663 -2.4324 -1.2833 -2.0659
25530SOL    HW279223   0.026   4.689   5.565 -1.6665  0.4736  0.1069
25531SOL     OW79224   9.513   5.842   4.646  0.0950  0.1373  0.9800
25531SOL    HW179225   9.442   5.781   4.668  0.4681 -0.4157  0.6672
25531SOL    HW279226   9.481   5.927   4.675 -1.5768  0.2508 -0.9631
25532SOL     OW79227   7.305   8.205   8.464  0.0749  0.5662 -0.4661
25532SOL    HW179228   7.306   8.114   8.434 -1.2721  0.4551 -0.2324
25532SOL    HW279229   7.247   8.204   8.541  2.8478  0.9656  1.8042
25533SOL     OW79230   7.024   6.367   0.279  0.0582 -0.2489  0.0607
25533SOL    HW179231   7.054   6.280   0.254  0.6696  0.0796 -0.3925
25533SOL    HW279232   6.979   6.355   0.362  0.6706 -0.8994  0.3011
25534SOL     OW79233   3.374   5.181   1.333  0.2308  0.3323 -0.1472
25534SOL    HW179234   3.427   5.259   1.316  0.7904 -0.1744 -0.8519
25534SOL    HW279235   3.293   5.214   1.371  0.8357  1.1755  0.4537
25535SOL     OW79236   9.953   1.126   8.826 -0.4415  0.3505 -0.1832
25535SOL    HW179237   9.998   1.204   8.795  0.1048 -0.1162 -0.5729
25535SOL    HW279238   9.974   1.122   8.920  1.4961 -0.6174 -0.6173
25536SOL     OW79239   1.442   2.455   0.587  0.0325  0.1668 -0.1552
25536SOL    HW179240   1.474   2.425   0.673 -1.0996  1.7392  0.8596
25536SOL    HW279241   1.418   2.374   0.541 -0.1052 -0.6707  1.3209
25537SOL     OW79242   3.369   6.528   9.371 -0.3309  1.0040 -0.2906
25537SOL    HW179243   3.318   6.582   9.431 -0.9836  1.0594 -0.8805
25537SOL    HW279244   3.332   6.440   9.381  1.5920  0.3199  1.6519
25538SOL     OW79245   1.715   5.415   4.917 -0.4618 -0.2362 -0.0873
25538SOL    HW179246   1.756   5.360   4.983 -0.3540 -2.6877 -2.0363
25538SOL    HW279247   1.694   5.496   4.963  0.5141 -1.4009  2.6417
25539SOL     OW79248   6.344  10.005   4.993 -0.1913 -0.1840 -0.9464
25539SOL    HW179249   6.397  10.007   5.073  0.6439 -0.3909 -1.4752
25539SOL    HW279250   6.254   9.999   5.024  0.1996 -2.4776 -0.0065
25540SOL     OW79251   2.633   7.989   9.168  0.5964 -0.2823  0.4533
25540SOL    HW179252   2.580   8.046   9.223  1.2803 -0.5884  1.4608
25540SOL    HW279253   2.647   8.039   9.088  2.1963  1.5127  1.7687
25541SOL     OW79254   9.314   5.679   3.244 -0.1095  0.3520 -0.0928
25541SOL    HW179255   9.263   5.660   3.165 -1.6020 -1.4971  1.2331
25541SOL    HW279256   9.402   5.648   3.224 -0.4535 -0.0333 -1.0525
25542SOL     OW79257   7.867  10.045   8.550 -0.1587  1.1158 -0.3057
25542SOL    HW179258   7.864   9.962   8.502  1.0089  0.7747  0.1545
25542SOL    HW279259   7.790  10.042   8.607  0.8198 -0.5559  1.0634
25543SOL     OW79260   1.754   0.669   7.818  0.7653  0.3492 -0.5404
25543SOL    HW179261   1.706   0.595   7.782 -2.0072  1.1784  1.1460
25543SOL    HW279262   1.754   0.654   7.913  1.7059  1.6392 -0.2989
25544SOL     OW79263   2.353   1.092   8.970 -0.2679  0.3928  0.1294
25544SOL    HW179264   2.297   1.157   8.928  0.9866  1.7517  0.4750
25544SOL    HW279265   2.357   1.120   9.062  2.0305  1.1654 -0.1402
25545SOL     OW79266   8.163   1.488   8.463  0.4028  0.2973 -0.2022
25545SOL    HW179267   8.235   1.539   8.427  0.0664  0.5834 -0.4837
25545SOL    HW279268   8.174   1.494   8.558 -0.0472  1.5212 -0.2028
25546SOL     OW79269   3.899   4.368   3.722  0.1144  0.2681  0.0051
25546SOL    HW179270   3.957   4.367   3.646 -0.9699  0.5323 -0.8593
25546SOL    HW279271   3.830   4.430   3.698 -0.0135  0.6927  1.4006
25547SOL     OW79272   1.025   1.999   9.840 -0.1964 -0.0312 -0.3570
25547SOL    HW179273   0.932   1.978   9.851  0.4342 -2.5904  1.0114
25547SOL    HW279274   1.034   2.017   9.746 -2.1383  0.8359 -0.4237
25548SOL     OW79275   6.371   1.749   8.360  0.0531  0.5348 -0.5478
25548SOL    HW179276   6.398   1.659   8.377  0.3424  0.7225  0.0274
25548SOL    HW279277   6.383   1.793   8.444  0.5829  1.2759 -1.0047
25549SOL     OW79278   5.273   5.179   3.511  0.0893 -0.8333 -0.1690
25549SOL    HW179279   5.236   5.092   3.499  0.6068 -0.9118 -1.2415
25549SOL    HW279280   5.333   5.191   3.438  0.5790  0.1382  0.3702
25550SOL     OW79281   9.330   1.613   5.556 -0.5242 -0.1481  0.0360
25550SOL    HW179282   9.396   1.620   5.487  0.3170 -0.6717  0.7712
25550SOL    HW279283   9.308   1.704   5.578 -0.2979  0.0265 -0.4457
25551SOL     OW79284   4.135   2.928   8.139 -0.1587  0.2391 -0.2419
25551SOL    HW179285   4.203   2.994   8.151  0.9306 -0.1747 -3.2508
25551SOL    HW279286   4.073   2.969   8.078 -0.8703 -0.5932 -0.1064
25552SOL     OW79287   2.388   2.649   8.927 -0.0525  0.6776  0.6019
25552SOL    HW179288   2.391   2.590   8.852 -1.2114  1.1682  0.1370
25552SOL    HW279289   2.367   2.593   9.001 -1.6025  0.5213  0.0882
25553SOL     OW79290   4.323   0.173   1.856 -0.0880 -0.0943 -0.0602
25553SOL    HW179291   4.355   0.238   1.920  2.3292 -0.4004 -0.8740
25553SOL    HW279292   4.341   0.089   1.897 -1.8528 -0.3350  0.3325
25554SOL     OW79293   5.003   3.181   2.066 -0.3676  0.2250 -0.6157
25554SOL    HW179294   4.958   3.137   1.994 -1.4144  0.1052  0.0833
25554SOL    HW279295   5.042   3.259   2.026 -0.2389 -0.2652 -1.4627
25555SOL     OW79296   6.933   9.682   3.046  0.0321  0.3267 -0.7792
25555SOL    HW179297   6.936   9.610   2.983 -0.7267 -0.5207  0.1265
25555SOL    HW279298   6.840   9.695   3.063  0.2474 -0.1813  0.9461
25556SOL     OW79299   0.785   6.461   3.589  0.8990  0.7157 -0.0855
25556SOL    HW179300   0.754   6.499   3.507  1.3072  1.9735  0.3077
25556SOL    HW279301   0.761   6.369   3.584 -1.2310  1.2365 -0.5932
25557SOL     OW79302   0.792   4.645   7.656  0.4273 -0.0500 -1.3049
25557SOL    HW179303   0.754   4.730   7.675  0.5395 -0.0623 -1.0242
25557SOL    HW279304   0.786   4.637   7.561 -0.4805 -0.1490 -1.2533
25558SOL     OW79305   7.143   4.998  10.134  0.1510  0.7557  0.3787
25558SOL    HW179306   7.216   4.965  10.080 -1.6170 -0.8819 -1.1832
25558SOL    HW279307   7.139   5.091  10.113  0.5836  0.4856 -1.0809
25559SOL     OW79308   9.949   6.112   8.727  0.0465  0.4204 -0.0816
25559SOL    HW179309   9.968   6.018   8.728  0.2080  0.4125 -1.5897
25559SOL    HW279310  10.033   6.154   8.712 -0.2202  0.7361 -0.7015
25560SOL     OW79311   0.967   8.925   2.883 -0.0893  0.0483 -0.8163
25560SOL    HW179312   1.013   8.977   2.818  0.2524 -1.9771 -2.2942
25560SOL    HW279313   0.879   8.911   2.846  0.0188 -0.8903 -0.7553
25561SOL     OW79314   3.166   7.556   2.036  0.0971 -0.4229 -0.4221
25561SOL    HW179315   3.207   7.474   2.009  0.2834 -0.0612 -1.2681
25561SOL    HW279316   3.079   7.531   2.066 -0.1639 -0.8350 -1.4987
25562SOL     OW79317   5.968   8.383   9.182  0.3333 -0.1425  0.5441
25562SOL    HW179318   6.056   8.393   9.146 -0.1760 -0.1337 -0.7720
25562SOL    HW279319   5.937   8.300   9.145 -0.3206  0.0174  0.7240
25563SOL     OW79320  10.087   1.537   8.775 -0.1251  0.1195 -0.0854
25563SOL    HW179321  10.166   1.579   8.740 -0.4301  0.7153 -0.0641
25563SOL    HW279322  10.041   1.504   8.697 -0.2485  0.4675 -0.1605
25564SOL     OW79323  10.034   6.084   0.588 -0.2545 -0.2012 -0.2656
25564SOL    HW179324   9.968   6.019   0.611 -0.7130  0.7892  1.3576
25564SOL    HW279325  10.107   6.067   0.647 -0.2399  0.5071 -0.0624
25565SOL     OW79326   8.246   1.047   8.497  0.1912 -0.3615 -0.2234
25565SOL    HW179327   8.259   1.097   8.577  2.0448 -0.3914 -0.4555
25565SOL    HW279328   8.161   1.076   8.464  0.8597  2.1087  0.0341
25566SOL     OW79329   6.202   8.565   8.526 -0.1981  0.3361 -0.8292
25566SOL    HW179330   6.288   8.524   8.526 -0.1019  0.5304 -0.4190
25566SOL    HW279331   6.156   8.524   8.600 -0.8036 -0.4693 -1.6156
25567SOL     OW79332   5.147   5.474   2.231  0.2232  0.1925 -0.1467
25567SOL    HW179333   5.156   5.551   2.175 -1.8497 -0.3092 -1.2753
25567SOL    HW279334   5.193   5.405   2.183 -0.6782  0.0035 -0.7666
25568SOL     OW79335   5.407   5.019   5.390  0.1980 -0.1364  0.1417
25568SOL    HW179336   5.489   5.015   5.341  1.7215  0.0740  2.5047
25568SOL    HW279337   5.428   5.070   5.468 -1.6779 -1.6140  1.7188
25569SOL     OW79338   3.940   9.357   4.885  0.6168  0.2425  0.2767
25569SOL    HW179339   3.953   9.314   4.969 -0.4112  1.1586  0.9408
25569SOL    HW279340   3.983   9.301   4.821 -0.5702 -1.7175  1.1124
25570SOL     OW79341   4.400   5.880   1.281  0.1465 -0.6673  0.3153
25570SOL    HW179342   4.359   5.882   1.194  2.6562  1.4375 -0.9779
25570SOL    HW279343   4.366   5.959   1.324  1.0206 -0.1733  0.1184
25571SOL     OW79344   6.515   9.480   0.436 -0.0186 -0.5777  0.2248
25571SOL    HW179345   6.481   9.568   0.422  0.2853 -0.3184  1.0541
25571SOL    HW279346   6.437   9.425   0.448 -0.1907 -0.0503  1.7632
25572SOL     OW79347   3.306   2.008   0.026  0.2119  0.2284 -0.1535
25572SOL    HW179348   3.261   1.953   0.091  1.1488 -0.6813 -0.2516
25572SOL    HW279349   3.236   2.036  -0.033 -0.0959 -2.3400 -1.1466
25573SOL     OW79350   9.205   1.802   9.826 -0.2796  0.1691 -0.1040
25573SOL    HW179351   9.152   1.758   9.892  1.5320 -0.1673  1.1900
25573SOL    HW279352   9.231   1.732   9.766 -0.6455  0.1915 -0.2884
25574SOL     OW79353   1.301   3.954   2.987  0.1349  0.2859  0.1317
25574SOL    HW179354   1.286   3.919   3.075 -0.7234 -0.5652 -0.3282
25574SOL    HW279355   1.225   4.011   2.971 -0.1108 -0.1673 -0.3431
25575SOL     OW79356   8.926   4.053   1.673  0.7921 -0.2530  0.5202
25575SOL    HW179357   8.962   4.138   1.699  0.3257 -0.2385  1.1441
25575SOL    HW279358   8.835   4.056   1.702  0.0849 -0.0538 -1.5703
25576SOL     OW79359   5.462   9.788   9.061 -0.5441  0.3640  0.2833
25576SOL    HW179360   5.405   9.835   9.122  0.0014  0.7906  0.4719
25576SOL    HW279361   5.496   9.715   9.112 -0.7619  0.2238  0.2297
25577SOL     OW79362   5.751   9.276   0.726 -0.4029  0.5929 -0.3365
25577SOL    HW179363   5.805   9.266   0.804 -0.4771 -2.1544 -0.5433
25577SOL    HW279364   5.805   9.329   0.667  0.5809  0.8454  0.7553
25578SOL     OW79365   3.809   9.614   4.528 -0.4027 -0.0216 -0.0539
25578SOL    HW179366   3.759   9.572   4.598 -0.7619  1.1510  0.4149
25578SOL    HW279367   3.876   9.550   4.505 -0.1230 -0.3440  1.5344
25579SOL     OW79368  10.075   7.756   1.014 -0.2424 -0.6543 -0.2617
25579SOL    HW179369  10.097   7.779   1.105  2.6509 -0.0381 -0.9967
25579SOL    HW279370  10.031   7.833   0.980  2.3849  0.8955 -0.4588
25580SOL     OW79371   1.307   0.464   4.383 -0.3191 -0.2728 -0.1472
25580SOL    HW179372   1.255   0.505   4.314  0.1813 -1.0983 -1.0335
25580SOL    HW279373   1.378   0.420   4.337  0.3225 -0.4100  0.9381
25581SOL     OW79374   6.205   8.234   1.143  0.0930  0.7319  0.3819
25581SOL    HW179375   6.184   8.327   1.149 -0.9679  0.4889  0.6819
25581SOL    HW279376   6.202   8.203   1.233  0.4179  0.3950  0.2797
25582SOL     OW79377   9.666   1.609   8.635  0.3749  0.1303  0.1654
25582SOL    HW179378   9.693   1.536   8.580  1.8279 -0.4253  1.5128
25582SOL    HW279379   9.575   1.591   8.657 -0.4262  0.6354 -2.3637
25583SOL     OW79380   7.017   8.811   9.543  0.0147  0.1867  0.6243
25583SOL    HW179381   7.032   8.799   9.637  1.2212  0.1174  0.4425
25583SOL    HW279382   7.065   8.739   9.503  0.2712  0.7462 -0.0850
25584SOL     OW79383   6.607   9.201   8.584 -0.2403  0.7632  0.0259
25584SOL    HW179384   6.633   9.283   8.627  1.1751  1.1693 -1.4851
25584SOL    HW279385   6.525   9.222   8.541  0.1708  1.4568 -0.4512
25585SOL     OW79386   3.035   6.651   6.963  0.5157  0.0094  0.1619
25585SOL    HW179387   2.979   6.711   7.012 -0.5320 -0.1772 -0.7614
25585SOL    HW279388   3.118   6.651   7.011 -0.5322 -0.3607  2.0842
25586SOL     OW79389   1.372   2.019   3.175  0.0169  0.0349  0.2949
25586SOL    HW179390   1.454   2.024   3.126 -0.7442  0.5588 -0.9869
25586SOL    HW279391   1.308   1.988   3.110 -1.3717  2.3065  0.4728
25587SOL     OW79392   6.994   2.910   4.373  0.6406 -0.4112 -0.5911
25587SOL    HW179393   7.070   2.902   4.432  1.8407  0.1385 -2.0048
25587SOL    HW279394   6.932   2.846   4.407  1.8918 -1.1745  0.3926
25588SOL     OW79395   5.522   0.639   2.142  0.1586 -0.3316  0.3002
25588SOL    HW179396   5.600   0.586   2.125 -0.1580 -0.5039 -0.6925
25588SOL    HW279397   5.516   0.698   2.067  1.0438  1.8263  1.8251
25589SOL     OW79398   3.503   7.314   3.912 -0.2017 -0.1090 -0.3500
25589SOL    HW179399   3.488   7.334   3.820  0.2437 -0.9255 -0.6101
25589SOL    HW279400   3.421   7.275   3.942  0.0312 -0.8840 -0.7049
25590SOL     OW79401   5.994   4.163   5.705 -0.0241  0.6393  0.0061
25590SOL    HW179402   5.921   4.137   5.762 -1.2256  1.5959 -1.0507
25590SOL    HW279403   6.053   4.087   5.706 -0.1303  0.5205  2.2837
25591SOL     OW79404   5.746   8.549   3.460  0.4672 -0.3367 -0.0513
25591SOL    HW179405   5.809   8.616   3.487  1.0652 -0.8722 -0.1170
25591SOL    HW279406   5.785   8.466   3.486  0.3958 -0.7722 -1.2715
25592SOL     OW79407   7.059   0.625   5.668 -0.3729  0.0560  0.0257
25592SOL    HW179408   6.994   0.558   5.691  0.7906 -1.6398 -1.3466
25592SOL    HW279409   7.134   0.575   5.636  0.6161  2.0500 -0.9356
25593SOL     OW79410   0.562   2.633   6.323  0.0089 -0.4577 -0.5515
25593SOL    HW179411   0.617   2.642   6.246 -0.9724  0.0394 -1.2173
25593SOL    HW279412   0.475   2.659   6.294 -0.3614 -0.1315  0.7565
25594SOL     OW79413   3.373   1.344   0.024 -0.5765  0.1334  0.7688
25594SOL    HW179414   3.303   1.322  -0.038 -0.4497  1.2102  0.2248
25594SOL    HW279415   3.340   1.421   0.071  0.2441  0.6493  0.5082
25595SOL     OW79416   4.779   8.985   8.512  0.0323  0.7130  0.0722
25595SOL    HW179417   4.718   8.997   8.585 -0.0401 -0.4559  0.2236
25595SOL    HW279418   4.771   9.065   8.461  0.4838  1.7924  1.6370
25596SOL     OW79419   4.917   6.105   4.191 -0.0488 -0.3392 -0.1015
25596SOL    HW179420   4.962   6.171   4.138 -0.0873  0.7062  1.1128
25596SOL    HW279421   4.831   6.143   4.209 -0.6536 -1.4071 -0.6492
25597SOL     OW79422   2.591   1.560   9.777 -0.8160 -0.7997  0.5087
25597SOL    HW179423   2.659   1.501   9.809 -0.3564 -2.3356 -2.8379
25597SOL    HW279424   2.626   1.648   9.793  1.5683 -1.5339 -0.1756
25598SOL     OW79425   8.720   0.756   9.848 -0.1038 -0.2023 -0.3832
25598SOL    HW179426   8.747   0.845   9.872  1.7418 -0.3057 -1.8436
25598SOL    HW279427   8.784   0.699   9.892  0.0827 -0.6568 -1.2213
25599SOL     OW79428   0.980   7.860   7.918  0.3440 -0.1252  0.0400
25599SOL    HW179429   1.032   7.873   7.997  0.9656 -0.4978 -0.2947
25599SOL    HW279430   0.910   7.926   7.923 -0.1940 -0.7726  1.3559
25600SOL     OW79431   7.589   0.421   9.072  0.1541  0.4477  0.0564
25600SOL    HW179432   7.664   0.365   9.089  1.3191  1.7636 -0.5887
25600SOL    HW279433   7.626   0.508   9.060 -1.3639  0.9432 -1.3606
25601SOL     OW79434   9.078   9.977   2.736 -0.3226  0.2314 -0.2534
25601SOL    HW179435   9.142  10.045   2.714  0.3510 -0.6972 -1.2893
25601SOL    HW279436   9.116   9.931   2.811 -1.1227  1.4200  0.9172
25602SOL     OW79437   6.693   2.593   9.056 -0.1363  0.6491 -0.6741
25602SOL    HW179438   6.733   2.643   9.127 -0.3689  0.0067 -0.0771
25602SOL    HW279439   6.721   2.503   9.071 -1.3784  0.2690 -0.5371
25603SOL     OW79440   4.526   1.607   8.519  0.4065  0.2048 -0.2365
25603SOL    HW179441   4.462   1.608   8.590  0.1624 -0.9771 -0.4169
25603SOL    HW279442   4.474   1.590   8.441  0.9395 -0.9188 -0.3650
25604SOL     OW79443   9.878   7.343   9.414  0.2935 -0.2183  0.0904
25604SOL    HW179444   9.942   7.399   9.458  0.6537 -0.9013  0.4488
25604SOL    HW279445   9.817   7.404   9.373  1.9583  0.4899 -1.4667
25605SOL     OW79446   5.415   1.434   3.823  0.1408  0.0771  0.4193
25605SOL    HW179447   5.416   1.397   3.911  1.3103  0.3788  0.5483
25605SOL    HW279448   5.344   1.498   3.824 -0.6824 -0.8176  0.7513
25606SOL     OW79449   1.837   2.343   2.254  0.3002 -0.8891 -0.2070
25606SOL    HW179450   1.876   2.265   2.215 -0.0200 -2.1288  1.7696
25606SOL    HW279451   1.755   2.356   2.206  1.8795  0.2899 -2.7690
25607SOL     OW79452   0.167   6.203   0.614  0.2649 -0.6986  0.2140
25607SOL    HW179453   0.145   6.231   0.702 -0.0254 -0.8038  0.1767
25607SOL    HW279454   0.252   6.159   0.623  0.9678  0.5986  0.1952
25608SOL     OW79455   2.182   0.492   8.098  0.5317 -0.2772  0.7135
25608SOL    HW179456   2.231   0.413   8.119 -1.3735 -1.2103  1.9697
25608SOL    HW279457   2.196   0.505   8.004  2.3682 -1.0052  0.8589
25609SOL     OW79458   1.209   4.283   0.507 -0.4262  0.0605 -0.0198
25609SOL    HW179459   1.261   4.345   0.456 -2.0342  0.4860 -1.2251
25609SOL    HW279460   1.269   4.252   0.575  0.7065  2.2410  0.0682
25610SOL     OW79461   3.732   8.082   7.836 -0.0715 -0.2179 -0.1445
25610SOL    HW179462   3.762   8.006   7.787 -0.0231  0.0221 -0.4890
25610SOL    HW279463   3.810   8.137   7.844 -0.3708  0.3376 -0.9083
25611SOL     OW79464   6.441   5.352   5.020 -0.1739 -0.0699 -0.0686
25611SOL    HW179465   6.434   5.436   4.975 -0.9114 -0.1362 -0.0879
25611SOL    HW279466   6.364   5.349   5.077  0.9096  0.1721  1.4772
25612SOL     OW79467   2.044   9.020   8.375 -0.3309  0.4424 -0.6607
25612SOL    HW179468   1.965   9.049   8.420 -0.5465  1.2008 -1.4967
25612SOL    HW279469   2.115   9.063   8.422 -0.4955  0.6294 -0.5813
25613SOL     OW79470   1.111   9.669   4.845 -0.1583  0.0903 -0.3272
25613SOL    HW179471   1.093   9.763   4.852 -0.2927 -0.0157  1.1188
25613SOL    HW279472   1.025   9.628   4.849 -0.1454 -0.0766 -1.6011
25614SOL     OW79473   4.007   4.595   9.032 -0.4261  0.3211  0.0174
25614SOL    HW179474   3.973   4.677   9.067 -1.8593  0.2303 -1.0705
25614SOL    HW279475   3.989   4.599   8.938 -0.4012 -1.1721 -0.0823
25615SOL     OW79476   7.230   9.736   1.332 -0.0166 -0.7261  0.2892
25615SOL    HW179477   7.179   9.685   1.395 -0.9251 -0.7877 -0.4716
25615SOL    HW279478   7.284   9.671   1.287  0.1406 -0.7711  0.5416
25616SOL     OW79479   7.004   8.589   0.639  0.7958  0.0290  0.4578
25616SOL    HW179480   6.992   8.543   0.722 -0.1893  1.9947  1.4847
25616SOL    HW279481   7.096   8.614   0.638  1.7191 -3.0305 -0.7844
25617SOL     OW79482   9.567   1.020   7.936 -0.2997 -0.0523 -0.0345
25617SOL    HW179483   9.489   1.075   7.943 -1.2716 -1.4853  0.7731
25617SOL    HW279484   9.606   1.021   8.023  0.6404  0.6547 -0.4286
25618SOL     OW79485   1.466   1.683  10.092  0.0574  0.7570  0.0286
25618SOL    HW179486   1.470   1.624  10.168 -0.3224  1.2173  0.4118
25618SOL    HW279487   1.463   1.771  10.130 -1.1284  0.9541 -0.4975
25619SOL     OW79488   5.095   0.154   1.032 -0.7038 -0.1209  0.0258
25619SOL    HW179489   5.035   0.142   1.106 -1.7606  1.9990 -0.4011
25619SOL    HW279490   5.166   0.092   1.049 -1.6617 -0.7819  1.9980
25620SOL     OW79491   1.180   2.401   9.329  0.1750  0.0047  0.6244
25620SOL    HW179492   1.210   2.492   9.323  1.4740 -0.4018  0.7074
25620SOL    HW279493   1.200   2.364   9.243  2.0161 -0.8680  1.3657
25621SOL     OW79494   7.024   4.588   7.434 -0.1066 -0.0015  0.1006
25621SOL    HW179495   7.113   4.624   7.428  0.3753 -1.1778 -0.0304
25621SOL    HW279496   6.969   4.653   7.390  1.1187 -0.6691 -2.6313
25622SOL     OW79497   5.675   3.422   8.381 -0.1288 -0.4353  0.4595
25622SOL    HW179498   5.586   3.456   8.392 -0.4488 -1.2457  0.4479
25622SOL    HW279499   5.731   3.491   8.417 -0.7118  0.3792 -0.1501
25623SOL     OW79500   0.366   1.851   7.801 -0.0488 -0.0390  0.2181
25623SOL    HW179501   0.429   1.917   7.772  0.7151 -1.1613 -0.7459
25623SOL    HW279502   0.290   1.902   7.830  0.0337  1.2413 -1.6481
25624SOL     OW79503   4.571   6.486   6.199  0.1466  0.3638  0.2567
25624SOL    HW179504   4.513   6.459   6.270 -1.4777  0.0347 -1.1415
25624SOL    HW279505   4.652   6.511   6.243 -0.9664  0.6473  2.2599
25625SOL     OW79506   6.143   6.020   7.131  0.4006 -0.3542  0.0922
25625SOL    HW179507   6.223   5.971   7.149  0.5238 -0.1783  0.0227
25625SOL    HW279508   6.080   5.986   7.195  1.0172  0.7284  1.3405
25626SOL     OW79509   2.937   0.329   6.552 -0.1512 -0.6324 -0.3893
25626SOL    HW179510   2.856   0.352   6.506  0.1372 -0.8373 -1.0198
25626SOL    HW279511   2.945   0.395   6.620 -0.8265 -0.5813 -0.3482
25627SOL     OW79512   4.178   4.554   0.843 -0.0824  0.2170  0.6472
25627SOL    HW179513   4.184   4.613   0.768 -0.6533 -1.3738 -0.7145
25627SOL    HW279514   4.085   4.535   0.851  0.1163 -0.6819  0.9154
25628SOL     OW79515   0.129   7.909   0.726  0.1193  0.3825 -0.5052
25628SOL    HW179516   0.086   7.925   0.809  1.7807  0.7576  0.3399
25628SOL    HW279517   0.122   7.992   0.679  0.6592  0.7132 -0.0111
25629SOL     OW79518   6.122   7.720   6.123  0.4693  0.2040  0.2174
25629SOL    HW179519   6.184   7.692   6.190 -0.4848 -0.1635  0.9702
25629SOL    HW279520   6.145   7.811   6.105  1.3942 -0.0042  0.2707
25630SOL     OW79521   7.779   2.618   7.880 -0.4348  1.0977 -0.2423
25630SOL    HW179522   7.705   2.557   7.876  0.8199 -0.4626 -0.5152
25630SOL    HW279523   7.815   2.607   7.968 -0.0232  1.2276 -0.3911
25631SOL     OW79524   6.567   1.581   6.429  0.4877 -0.0472 -0.2623
25631SOL    HW179525   6.644   1.565   6.374  1.1806  0.2238  0.5942
25631SOL    HW279526   6.533   1.493   6.449  0.4012 -0.1549 -0.8808
25632SOL     OW79527   2.717   5.001   0.448 -0.2733  0.1455 -0.0479
25632SOL    HW179528   2.760   5.077   0.487  0.2873 -0.3810  0.3658
25632SOL    HW279529   2.666   4.963   0.519  2.4687 -2.1114  0.8830
25633SOL     OW79530   6.670   2.690   2.882 -0.1094  0.8449 -0.5302
25633SOL    HW179531   6.646   2.604   2.918 -1.3140  1.5351  0.4083
25633SOL    HW279532   6.754   2.675   2.840  0.7098 -0.3676  1.3775
25634SOL     OW79533   9.425   9.920   3.906 -0.6043 -0.6146 -0.4831
25634SOL    HW179534   9.513   9.953   3.892 -0.8784  0.9124  1.0519
25634SOL    HW279535   9.430   9.828   3.882  0.9288 -0.1423 -2.1622
25635SOL     OW79536   9.029   2.881  10.349  0.1635 -0.3718  0.3797
25635SOL    HW179537   8.981   2.836  10.280  0.1510 -0.2502  0.3083
25635SOL    HW279538   9.107   2.827  10.363  0.2644 -0.2905  0.1316
25636SOL     OW79539  10.349   3.746   8.141 -0.3809  0.2573  0.3885
25636SOL    HW179540  10.333   3.824   8.088 -1.5915 -1.5497 -2.1349
25636SOL    HW279541  10.292   3.756   8.217 -0.2451  1.9606  0.3070
25637SOL     OW79542   5.111   8.620   6.823 -0.1603 -0.2054 -0.2028
25637SOL    HW179543   5.082   8.710   6.832  1.9165  0.3880  1.0680
25637SOL    HW279544   5.206   8.625   6.820  0.1303 -2.4650  1.7973
25638SOL     OW79545   3.945   8.809   1.132 -0.0098  0.1629  0.5337
25638SOL    HW179546   3.994   8.876   1.180  1.1793 -0.4575  0.2148
25638SOL    HW279547   3.914   8.854   1.054  0.6154  0.3961  0.4131
25639SOL     OW79548   9.163   6.071   9.436 -0.2236 -0.5123  0.3431
25639SOL    HW179549   9.083   6.122   9.447 -1.2766 -1.6894 -1.4056
25639SOL    HW279550   9.152   5.997   9.496  0.6612  0.4928  1.8197
25640SOL     OW79551   8.133   2.701   7.896  0.6183  0.7288  0.1251
25640SOL    HW179552   8.091   2.772   7.847 -1.3528  0.2978  1.0788
25640SOL    HW279553   8.091   2.703   7.982  2.9002  0.5001  1.3208
25641SOL     OW79554   8.448   2.512   8.530 -0.2222 -0.9522  0.3354
25641SOL    HW179555   8.543   2.511   8.531 -0.2187 -1.4602  0.1444
25641SOL    HW279556   8.423   2.424   8.559 -0.6123 -1.1266 -0.5013
25642SOL     OW79557   1.223   6.943   6.555  0.6522 -0.3734  0.1151
25642SOL    HW179558   1.310   6.981   6.566  0.9746 -1.0203 -0.1248
25642SOL    HW279559   1.234   6.851   6.578 -0.0587 -0.3829  0.4605
25643SOL     OW79560   3.635   6.279   0.421 -0.8261 -0.4351 -0.6724
25643SOL    HW179561   3.691   6.357   0.413  1.4760 -1.8013  0.7583
25643SOL    HW279562   3.562   6.308   0.476 -0.2579  0.8281 -0.5328
25644SOL     OW79563   0.573   8.911   8.480 -0.3255 -0.5577 -0.2301
25644SOL    HW179564   0.641   8.854   8.515 -0.3808  0.6965  2.0834
25644SOL    HW279565   0.598   8.926   8.389  2.5057 -0.1097  0.5430
25645SOL     OW79566   5.816   0.850  10.055  0.0685  1.0318  0.1248
25645SOL    HW179567   5.841   0.801  10.134 -0.9683  0.2591 -0.0106
25645SOL    HW279568   5.891   0.906  10.038  0.6321  0.6507  1.2183
25646SOL     OW79569   9.213   2.223   7.100  0.2700  0.2064 -0.5219
25646SOL    HW179570   9.230   2.220   7.194  1.0488  1.5298 -0.5923
25646SOL    HW279571   9.118   2.236   7.093 -0.0111 -1.3638  0.0176
25647SOL     OW79572   5.690   9.626   9.575  0.3674 -0.4636 -0.7764
25647SOL    HW179573   5.734   9.705   9.543 -1.0044  1.3091  1.4679
25647SOL    HW279574   5.760   9.574   9.613  0.8412  1.7292  1.6173
25648SOL     OW79575   7.550   4.913   8.003 -0.2204  0.7617 -0.0968
25648SOL    HW179576   7.603   4.899   7.924  0.2255 -0.3869  0.3888
25648SOL    HW279577   7.476   4.854   7.993  0.4990 -0.3512  0.9194
25649SOL     OW79578   5.943   2.051   6.561  0.0859  0.3366  0.2045
25649SOL    HW179579   6.013   2.104   6.525  2.5558 -1.4183  2.0668
25649SOL    HW279580   5.930   2.085   6.650 -1.9579  1.0475 -0.3140
25650SOL     OW79581   0.500   9.631   8.970  0.1416  0.1712 -0.5045
25650SOL    HW179582   0.535   9.717   8.947  1.7962 -0.2023  0.4077
25650SOL    HW279583   0.511   9.578   8.891  0.2033  0.4867 -0.7097
25651SOL     OW79584   5.331   1.564   7.794 -0.0774 -0.1120  0.3604
25651SOL    HW179585   5.250   1.569   7.744  1.3454  0.0949 -2.0652
25651SOL    HW279586   5.303   1.543   7.883 -2.8598  1.3787 -0.0621
25652SOL     OW79587   6.924   2.972   7.231  1.0100  0.6742  0.0445
25652SOL    HW179588   6.871   3.002   7.158  2.7316  0.5621 -1.2965
25652SOL    HW279589   6.872   2.901   7.271 -0.3751  1.3818 -0.4361
25653SOL     OW79590   5.330   0.377   9.415  0.0382  0.3002  0.0518
25653SOL    HW179591   5.272   0.357   9.489  0.9016  0.0230  0.6685
25653SOL    HW279592   5.341   0.472   9.419  0.7398  0.2051  0.8068
25654SOL     OW79593   1.771   5.019   3.448 -0.3325  0.4864 -0.7769
25654SOL    HW179594   1.727   4.935   3.437 -0.9121  0.7830 -0.7904
25654SOL    HW279595   1.857   5.007   3.409  0.0642 -0.4849  0.3339
25655SOL     OW79596   1.302   3.784   6.656 -0.1768  0.0194  0.0417
25655SOL    HW179597   1.336   3.856   6.603  1.2368 -0.7392 -0.1431
25655SOL    HW279598   1.285   3.714   6.593 -1.6328  0.1932  0.2043
25656SOL     OW79599   5.366   7.245   8.425  0.3614 -0.3759  0.4271
25656SOL    HW179600   5.324   7.317   8.473 -0.1980 -0.8808  0.7140
25656SOL    HW279601   5.437   7.216   8.482 -0.2004 -0.8688  0.8843
25657SOL     OW79602   3.104   9.938   0.608  0.2498 -0.0352 -0.2100
25657SOL    HW179603   3.113   9.847   0.578  0.2540  0.0883 -0.5888
25657SOL    HW279604   3.116   9.991   0.529  1.3821  0.3398  0.1913
25658SOL     OW79605   0.582   8.195   3.165 -0.3707 -0.3375 -0.2497
25658SOL    HW179606   0.508   8.256   3.159  0.6456  0.9357 -0.0725
25658SOL    HW279607   0.590   8.159   3.076 -1.0587 -0.3225 -0.3242
25659SOL     OW79608   0.258   7.995   8.995 -0.3190 -0.0173 -0.1557
25659SOL    HW179609   0.298   7.955   8.918 -0.2011  0.1873 -0.2016
25659SOL    HW279610   0.326   7.992   9.062  0.3553  1.7877 -0.7030
25660SOL     OW79611   9.650   6.037   6.499  0.1651 -0.0051 -0.1213
25660SOL    HW179612   9.719   6.097   6.527 -0.7085  1.0483 -0.1758
25660SOL    HW279613   9.583   6.044   6.567 -0.5097  0.0551 -0.7870
25661SOL     OW79614  10.291   4.620   3.180 -0.2150  0.3255  0.2009
25661SOL    HW179615  10.282   4.526   3.164 -0.1303  0.6828 -2.4191
25661SOL    HW279616  10.202   4.654   3.174 -0.2483  0.4273  1.1709
25662SOL     OW79617   1.747   2.036   0.493 -0.0069  0.2828  0.3098
25662SOL    HW179618   1.826   2.090   0.490 -0.8194  1.4748 -0.2350
25662SOL    HW279619   1.775   1.951   0.459  0.3204  1.6504 -3.2228
25663SOL     OW79620   4.217   8.054   8.860  0.2193  0.6629  0.2237
25663SOL    HW179621   4.215   8.144   8.828 -1.8070  1.1087  1.4216
25663SOL    HW279622   4.130   8.020   8.841  0.3940 -0.4785  1.3363
25664SOL     OW79623   7.838   0.461   2.169  0.0122 -0.0200 -0.0742
25664SOL    HW179624   7.887   0.409   2.105 -1.5807 -1.8418  0.1296
25664SOL    HW279625   7.746   0.442   2.151 -0.5359  0.7374  1.6810
25665SOL     OW79626   4.825   4.649   1.456  0.2273 -0.1147 -0.1366
25665SOL    HW179627   4.867   4.688   1.379 -1.4644  1.2103 -0.4587
25665SOL    HW279628   4.732   4.648   1.434  0.1003 -4.2875 -0.0383
25666SOL     OW79629   1.191   8.249   9.784  0.2781  0.2174  0.0259
25666SOL    HW179630   1.191   8.156   9.808 -0.6516  0.4905  1.1461
25666SOL    HW279631   1.120   8.287   9.835  1.0651  1.6796  0.0652
25667SOL     OW79632   0.446   9.029   6.535 -0.6680  0.4952  0.0224
25667SOL    HW179633   0.489   9.002   6.616 -0.3506  1.2853  0.1293
25667SOL    HW279634   0.510   9.085   6.492 -0.5827 -0.4445 -1.1035
25668SOL     OW79635   0.242   9.753   8.490  0.0374  0.0351  0.0615
25668SOL    HW179636   0.246   9.846   8.511  0.3575 -0.0176  0.2354
25668SOL    HW279637   0.329   9.732   8.456 -0.1158 -0.1423 -0.2308
25669SOL     OW79638   3.991   8.910   6.249 -0.2375 -0.3090  0.5661
25669SOL    HW179639   4.018   8.819   6.259  0.5952 -0.5425 -2.5820
25669SOL    HW279640   4.072   8.957   6.230 -0.6551  1.1385  2.1361
25670SOL     OW79641   1.529   3.965   1.010 -0.8582 -0.4605  0.6452
25670SOL    HW179642   1.570   3.890   0.967  1.6068 -0.3696  2.5728
25670SOL    HW279643   1.499   3.931   1.095  1.4492  0.8395  2.1075
25671SOL     OW79644   2.188   5.440   0.293  0.7235  0.1628  0.9172
25671SOL    HW179645   2.267   5.409   0.249  1.0616  1.6561  0.3897
25671SOL    HW279646   2.186   5.534   0.273 -2.6073 -0.2344 -1.3480
25672SOL     OW79647   1.007   1.081   1.153 -0.3130 -0.0992 -0.2363
25672SOL    HW179648   0.992   1.082   1.248 -0.4077  0.8237 -0.2539
25672SOL    HW279649   1.089   1.130   1.142  1.5192 -2.9772 -0.3552
25673SOL     OW79650   5.109   1.364   9.220  0.0825  0.5754  0.5423
25673SOL    HW179651   5.051   1.359   9.144 -1.2729  0.9092  1.5095
25673SOL    HW279652   5.109   1.275   9.256 -0.0661  0.6350  0.6949
25674SOL     OW79653   6.957   1.318   3.812 -0.6020  0.0289 -0.0266
25674SOL    HW179654   6.866   1.323   3.840 -0.2039  0.5957  1.2201
25674SOL    HW279655   6.977   1.406   3.779 -0.2424  0.1667  0.5540
25675SOL     OW79656   0.866   1.293   8.522  0.2509  0.0271 -0.1698
25675SOL    HW179657   0.803   1.225   8.498  0.1954 -0.8428  2.2067
25675SOL    HW279658   0.816   1.374   8.518 -0.5860 -0.4591  0.1184
25676SOL     OW79659   9.233   9.584   2.326  0.4079  0.2678 -0.1799
25676SOL    HW179660   9.176   9.617   2.395  0.6253  0.1719  0.0444
25676SOL    HW279661   9.187   9.506   2.293  2.3412 -2.3838  2.8551
25677SOL     OW79662   9.508   9.987   2.316  0.7064  0.0086 -0.0185
25677SOL    HW179663   9.428  10.030   2.283  1.4547 -0.2253 -2.3399
25677SOL    HW279664   9.540   9.936   2.242  1.8768 -1.6397  1.5278
25678SOL     OW79665   6.575   8.425   2.918  0.2502  0.3331 -0.0509
25678SOL    HW179666   6.567   8.514   2.885 -2.7183  0.5226  0.8568
25678SOL    HW279667   6.548   8.431   3.010  0.7108 -1.3776  0.2382
25679SOL     OW79668   2.646   2.930   7.762  0.0030  0.4080  0.5027
25679SOL    HW179669   2.584   2.947   7.691  0.8237  1.0463 -0.0871
25679SOL    HW279670   2.617   2.987   7.833 -0.8073 -0.2106  0.6794
25680SOL     OW79671   6.053   8.493   8.763  0.0934  0.3720 -0.4555
25680SOL    HW179672   6.026   8.581   8.790  0.3905  0.2193  0.3808
25680SOL    HW279673   5.972   8.451   8.734 -0.1570  0.7143 -0.2582
25681SOL     OW79674   4.553   4.339   6.064 -0.1723  0.5402  0.2660
25681SOL    HW179675   4.567   4.280   5.990  0.8350  0.3076  0.6327
25681SOL    HW279676   4.476   4.390   6.039  0.1379  0.4600 -0.9357
25682SOL     OW79677   5.349   5.544   7.618 -0.3043  0.2849 -0.3394
25682SOL    HW179678   5.300   5.605   7.562  0.4792 -0.1678 -1.5694
25682SOL    HW279679   5.376   5.474   7.558 -0.5579 -0.9017  0.8983
25683SOL     OW79680   8.891   7.073   1.116 -0.7726 -0.6191 -0.0285
25683SOL    HW179681   8.894   7.033   1.029 -3.5783 -4.0108  1.2245
25683SOL    HW279682   8.963   7.031   1.163  0.2004  0.5795 -0.3895
25684SOL     OW79683   7.599   2.781   4.717 -0.0926 -0.6637 -0.0369
25684SOL    HW179684   7.540   2.805   4.788  0.5477 -0.1708  0.3405
25684SOL    HW279685   7.686   2.785   4.756  0.1330 -2.5718 -0.2503
25685SOL     OW79686   9.882   4.743   7.706  0.6303 -0.0846  0.2093
25685SOL    HW179687   9.806   4.693   7.734 -0.0473 -0.0651 -1.4602
25685SOL    HW279688   9.883   4.819   7.764 -0.8159  0.0615  0.0888
25686SOL     OW79689  10.181   1.979   8.420  0.0149  0.4937  0.2479
25686SOL    HW179690  10.255   2.037   8.400  1.1184 -1.1728 -0.7808
25686SOL    HW279691  10.222   1.903   8.462 -1.1502 -0.3347 -0.0785
25687SOL     OW79692   9.726   4.587   2.298  0.0099  0.2042 -0.0403
25687SOL    HW179693   9.748   4.654   2.364  1.1948 -1.0187  0.8603
25687SOL    HW279694   9.688   4.515   2.348 -1.8764  0.4160 -1.0853
25688SOL     OW79695   6.509   1.628   9.185 -0.0054  0.7043 -1.0177
25688SOL    HW179696   6.444   1.689   9.151 -1.2947 -0.1224 -0.1275
25688SOL    HW279697   6.551   1.674   9.257  0.3599  1.2171 -1.5525
25689SOL     OW79698   4.902   2.686   4.716  0.3552 -0.5668 -0.0044
25689SOL    HW179699   4.904   2.713   4.807 -0.5976  0.8317 -0.3724
25689SOL    HW279700   4.989   2.708   4.682  0.7968 -1.3277  0.6158
25690SOL     OW79701   5.147   4.118   8.770 -0.3201  0.0689  0.1410
25690SOL    HW179702   5.119   4.048   8.830  0.4208 -0.9018 -0.6087
25690SOL    HW279703   5.118   4.088   8.684 -1.7615  1.6609  0.0234
25691SOL     OW79704   0.376   8.683   1.464  0.0201  0.3321  0.2630
25691SOL    HW179705   0.387   8.775   1.488  0.8783  0.2612  0.1447
25691SOL    HW279706   0.420   8.634   1.533  0.4890  0.0488 -0.2307
25692SOL     OW79707   1.515   7.624   5.054  0.4804 -0.3210  0.5940
25692SOL    HW179708   1.526   7.637   5.148  1.1323 -1.9567  0.7707
25692SOL    HW279709   1.584   7.563   5.030  0.8344  0.6825 -1.1186
25693SOL     OW79710   8.145   4.003   2.108  0.2078  0.7988  0.7536
25693SOL    HW179711   8.089   3.925   2.104  1.2988  0.0239 -2.6273
25693SOL    HW279712   8.231   3.973   2.080  1.5691  2.6254  2.6506
25694SOL     OW79713   8.913   6.692   8.318 -0.6801  0.0108 -0.5467
25694SOL    HW179714   8.975   6.671   8.249 -1.1211 -1.3100 -0.5759
25694SOL    HW279715   8.830   6.656   8.288 -0.7563 -1.1478  0.9044
25695SOL     OW79716   8.417   2.971   0.881 -0.2243  0.0238  0.0460
25695SOL    HW179717   8.409   2.901   0.816 -2.3134  0.3726 -0.1496
25695SOL    HW279718   8.387   3.050   0.836 -2.4112  0.1538  1.5518
25696SOL     OW79719   6.250   6.074   7.635 -0.2891 -0.3799 -0.3089
25696SOL    HW179720   6.292   6.127   7.567  0.5130 -0.0316  0.4535
25696SOL    HW279721   6.163   6.112   7.645 -0.0709  0.1692 -0.4689
25697SOL     OW79722   5.150   8.376   7.592  0.8122 -0.5194  0.5735
25697SOL    HW179723   5.054   8.372   7.586  0.6198 -0.9028  3.0322
25697SOL    HW279724   5.175   8.436   7.521 -1.2756 -0.0249  0.1720
25698SOL     OW79725   2.341   9.569   5.107 -0.4474 -0.6146 -0.6174
25698SOL    HW179726   2.287   9.553   5.030 -0.7787 -0.9659 -0.3142
25698SOL    HW279727   2.332   9.663   5.123 -0.4125 -0.5496 -0.9799
25699SOL     OW79728   9.699   2.590   8.183 -0.1192 -0.1722  0.1816
25699SOL    HW179729   9.678   2.684   8.180  0.7983  0.0095 -2.3510
25699SOL    HW279730   9.620   2.548   8.150 -0.1210 -0.2248  0.2527
25700SOL     OW79731  10.129   4.051   0.408  0.2934 -0.0118  0.1380
25700SOL    HW179732  10.202   4.044   0.470  0.1899  0.0006  0.2614
25700SOL    HW279733  10.141   3.976   0.349  1.9057  1.4244 -1.4516
25701SOL     OW79734   9.601   2.254   6.930  0.5962  0.3182  0.1668
25701SOL    HW179735   9.637   2.258   6.841  3.6508 -2.2481  1.0906
25701SOL    HW279736   9.652   2.318   6.980  0.2061  0.3965  0.4712
25702SOL     OW79737   8.517   8.039   6.528 -0.1172  0.0895  0.3262
25702SOL    HW179738   8.487   8.024   6.618 -1.7829 -0.8807 -0.3336
25702SOL    HW279739   8.607   8.007   6.527  0.2392  0.9335  1.8480
25703SOL     OW79740   3.835   1.803   0.584 -0.2614  0.0281 -0.0800
25703SOL    HW179741   3.906   1.842   0.635 -0.8510  0.8128  0.1687
25703SOL    HW279742   3.766   1.785   0.649 -0.2535 -0.8290 -0.2959
25704SOL     OW79743   9.557   6.392   9.877  0.0011 -0.3117  0.0172
25704SOL    HW179744   9.519   6.311   9.843  0.8117 -0.1879 -1.2766
25704SOL    HW279745   9.499   6.461   9.846  0.9374 -0.1673 -1.5124
25705SOL     OW79746   6.484   9.275   9.171 -0.5180  0.0771 -0.2666
25705SOL    HW179747   6.438   9.262   9.088  0.5336  2.4966 -1.3112
25705SOL    HW279748   6.506   9.186   9.200 -1.8112 -0.8876 -2.0215
25706SOL     OW79749   0.236   0.087   5.360  0.1275 -0.5832 -0.0910
25706SOL    HW179750   0.320   0.049   5.386 -0.7046 -3.2556 -0.9142
25706SOL    HW279751   0.171   0.037   5.411 -0.9944  1.6518  0.7862
25707SOL     OW79752   2.848  10.112   5.874 -0.3366  0.2030 -0.1496
25707SOL    HW179753   2.824  10.128   5.783 -1.6788  0.3144  0.2043
25707SOL    HW279754   2.889  10.194   5.902  1.7021 -0.4047 -1.1096
25708SOL     OW79755  10.198   0.663   5.927  0.4049  0.3164 -0.0804
25708SOL    HW179756  10.201   0.748   5.971  2.7162  0.7041 -0.8612
25708SOL    HW279757  10.207   0.683   5.834  0.4369 -0.7574 -0.3274
25709SOL     OW79758   8.045   4.921   9.419  0.3672  0.1312  0.6891
25709SOL    HW179759   7.973   4.903   9.480 -1.1275  0.0785 -1.0281
25709SOL    HW279760   8.096   4.840   9.419 -1.3783 -1.0404 -0.3929
25710SOL     OW79761   3.711   9.096   1.033  0.3276  0.4922 -0.6104
25710SOL    HW179762   3.731   9.156   1.105 -0.5288  0.9866 -0.7627
25710SOL    HW279763   3.627   9.057   1.058  1.5908 -1.8425  0.2303
25711SOL     OW79764   1.138   9.423   7.543  0.2562  0.4156 -0.3247
25711SOL    HW179765   1.076   9.372   7.595  1.0482  0.6271  0.8633
25711SOL    HW279766   1.103   9.418   7.454 -0.5038 -0.9324  0.0057
25712SOL     OW79767   9.756   4.074   3.884 -0.0443  0.8464  1.0296
25712SOL    HW179768   9.850   4.088   3.883 -0.2182  2.1434 -0.3283
25712SOL    HW279769   9.745   3.984   3.854  0.7137  1.2892 -0.7072
25713SOL     OW79770   0.447   6.097   4.722 -0.4261  0.7141 -0.3379
25713SOL    HW179771   0.537   6.102   4.755 -0.5003 -1.0530  0.2704
25713SOL    HW279772   0.455   6.058   4.635 -0.6319  0.0585 -0.0671
25714SOL     OW79773   9.681   9.899   3.763 -0.3136 -0.6527  0.4615
25714SOL    HW179774   9.656   9.819   3.718 -1.1544  0.5013 -1.2499
25714SOL    HW279775   9.747   9.940   3.706 -0.2265  0.0843  1.0664
25715SOL     OW79776   7.739   4.665   5.353 -0.3580 -0.2020  0.2934
25715SOL    HW179777   7.662   4.707   5.316  0.5040  0.5922 -0.6308
25715SOL    HW279778   7.703   4.601   5.415 -1.8449 -1.4251 -1.7053
25716SOL     OW79779   6.562   7.913   1.284 -0.4746  0.4673 -0.2560
25716SOL    HW179780   6.605   7.974   1.225  1.2215 -0.8593 -0.4651
25716SOL    HW279781   6.611   7.831   1.275 -1.8773 -0.5745  0.9517
25717SOL     OW79782  10.120   6.366   5.046 -0.0199 -0.3203  0.3149
25717SOL    HW179783  10.035   6.354   5.088  0.2123 -1.6228  0.4409
25717SOL    HW279784  10.108   6.441   4.988 -1.9795 -1.8899 -1.4758
25718SOL     OW79785   8.688   1.121   5.004  0.2083  0.0712  0.1983
25718SOL    HW179786   8.769   1.140   4.958 -0.0823  0.4923 -0.1551
25718SOL    HW279787   8.684   1.188   5.073  0.1734  0.0339  0.2327
25719SOL     OW79788   2.314   4.129   8.344  0.4027  0.0060  0.2871
25719SOL    HW179789   2.223   4.097   8.339  0.7247 -0.7533 -2.0968
25719SOL    HW279790   2.343   4.105   8.432 -1.4694 -0.4046  0.8397
25720SOL     OW79791   1.221   4.880   0.106  0.3461  0.5024  0.0299
25720SOL    HW179792   1.275   4.925   0.171 -0.2809  1.3287 -0.0098
25720SOL    HW279793   1.138   4.927   0.107 -0.2366 -0.5026 -0.1997
25721SOL     OW79794  10.207   4.078   9.758 -0.3620 -0.1662  0.0371
25721SOL    HW179795  10.290   4.039   9.786  0.5729  0.9378 -1.0605
25721SOL    HW279796  10.224   4.172   9.759 -1.0761  0.0153 -1.7477
25722SOL     OW79797   3.325   2.019   6.916 -0.1646  0.2280  0.0712
25722SOL    HW179798   3.329   1.954   6.986 -1.3751  0.2596  0.2025
25722SOL    HW279799   3.323   2.103   6.961 -2.3781  0.2148  0.1375
25723SOL     OW79800   3.468   6.693   4.000  0.1490 -0.2362  0.1883
25723SOL    HW179801   3.480   6.777   3.956  2.0113 -1.2684 -1.4416
25723SOL    HW279802   3.376   6.693   4.026 -1.1814  0.4781 -3.8494
25724SOL     OW79803   2.202  10.026   9.873  0.9197  0.2012 -0.1692
25724SOL    HW179804   2.194  10.048   9.965  1.0190  0.4570 -0.2222
25724SOL    HW279805   2.121   9.979   9.852 -0.7528  3.0972 -0.8071
25725SOL     OW79806   2.516   4.522   5.425 -0.5289 -0.2004  0.4369
25725SOL    HW179807   2.427   4.557   5.432 -0.5157 -0.3711  1.7475
25725SOL    HW279808   2.533   4.481   5.510  2.0328  2.8223  1.6292
25726SOL     OW79809   0.315   5.529   6.205  0.0735  0.0349  0.2617
25726SOL    HW179810   0.252   5.549   6.136  1.7585  0.6587 -1.1720
25726SOL    HW279811   0.283   5.577   6.282 -1.2053  0.2794 -0.3964
25727SOL     OW79812   0.047   4.025   8.297  0.4508  0.8800 -0.6928
25727SOL    HW179813   0.108   3.953   8.310  0.1069  0.6253 -0.4748
25727SOL    HW279814   0.047   4.071   8.381  0.8343  1.2671 -0.8988
25728SOL     OW79815   1.374   0.454  10.215  0.0698 -0.0107  0.2283
25728SOL    HW179816   1.405   0.365  10.234  0.9048  0.3173  0.4397
25728SOL    HW279817   1.345   0.450  10.123 -0.1559 -0.5644  0.3196
25729SOL     OW79818   2.171   0.755   9.001 -0.4199 -0.2753  0.2342
25729SOL    HW179819   2.079   0.748   9.024 -1.3983  1.2487 -2.6934
25729SOL    HW279820   2.175   0.825   8.935  2.5397 -1.4505 -1.0624
25730SOL     OW79821   6.638   5.118   2.395  0.4389  0.2957 -0.2665
25730SOL    HW179822   6.693   5.066   2.336 -0.7486  1.0318 -2.1093
25730SOL    HW279823   6.581   5.054   2.437 -0.7300 -0.0134 -2.1993
25731SOL     OW79824   2.253   6.686   8.817  0.7032 -0.0672  0.2518
25731SOL    HW179825   2.179   6.638   8.854  0.7370 -1.5996 -1.4961
25731SOL    HW279826   2.212   6.751   8.760  0.6859 -0.3968 -0.1150
25732SOL     OW79827   5.057  10.138   2.021  0.2297  0.0596 -0.3773
25732SOL    HW179828   4.972  10.115   2.057  0.8228 -1.2065  0.2603
25732SOL    HW279829   5.037  10.190   1.943 -1.1769 -1.8457 -1.3651
25733SOL     OW79830   8.596   4.201   9.572 -0.3801  0.7600  0.0643
25733SOL    HW179831   8.527   4.190   9.507  0.6796  0.2658 -1.0264
25733SOL    HW279832   8.644   4.278   9.544  0.9378 -0.2558 -0.5887
25734SOL     OW79833   1.505   0.882   4.615 -0.0044  0.3255 -0.5730
25734SOL    HW179834   1.452   0.948   4.572  0.9450  0.2734 -1.8942
25734SOL    HW279835   1.591   0.922   4.625 -0.0280  0.0909  0.6998
25735SOL     OW79836   3.742   2.290   4.298  0.2156 -0.3331  0.0065
25735SOL    HW179837   3.774   2.357   4.237  0.8320 -0.4452  0.1937
25735SOL    HW279838   3.756   2.208   4.252  1.6028 -0.4989  0.6514
25736SOL     OW79839   5.823   8.744   4.198  0.7384  0.2658  0.0824
25736SOL    HW179840   5.895   8.690   4.232  1.9372  1.5303 -0.3804
25736SOL    HW279841   5.865   8.808   4.141 -0.9204  0.0894 -1.4296
25737SOL     OW79842   2.372   5.550   0.113 -0.0545  0.0547  0.3149
25737SOL    HW179843   2.412   5.465   0.100  0.3716  0.4094 -0.8704
25737SOL    HW279844   2.313   5.560   0.038  0.7740  1.2581 -0.2222
25738SOL     OW79845  10.153   8.520   2.870 -0.1988  0.0920 -0.5003
25738SOL    HW179846  10.186   8.604   2.902  0.1491 -0.5822  1.0423
25738SOL    HW279847  10.198   8.455   2.925 -3.5930 -0.9280  1.3726
25739SOL     OW79848   5.704   5.815   4.399 -0.5941 -0.8347  0.5277
25739SOL    HW179849   5.748   5.834   4.316  0.1207  1.2752  1.3089
25739SOL    HW279850   5.752   5.867   4.464 -2.6470 -0.4851  1.8723
25740SOL     OW79851   6.168   2.049   6.019 -0.2197 -0.1209 -0.3520
25740SOL    HW179852   6.172   2.141   5.994  1.2785  0.9337  3.1676
25740SOL    HW279853   6.249   2.011   5.985 -1.0107 -0.2966 -2.1285
25741SOL     OW79854  10.146   5.028   2.323  0.0754  0.1413  0.2694
25741SOL    HW179855  10.240   5.007   2.316 -0.0844 -1.4385  2.0051
25741SOL    HW279856  10.104   4.966   2.264  0.1381  1.5383 -1.3129
25742SOL     OW79857   1.383   5.006   3.865 -0.0995  0.0704  0.5405
25742SOL    HW179858   1.307   5.008   3.924 -0.8439 -0.1461 -0.3789
25742SOL    HW279859   1.458   4.992   3.923 -0.7729  0.1421  1.4584
25743SOL     OW79860   1.949   3.597   3.041  0.1605  0.1320  0.1313
25743SOL    HW179861   1.932   3.589   2.947 -0.8213 -1.1940  0.3820
25743SOL    HW279862   1.894   3.670   3.069 -1.1692 -0.7907  0.0136
25744SOL     OW79863   3.733   7.361   1.090 -0.6376  0.2893 -0.1156
25744SOL    HW179864   3.757   7.330   1.178 -1.0486  2.3238  0.7763
25744SOL    HW279865   3.807   7.416   1.064 -0.7252  0.0582 -0.8625
25745SOL     OW79866   9.686   4.513   4.033  0.1206 -0.3085 -0.5553
25745SOL    HW179867   9.731   4.514   3.949 -1.3912 -0.7085 -1.4048
25745SOL    HW279868   9.648   4.600   4.040 -0.5788 -0.5914 -0.7630
25746SOL     OW79869   7.810   0.541   3.190  0.4680  0.3776 -0.0643
25746SOL    HW179870   7.739   0.533   3.254 -1.0776  0.7401 -1.6704
25746SOL    HW279871   7.804   0.631   3.157 -0.2572 -0.4125 -2.3043
25747SOL     OW79872   4.606   2.758   1.775  0.6037  0.0163 -0.0155
25747SOL    HW179873   4.668   2.718   1.836  1.2461 -1.8065 -1.7736
25747SOL    HW279874   4.642   2.741   1.688 -2.3532 -1.2451 -1.1481
25748SOL     OW79875   1.421   4.101   6.695  0.0297  0.7423 -0.0137
25748SOL    HW179876   1.375   4.069   6.772 -0.7261 -0.0987 -0.7796
25748SOL    HW279877   1.357   4.091   6.624  0.8017  1.2320 -0.7900
25749SOL     OW79878   7.670   6.916   6.230 -0.8258  0.2706 -0.5165
25749SOL    HW179879   7.602   6.872   6.179 -0.2009 -1.0916 -0.2343
25749SOL    HW279880   7.749   6.865   6.212 -0.3487  0.4747  0.8990
25750SOL     OW79881  10.294   6.654   3.902 -0.0779  1.0029  0.3640
25750SOL    HW179882  10.266   6.637   3.992 -0.0733 -0.7100  0.0641
25750SOL    HW279883  10.212   6.660   3.852 -0.1209 -2.9713 -0.3281
25751SOL     OW79884  10.160   4.778   7.990  0.4704 -0.0179 -1.0271
25751SOL    HW179885  10.073   4.804   8.021 -0.1162  0.5939 -3.0462
25751SOL    HW279886  10.144   4.739   7.904  2.1141 -0.7589 -1.0201
25752SOL     OW79887   6.615   0.043   4.977  0.1314  0.3894 -0.2607
25752SOL    HW179888   6.637   0.105   5.047 -0.1087  1.5604 -1.1947
25752SOL    HW279889   6.650  -0.041   5.007  0.2931  0.9335  1.1227
25753SOL     OW79890   2.666   1.772   2.304  0.2572 -0.0323 -0.2934
25753SOL    HW179891   2.745   1.734   2.344 -0.0010  0.5003  0.7697
25753SOL    HW279892   2.697   1.850   2.259  0.3083  0.3870  0.4414
25754SOL     OW79893   6.264   4.169   5.361  0.0064 -0.0728  0.0620
25754SOL    HW179894   6.298   4.121   5.286  2.9421  0.8294  0.6878
25754SOL    HW279895   6.171   4.145   5.365  0.0850 -1.2811 -2.9159
25755SOL     OW79896   2.579   0.225   3.104  0.0715  0.5039  0.1872
25755SOL    HW179897   2.519   0.238   3.030 -0.5741  2.2309  0.9455
25755SOL    HW279898   2.665   0.215   3.064 -0.0604  2.7785 -0.7970
25756SOL     OW79899   6.792   9.756   2.035  0.0133 -0.3515 -0.1669
25756SOL    HW179900   6.716   9.712   1.999 -0.7885  0.6625  0.2272
25756SOL    HW279901   6.804   9.833   1.979 -0.1454  0.2655  0.6263
25757SOL     OW79902   8.195   0.074   9.523  0.0515 -0.5710 -0.2342
25757SOL    HW179903   8.179   0.066   9.617 -0.8376  1.3052 -0.1845
25757SOL    HW279904   8.108   0.079   9.484  0.4103 -1.5472 -1.2094
25758SOL     OW79905   6.323   2.975   3.786  0.6428  0.3248  0.0862
25758SOL    HW179906   6.345   3.051   3.733  1.4410  0.0303 -0.0262
25758SOL    HW279907   6.296   2.908   3.722  0.0200  0.4768  0.1785
25759SOL     OW79908   9.632   2.091   0.870  0.2563 -0.0331  0.5118
25759SOL    HW179909   9.539   2.087   0.892  0.5729 -2.6110  1.7051
25759SOL    HW279910   9.642   2.030   0.797  0.7885  1.4434 -0.6993
25760SOL     OW79911   8.382   4.696   5.451  0.0238 -0.0654  0.4991
25760SOL    HW179912   8.348   4.607   5.459  0.7051 -0.3341  0.4934
25760SOL    HW279913   8.378   4.731   5.540  0.1704 -0.2625  0.5847
25761SOL     OW79914   4.261   0.443   5.742 -0.0722 -0.0976  0.0908
25761SOL    HW179915   4.351   0.465   5.766 -0.1791  0.0188  0.3974
25761SOL    HW279916   4.259   0.453   5.647  0.8406 -2.3589 -0.2218
25762SOL     OW79917   0.372   5.121   3.820  0.9013  0.4737  0.2883
25762SOL    HW179918   0.386   5.167   3.902  1.6491  3.7237 -1.4763
25762SOL    HW279919   0.402   5.182   3.752  1.6367 -2.5374 -2.3927
25763SOL     OW79920   2.658   9.244   8.890 -0.6190 -0.1494 -0.2655
25763SOL    HW179921   2.712   9.214   8.963 -1.9309 -0.2579  0.6897
25763SOL    HW279922   2.685   9.336   8.878  0.4373 -0.4642 -0.4514
25764SOL     OW79923   2.037   8.319   8.827  0.5550 -0.4583 -0.2753
25764SOL    HW179924   2.012   8.331   8.735  2.2198  0.5573 -0.6394
25764SOL    HW279925   1.969   8.263   8.863 -0.3507 -0.5613 -2.0302
25765SOL     OW79926   7.594   3.976   2.443  0.0351 -0.6542  0.0222
25765SOL    HW179927   7.526   3.985   2.376  2.4453  2.6042 -2.3237
25765SOL    HW279928   7.670   3.943   2.395  1.3128 -0.0509  1.5665
25766SOL     OW79929   4.506   6.537   1.908 -0.5572 -0.0428  0.1639
25766SOL    HW179930   4.447   6.598   1.951 -0.3667  0.7833 -0.7163
25766SOL    HW279931   4.449   6.480   1.856 -0.5618  1.4813 -1.6043
25767SOL     OW79932   7.995   1.504   6.786  0.6089 -0.0191 -0.2679
25767SOL    HW179933   7.948   1.544   6.859 -0.6426 -0.3606 -0.8519
25767SOL    HW279934   8.014   1.577   6.727 -0.1876 -0.0288 -0.5473
25768SOL     OW79935   8.083   3.072   2.697  1.0365  0.3889 -0.1078
25768SOL    HW179936   8.059   3.159   2.665 -0.1467  0.2511  0.3384
25768SOL    HW279937   8.123   3.089   2.783  1.6063  0.5448 -0.3975
25769SOL     OW79938   3.975   2.053   6.012  0.1035 -0.1245 -0.2560
25769SOL    HW179939   3.946   2.031   5.924  0.8582 -1.3423 -0.2385
25769SOL    HW279940   3.963   2.147   6.019 -0.1461 -0.0342 -1.5886
25770SOL     OW79941  10.329   4.000   1.186  0.3938 -0.2861  0.4090
25770SOL    HW179942  10.347   3.911   1.155  0.4596  0.1822 -0.9411
25770SOL    HW279943  10.287   4.043   1.113  2.8519  1.6259 -0.0229
25771SOL     OW79944   0.220   6.942   5.368 -0.4695  0.2720  0.5958
25771SOL    HW179945   0.171   6.872   5.326 -1.1898  0.9049  0.3562
25771SOL    HW279946   0.160   6.976   5.435  0.5627 -0.5542  1.9914
25772SOL     OW79947   4.702   5.679   4.098 -0.3168 -0.1667  0.1593
25772SOL    HW179948   4.727   5.596   4.058 -0.8165  0.3528 -1.2628
25772SOL    HW279949   4.672   5.655   4.186 -0.3559 -1.4687 -0.1943
25773SOL     OW79950   6.425   1.893   1.448 -0.3963  0.1809 -0.0998
25773SOL    HW179951   6.489   1.946   1.496 -1.6916 -0.4966  2.5071
25773SOL    HW279952   6.468   1.808   1.436 -0.3870  0.0765  0.6555
25774SOL     OW79953   6.784   0.257   5.517 -0.1699 -0.7353 -0.1720
25774SOL    HW179954   6.773   0.310   5.438  0.3462 -1.0894 -0.4879
25774SOL    HW279955   6.757   0.315   5.588 -0.7031 -0.4376 -0.6131
25775SOL     OW79956   6.553   0.755   6.385  0.1655 -0.0670  0.6230
25775SOL    HW179957   6.607   0.822   6.428 -0.8276 -0.1930  2.1616
25775SOL    HW279958   6.572   0.675   6.434 -1.3846 -0.1092  1.2017
25776SOL     OW79959   8.975   5.339   1.281 -0.5726 -0.1719  0.1892
25776SOL    HW179960   9.062   5.347   1.321 -0.2444  1.2218 -0.7404
25776SOL    HW279961   8.916   5.325   1.356  0.0165  2.3676  1.2324
25777SOL     OW79962   9.045   5.823   2.263 -0.2266  0.0182  0.1447
25777SOL    HW179963   9.131   5.837   2.221  1.6795 -3.6409  2.3081
25777SOL    HW279964   9.041   5.889   2.332  1.8047 -0.8632  1.1929
25778SOL     OW79965   6.938   6.852   5.682  0.0131 -0.2268  0.1545
25778SOL    HW179966   6.865   6.824   5.627  1.7848 -1.9639 -1.4760
25778SOL    HW279967   6.907   6.841   5.772 -2.4791  1.2963 -0.4183
25779SOL     OW79968   7.554   9.079   4.563 -0.4692  0.4860  0.7506
25779SOL    HW179969   7.585   9.075   4.472 -1.1026  2.3666  0.4095
25779SOL    HW279970   7.459   9.071   4.556 -0.3820 -1.7465  1.4891
25780SOL     OW79971   6.569   0.895   1.686 -0.2893 -0.5225  0.4395
25780SOL    HW179972   6.500   0.958   1.706 -0.4623 -0.5456 -0.0779
25780SOL    HW279973   6.531   0.838   1.619  0.0863 -0.7888  0.4519
25781SOL     OW79974   7.602   0.559   5.653 -0.0709 -0.4121  0.3823
25781SOL    HW179975   7.520   0.591   5.691  0.6216 -0.0601  1.5891
25781SOL    HW279976   7.666   0.627   5.669  0.5819 -0.8665 -0.1870
25782SOL     OW79977   2.217   4.477   2.742  0.0156  0.4258 -0.4625
25782SOL    HW179978   2.240   4.386   2.726 -0.0383  0.5648 -1.3282
25782SOL    HW279979   2.301   4.524   2.739 -0.0570  0.5282 -0.8399
25783SOL     OW79980   3.211   2.776   1.595  0.6184  0.3111 -0.0108
25783SOL    HW179981   3.287   2.721   1.615  0.9605  0.4505 -0.8718
25783SOL    HW279982   3.184   2.748   1.508 -0.4360  0.1462  0.3558
25784SOL     OW79983   4.520   6.661  10.356 -0.5388  0.0038 -0.0129
25784SOL    HW179984   4.532   6.754  10.375 -0.5059  0.0599 -0.3026
25784SOL    HW279985   4.589   6.617  10.407 -1.0826  0.0620  0.7938
25785SOL     OW79986   2.833   3.096   9.134  0.4001  0.3138  0.6505
25785SOL    HW179987   2.917   3.135   9.160  0.8778  0.6388 -1.2405
25785SOL    HW279988   2.767   3.144   9.185  1.2230  1.3559  0.7630
25786SOL     OW79989   1.717   3.974   2.966 -0.3180  0.3010  0.0294
25786SOL    HW179990   1.666   4.041   3.012  0.3186  0.4525  0.5359
25786SOL    HW279991   1.741   3.911   3.035 -0.0610  0.0851 -0.2551
25787SOL     OW79992  10.000   4.792   6.064  0.2129  0.0901  0.5431
25787SOL    HW179993  10.048   4.866   6.102 -1.8462  1.6969  0.1851
25787SOL    HW279994   9.944   4.762   6.135  1.2308 -1.3707  0.7703
25788SOL     OW79995   6.573  10.091   4.041  0.3494 -0.4774 -0.2714
25788SOL    HW179996   6.625  10.040   3.979  1.3402  0.0453  0.1000
25788SOL    HW279997   6.583  10.045   4.125 -1.6774 -1.6592 -0.6386
25789SOL     OW79998   8.562   1.925   7.632 -0.4445 -0.2078 -0.3184
25789SOL    HW179999   8.645   1.973   7.633 -0.1374 -0.7208 -0.6003
25789SOL    HW280000   8.525   1.939   7.719  0.2527 -0.5087  0.0316
25790SOL     OW80001   6.561   5.627   8.620  0.0028 -0.3324 -0.2378
25790SOL    HW180002   6.588   5.718   8.636 -0.8590 -0.1855  0.4435
25790SOL    HW280003   6.538   5.594   8.706 -1.0898 -0.7394 -0.6781
25791SOL     OW80004   3.509   1.737   0.965  0.4694  0.5412  0.2100
25791SOL    HW180005   3.590   1.772   0.929  0.6419 -0.9070 -0.9230
25791SOL    HW280006   3.443   1.759   0.899  0.5267 -0.9045 -0.3672
25792SOL     OW80007   7.358   3.533   1.370  0.1010 -0.1328 -0.6748
25792SOL    HW180008   7.386   3.482   1.447 -1.3896  0.9129  0.6306
25792SOL    HW280009   7.355   3.623   1.401 -1.3432  0.2068 -1.7137
25793SOL     OW80010   3.102   0.381   2.636 -0.0162 -0.4016  0.9119
25793SOL    HW180011   3.068   0.416   2.553  1.1341 -0.4204  0.4213
25793SOL    HW280012   3.196   0.398   2.633  0.1450 -1.0535  1.8958
25794SOL     OW80013   0.489   2.181   0.108  0.0895 -0.2711  0.1264
25794SOL    HW180014   0.443   2.128   0.043 -0.5370  1.0570 -0.5542
25794SOL    HW280015   0.421   2.210   0.169  0.1946  0.7739 -0.2362
25795SOL     OW80016   9.719   1.526   0.656  0.0591 -0.0629  0.1867
25795SOL    HW180017   9.682   1.483   0.733 -2.7719 -0.6416 -1.3494
25795SOL    HW280018   9.812   1.536   0.676 -0.6591  0.6226  4.0150
25796SOL     OW80019   6.076   5.275   5.030  0.4533  0.4865 -0.6963
25796SOL    HW180020   6.005   5.214   5.051 -0.1666  2.0137  2.1947
25796SOL    HW280021   6.113   5.242   4.949 -2.2165 -1.5792 -1.2143
25797SOL     OW80022   5.381   4.866   8.386  0.0285  0.1021 -0.3182
25797SOL    HW180023   5.347   4.951   8.358 -0.3276 -0.4029 -1.4691
25797SOL    HW280024   5.324   4.802   8.343  1.4156 -0.7344 -0.9911
25798SOL     OW80025   2.348   5.068   7.870  0.1850 -0.3026  0.2718
25798SOL    HW180026   2.330   4.984   7.829 -0.1383  0.1265 -0.4877
25798SOL    HW280027   2.377   5.046   7.959 -0.4360 -1.1895  0.2670
25799SOL     OW80028   3.164   9.139   8.115 -0.4317  0.7698 -0.2048
25799SOL    HW180029   3.103   9.180   8.054 -0.3503  0.7211 -0.3196
25799SOL    HW280030   3.170   9.048   8.086 -0.6630  0.6572  0.0905
25800SOL     OW80031   2.124   7.977   2.303 -0.5904 -0.2772 -0.6543
25800SOL    HW180032   2.097   7.941   2.219 -3.1602 -1.3452  0.5434
25800SOL    HW280033   2.043   8.001   2.347  0.7541  1.7572  0.9379
25801SOL     OW80034   6.622   8.343   4.621 -0.4003 -0.5560 -0.1513
25801SOL    HW180035   6.572   8.266   4.596  1.1657 -1.0681 -1.8783
25801SOL    HW280036   6.713   8.315   4.622  0.2244  1.2544 -0.8649
25802SOL     OW80037   6.087   7.711   3.938  0.6445  0.1157  0.1872
25802SOL    HW180038   6.063   7.783   3.996  1.5867 -0.0406  0.7977
25802SOL    HW280039   6.012   7.652   3.940  0.6183  0.1708  1.1651
25803SOL     OW80040   3.635   4.923   4.237  0.1038  0.0235  0.0300
25803SOL    HW180041   3.674   5.011   4.231  0.9322 -0.4487 -2.9293
25803SOL    HW280042   3.683   4.871   4.174 -0.8916 -2.4256  1.1659
25804SOL     OW80043   2.976   7.408   7.272  0.4215 -0.0070  0.2536
25804SOL    HW180044   2.945   7.463   7.345  0.0502  0.2411 -0.0870
25804SOL    HW280045   2.979   7.468   7.197  2.2187  0.1086  0.3754
25805SOL     OW80046   9.140   1.718   2.585  0.3139  0.2760 -0.3240
25805SOL    HW180047   9.081   1.768   2.529 -0.0059  1.6043  1.1313
25805SOL    HW280048   9.226   1.758   2.571  0.1221  1.0378  0.5641
25806SOL     OW80049   9.457   1.796   3.971  0.0221  0.2819  0.5044
25806SOL    HW180050   9.448   1.702   3.982 -1.5895  0.1158 -1.4807
25806SOL    HW280051   9.368   1.830   3.982  0.1594  1.2551 -0.9928
25807SOL     OW80052   2.008   2.410   9.429  0.0122  0.3320 -0.9582
25807SOL    HW180053   2.090   2.367   9.453  1.7138  3.0773 -1.4062
25807SOL    HW280054   1.940   2.361   9.476  2.0280 -1.2119  0.5137
25808SOL     OW80055   0.343   0.893   1.576 -1.0109 -0.3399 -0.2844
25808SOL    HW180056   0.435   0.866   1.577 -0.6433  0.8465  0.4669
25808SOL    HW280057   0.344   0.982   1.540 -1.6126  0.4259  1.4759
25809SOL     OW80058   7.629   3.063   1.519 -0.5217 -0.0866 -0.1178
25809SOL    HW180059   7.565   3.015   1.466  0.0367  0.7793 -1.6270
25809SOL    HW280060   7.651   3.003   1.590 -1.3598 -1.2500 -0.8091
25810SOL     OW80061   0.184   6.409   3.939 -0.1136  0.4481 -0.4781
25810SOL    HW180062   0.262   6.368   3.976 -0.1882 -1.0353 -1.9008
25810SOL    HW280063   0.198   6.503   3.952  0.2731  0.0791  2.4298
25811SOL     OW80064   6.041   6.306   8.206  0.4670  0.1638 -0.0334
25811SOL    HW180065   6.077   6.232   8.255  0.5459 -1.0680 -1.8362
25811SOL    HW280066   6.090   6.382   8.238  0.9457 -0.6654  1.2954
25812SOL     OW80067   8.837   0.950   1.082 -0.7911 -0.2459 -0.6264
25812SOL    HW180068   8.751   0.919   1.113  0.1979 -0.4891  2.1269
25812SOL    HW280069   8.887   0.870   1.067 -0.8474 -0.0880 -1.7814
25813SOL     OW80070   1.682   1.772   1.993  0.2582  0.7063  0.1822
25813SOL    HW180071   1.767   1.748   1.959  0.3329  2.0835 -0.6891
25813SOL    HW280072   1.668   1.714   2.068  0.3254 -2.0383 -1.8131
25814SOL     OW80073   7.672   8.282   2.162 -0.1339 -0.2594  0.1104
25814SOL    HW180074   7.580   8.259   2.154 -0.0088 -0.6447 -0.2435
25814SOL    HW280075   7.719   8.206   2.128  0.3711 -0.8157  1.9158
25815SOL     OW80076   3.306   5.543   0.020 -0.1448 -0.0420 -0.0149
25815SOL    HW180077   3.355   5.611   0.066 -0.1844  1.5511 -2.1914
25815SOL    HW280078   3.267   5.588  -0.055  0.0992 -2.5219 -1.7396
25816SOL     OW80079   7.723   0.612   2.529 -0.8117 -0.1457 -0.2194
25816SOL    HW180080   7.726   0.707   2.541  0.3575 -0.0090 -1.3299
25816SOL    HW280081   7.760   0.598   2.442 -0.8935 -1.6300 -0.0419
25817SOL     OW80082   4.105   5.055   9.108 -0.1982 -0.9378  0.0937
25817SOL    HW180083   4.185   5.075   9.059 -0.4139 -0.2614 -0.0057
25817SOL    HW280084   4.070   4.977   9.066 -1.0538  0.3322 -1.7219
25818SOL     OW80085   5.021   1.132   4.767  0.0946  0.7796 -0.1119
25818SOL    HW180086   4.950   1.101   4.824  0.4630  1.2282  0.5933
25818SOL    HW280087   5.081   1.057   4.761 -0.1452  0.5951 -0.2468
25819SOL     OW80088   5.191   5.340   8.199 -0.6542 -0.5627 -0.7800
25819SOL    HW180089   5.186   5.435   8.189  0.4288 -0.2598  1.0843
25819SOL    HW280090   5.261   5.314   8.139  0.2789  0.0756  0.0079
25820SOL     OW80091   1.991   2.363   4.838 -0.2776  0.0692  0.3615
25820SOL    HW180092   1.986   2.331   4.748  1.1257  0.5786  0.0720
25820SOL    HW280093   1.907   2.406   4.854 -0.7605 -0.5459 -0.4944
25821SOL     OW80094   0.808   5.908   3.138 -0.1957 -0.6172 -0.3264
25821SOL    HW180095   0.834   5.999   3.125  1.1350 -0.4618  2.6842
25821SOL    HW280096   0.734   5.913   3.199 -1.5433 -1.5193 -1.8065
25822SOL     OW80097   4.156   5.877   1.573 -0.9946  0.2559  0.1408
25822SOL    HW180098   4.074   5.862   1.621 -1.0748  0.2707  0.0094
25822SOL    HW280099   4.141   5.835   1.488 -1.4613  1.6284 -0.4810
25823SOL     OW80100   6.001   4.105   3.776  0.1785  0.1200 -0.2866
25823SOL    HW180101   6.043   4.094   3.861  0.7235 -0.1485 -0.5819
25823SOL    HW280102   6.073   4.096   3.713 -0.1528  0.6895 -0.7548
25824SOL     OW80103   3.867   1.672   4.216 -0.0932 -0.3857  0.0450
25824SOL    HW180104   3.795   1.628   4.261 -0.3943  1.3325  1.3249
25824SOL    HW280105   3.859   1.764   4.240  1.9922  0.0086 -0.5119
25825SOL     OW80106   6.137   8.121   1.717  0.9497 -0.4949  0.1397
25825SOL    HW180107   6.097   8.037   1.737  1.8138 -0.7768  0.7342
25825SOL    HW280108   6.116   8.136   1.624 -0.6746 -0.5245  0.4650
25826SOL     OW80109   3.373   8.983   0.641  0.9712 -0.3558  0.0808
25826SOL    HW180110   3.352   9.008   0.551  0.6238 -0.4190  0.1424
25826SOL    HW280111   3.381   9.067   0.688 -0.1021 -0.3319  0.2662
25827SOL     OW80112   8.032   3.761   2.157  0.1072 -0.5638  0.3616
25827SOL    HW180113   8.039   3.685   2.099 -0.5906  1.3074 -2.3782
25827SOL    HW280114   8.018   3.724   2.244 -0.7365 -3.5500 -0.9249
25828SOL     OW80115   1.915   6.194   9.104 -0.2031  0.1281 -0.5579
25828SOL    HW180116   1.831   6.237   9.091 -0.6602 -0.1646  1.1355
25828SOL    HW280117   1.974   6.264   9.133 -0.0843  0.1682 -0.8853
25829SOL     OW80118   9.883   5.249   1.766  0.3752  0.1166 -0.2602
25829SOL    HW180119   9.913   5.236   1.856  0.8078 -2.4646 -0.6998
25829SOL    HW280120   9.818   5.180   1.752 -0.0161  0.7622 -1.7940
25830SOL     OW80121   5.957   1.827   8.018 -0.4940  0.1116 -0.2109
25830SOL    HW180122   5.876   1.788   8.050 -0.0910 -0.3938  0.2227
25830SOL    HW280123   5.936   1.919   8.005 -0.3662  0.6597  2.7873
25831SOL     OW80124   8.201   3.957   8.774 -0.4263  0.0794  0.3551
25831SOL    HW180125   8.140   3.947   8.847 -1.1235 -0.6366 -0.3071
25831SOL    HW280126   8.273   4.008   8.810 -1.4154  0.9635  1.1536
25832SOL     OW80127   9.108   9.362   6.831  0.2048  0.0679  0.6497
25832SOL    HW180128   9.196   9.387   6.803 -0.2728  0.3085 -0.6918
25832SOL    HW280129   9.115   9.268   6.851  0.7121  0.0349  0.3317
25833SOL     OW80130   9.826   7.459   0.780 -0.1947  0.1253  0.1716
25833SOL    HW180131   9.789   7.467   0.692 -1.2794 -0.9445  0.5176
25833SOL    HW280132   9.847   7.366   0.789  0.8512  0.3971  0.6895
25834SOL     OW80133   7.467   8.366   8.281  0.1733 -0.0631  0.1789
25834SOL    HW180134   7.399   8.344   8.344 -0.8350  1.2915 -0.3665
25834SOL    HW280135   7.498   8.452   8.309 -0.2621  0.5385 -1.0978
25835SOL     OW80136   1.172   4.242   9.543 -0.4403 -0.3722  0.0789
25835SOL    HW180137   1.093   4.223   9.494  0.0709  1.2097 -1.4668
25835SOL    HW280138   1.225   4.296   9.484  1.0171  0.0908  1.7065
25836SOL     OW80139   0.243   1.924   4.578 -0.6679  0.1999  0.4062
25836SOL    HW180140   0.239   1.859   4.508  0.7983  1.5766 -1.0594
25836SOL    HW280141   0.187   1.995   4.548 -1.1438  0.2346  1.3316
25837SOL     OW80142   3.011   1.619   8.213  0.0512  0.0174  0.3480
25837SOL    HW180143   3.104   1.637   8.228 -0.0155  2.3922 -1.4946
25837SOL    HW280144   3.006   1.524   8.210  2.3466 -0.1960  0.9084
25838SOL     OW80145   5.995   7.135   6.556 -0.3895  0.3750 -0.4471
25838SOL    HW180146   5.941   7.137   6.476  0.6013  0.9090 -1.1314
25838SOL    HW280147   6.076   7.179   6.530 -0.5747  1.8009  1.2592
25839SOL     OW80148   1.766   8.962   8.547 -0.7877 -0.5551 -0.5736
25839SOL    HW180149   1.679   8.958   8.507 -0.4873 -0.1137 -1.2766
25839SOL    HW280150   1.789   9.055   8.546 -1.1308 -0.4043  1.4259
25840SOL     OW80151   1.102   1.614   4.530  0.1072 -0.6590  0.1927
25840SOL    HW180152   1.014   1.577   4.519  0.6427 -2.1983  0.8535
25840SOL    HW280153   1.100   1.652   4.618 -0.1349  0.0459 -0.1082
25841SOL     OW80154   4.382  10.335   4.625  0.0299 -0.1122  0.6402
25841SOL    HW180155   4.419  10.263   4.573 -1.1528  1.1374 -2.0716
25841SOL    HW280156   4.338  10.290   4.698 -2.1878 -2.3921 -1.8726
25842SOL     OW80157   0.937   7.078   6.150  0.5493 -0.5423  0.0985
25842SOL    HW180158   0.955   7.126   6.069 -0.4444 -0.2702  0.0255
25842SOL    HW280159   0.883   7.003   6.122  0.4959 -0.6416  0.4564
25843SOL     OW80160   3.490   3.715   4.867 -0.4160 -0.2251 -0.4362
25843SOL    HW180161   3.438   3.788   4.832 -0.1299 -0.2848 -1.0010
25843SOL    HW280162   3.568   3.714   4.811  0.5467  0.3367  0.8571
25844SOL     OW80163   1.982   4.905   4.488 -0.0529 -0.3063 -0.8194
25844SOL    HW180164   2.074   4.883   4.472 -0.0796 -0.0494 -1.3347
25844SOL    HW280165   1.984   4.994   4.522 -0.0827 -0.4530 -0.4279
25845SOL     OW80166   7.988  10.242   7.240  0.1806  0.2073 -0.0661
25845SOL    HW180167   8.014  10.174   7.179 -1.5326 -0.3772 -0.1941
25845SOL    HW280168   7.960  10.315   7.185 -0.5363  0.0019  0.0131
25846SOL     OW80169   5.779   7.084   2.648  0.3118 -0.1532  0.0624
25846SOL    HW180170   5.857   7.030   2.656 -1.0978 -2.4234 -0.6192
25846SOL    HW280171   5.724   7.058   2.722 -0.5794 -0.0064 -0.5284
25847SOL     OW80172   1.463   0.563   7.924  0.5357 -0.2135  0.1293
25847SOL    HW180173   1.507   0.544   7.841  0.4966  2.8679 -0.7154
25847SOL    HW280174   1.381   0.516   7.919 -0.1363  1.0333 -2.3255
25848SOL     OW80175  10.093   7.959   1.554  0.0529 -0.7008 -0.0059
25848SOL    HW180176  10.038   8.013   1.496 -0.4905  0.3812  1.4611
25848SOL    HW280177  10.052   7.873   1.552 -0.8924 -0.2676 -0.0124
25849SOL     OW80178   6.649   0.444   7.516 -0.2191 -0.1253  0.0770
25849SOL    HW180179   6.594   0.514   7.552 -0.4690 -1.1803  1.8494
25849SOL    HW280180   6.652   0.378   7.584  1.9172 -0.8493 -0.6299
25850SOL     OW80181   7.574   1.979   2.476 -0.9569 -0.1213  0.4992
25850SOL    HW180182   7.572   1.896   2.428 -1.5743 -0.3904  0.9878
25850SOL    HW280183   7.509   1.969   2.545 -0.1380  0.2970  1.3581
25851SOL     OW80184   2.934   9.663   9.511  0.4113 -0.3948  0.0901
25851SOL    HW180185   2.891   9.740   9.474  1.6196  0.1666 -0.2018
25851SOL    HW280186   2.914   9.592   9.450 -1.1897 -0.4594  0.6612
25852SOL     OW80187   3.010   4.281   7.210  0.1358  0.1853  0.2789
25852SOL    HW180188   2.918   4.295   7.231 -0.5288 -1.4148 -1.3063
25852SOL    HW280189   3.053   4.269   7.295 -1.2334  0.2953  1.0023
25853SOL     OW80190   1.484   7.436   8.366  0.6443 -0.2527 -0.8016
25853SOL    HW180191   1.411   7.396   8.318 -0.2144  0.5916 -0.2205
25853SOL    HW280192   1.468   7.413   8.457  1.1850 -0.1737 -0.6822
25854SOL     OW80193   1.854   4.489   2.937  0.3089  0.0990  0.6381
25854SOL    HW180194   1.820   4.415   2.887  1.2349  0.1904 -0.1623
25854SOL    HW280195   1.814   4.480   3.023 -0.4232 -0.7246  0.2301
25855SOL     OW80196   7.759   9.544   8.667 -0.1050  0.2651 -0.7262
25855SOL    HW180197   7.852   9.534   8.686 -0.6073 -0.5248  1.5994
25855SOL    HW280198   7.738   9.469   8.610  0.6790  0.4979 -1.3319
25856SOL     OW80199   6.728   0.493   2.145  0.3838  0.3361  0.3165
25856SOL    HW180200   6.770   0.547   2.078 -0.6602  0.3074 -0.3916
25856SOL    HW280201   6.640   0.530   2.154 -0.7088 -1.7545 -0.8752
25857SOL     OW80202   6.227   9.408   7.327  0.1007  0.1981  0.0156
25857SOL    HW180203   6.243   9.322   7.367  1.4307  0.1022 -0.6774
25857SOL    HW280204   6.284   9.467   7.376  0.8568  0.2849 -0.9463
25858SOL     OW80205   7.976   4.040   4.561 -0.3972  0.1905  0.2284
25858SOL    HW180206   8.066   4.010   4.549 -0.6515 -0.1808 -0.8618
25858SOL    HW280207   7.923   3.960   4.555 -0.8600  0.5023  0.0988
25859SOL     OW80208   8.615   3.224   0.459 -0.0754 -0.4256  1.0834
25859SOL    HW180209   8.623   3.293   0.394  1.2173 -0.9939  0.6156
25859SOL    HW280210   8.521   3.213   0.470 -0.3124  0.9702  0.7180
25860SOL     OW80211   3.982   4.081   2.186 -0.1082  0.3440  0.1194
25860SOL    HW180212   3.975   3.994   2.226  0.3757 -0.2359 -0.9966
25860SOL    HW280213   4.000   4.063   2.093  1.9540  1.6053  0.2094
25861SOL     OW80214   8.629   2.816   5.990 -0.6778 -1.1305 -0.7564
25861SOL    HW180215   8.622   2.797   6.084 -2.1877 -0.1857 -0.6495
25861SOL    HW280216   8.563   2.883   5.974 -0.1226 -0.9348 -2.4202
25862SOL     OW80217   1.551   8.523   4.674 -0.0889 -0.2412 -0.3712
25862SOL    HW180218   1.598   8.440   4.674  0.5145  0.0801  0.7392
25862SOL    HW280219   1.548   8.549   4.582  0.8250 -0.8733 -0.5950
25863SOL     OW80220   2.490   7.069   2.727  0.2632  0.3824  0.0133
25863SOL    HW180221   2.554   7.121   2.679  0.8025 -1.2749 -1.1399
25863SOL    HW280222   2.516   6.978   2.712  0.5438 -0.2728  3.5712
25864SOL     OW80223   4.091   1.473   5.634 -0.6137 -0.0908  0.5287
25864SOL    HW180224   3.996   1.487   5.626 -0.3830  0.7763 -1.0962
25864SOL    HW280225   4.098   1.387   5.676 -2.1683 -1.3493 -1.5519
25865SOL     OW80226   6.676   0.773   9.955  0.3394  0.7868  0.3118
25865SOL    HW180227   6.671   0.848  10.014 -1.3431  1.0082 -0.0618
25865SOL    HW280228   6.617   0.795   9.884 -0.8983 -1.2604  0.6358
25866SOL     OW80229   7.706   5.129  10.275  0.2402  0.0163 -0.4051
25866SOL    HW180230   7.784   5.110  10.224  1.6885  0.4690  1.5449
25866SOL    HW280231   7.682   5.219  10.250  0.4840 -0.0235 -0.7924
25867SOL     OW80232   5.978   5.161   0.959  0.0614  0.3490 -0.2420
25867SOL    HW180233   5.969   5.081   1.010 -0.3118  0.0935 -0.7031
25867SOL    HW280234   5.889   5.196   0.953  0.2220  0.8026 -0.0394
25868SOL     OW80235   5.439   8.125   7.161  0.4968 -0.0594  0.0160
25868SOL    HW180236   5.419   8.191   7.228  2.7201  0.1004  0.5949
25868SOL    HW280237   5.411   8.165   7.079 -1.4060  0.1314  0.6984
25869SOL     OW80238  10.164   0.354   5.991  0.8048  0.8438 -0.1933
25869SOL    HW180239  10.175   0.267   6.029  2.4100  0.8953 -0.4684
25869SOL    HW280240  10.133   0.409   6.063  3.7529  0.9428  1.1486
25870SOL     OW80241   5.016   6.645   1.907  0.2586  0.2444  0.3482
25870SOL    HW180242   5.101   6.649   1.862 -0.1055 -1.6944 -0.6027
25870SOL    HW280243   4.952   6.637   1.836 -0.3635 -2.5949  1.1209
25871SOL     OW80244   8.744   4.100   3.276 -0.2128  0.5167  0.4035
25871SOL    HW180245   8.718   4.017   3.316  1.1072 -0.3728 -0.4710
25871SOL    HW280246   8.734   4.165   3.346 -0.9855 -0.4340  1.1999
25872SOL     OW80247   9.515   7.108   7.155 -0.1959  0.2097 -0.1729
25872SOL    HW180248   9.429   7.139   7.129  0.9204  2.6837 -1.1626
25872SOL    HW280249   9.553   7.180   7.205  1.5226 -0.6130 -0.2154
25873SOL     OW80250   7.104   1.108  10.147  0.2334 -0.1527 -0.5812
25873SOL    HW180251   7.192   1.082  10.121  1.4315  2.0266  0.9406
25873SOL    HW280252   7.091   1.067  10.233  0.2727  0.5221 -0.2505
25874SOL     OW80253   1.343   3.318   0.601 -0.0935 -0.3396 -0.1846
25874SOL    HW180254   1.379   3.339   0.515  0.8951  1.6139  0.6470
25874SOL    HW280255   1.385   3.236   0.625  1.0494  0.0496 -0.7765
25875SOL     OW80256   1.087   0.654   5.195  1.0213  0.6850 -0.5277
25875SOL    HW180257   1.054   0.564   5.196 -1.2395  1.4495 -0.3275
25875SOL    HW280258   1.144   0.658   5.118 -1.7340 -0.0124 -2.7765
25876SOL     OW80259   3.126   2.618   3.968  0.0679 -1.1047 -0.1198
25876SOL    HW180260   3.161   2.543   4.017  2.0050 -0.7311 -0.8433
25876SOL    HW280261   3.185   2.690   3.989 -1.1802 -0.0065 -0.2273
25877SOL     OW80262   5.231  10.145   6.509 -0.4128  0.1987  0.0034
25877SOL    HW180263   5.250  10.054   6.485  0.9891  0.6911 -0.9077
25877SOL    HW280264   5.282  10.197   6.447 -0.6747  1.6120  0.9276
25878SOL     OW80265   6.913   9.998   4.579  0.4259 -0.1289  0.3072
25878SOL    HW180266   6.875   9.916   4.612 -1.4969  0.2838 -0.7147
25878SOL    HW280267   6.984   9.969   4.522  2.4050 -0.9056  2.9601
25879SOL     OW80268   5.162   5.355   5.793  0.4553  0.7224  0.1637
25879SOL    HW180269   5.113   5.347   5.711  0.8662  2.5975 -0.3007
25879SOL    HW280270   5.108   5.309   5.858 -1.3065  1.6782 -0.5838
25880SOL     OW80271   9.987   9.508  10.202 -0.4536 -0.1800 -0.2718
25880SOL    HW180272   9.923   9.474  10.140  0.0062 -3.7147  0.9521
25880SOL    HW280273  10.068   9.462  10.180  0.2569  0.0910  1.5851
25881SOL     OW80274   9.527   1.456   0.131 -0.2351 -0.2251 -0.3889
25881SOL    HW180275   9.490   1.371   0.152 -2.0139  0.2930 -1.2416
25881SOL    HW280276   9.602   1.436   0.075 -1.1316 -1.2270 -1.2812
25882SOL     OW80277   5.475   6.550  10.034  0.2910  0.1592 -0.1573
25882SOL    HW180278   5.455   6.457  10.049 -1.3338  0.2569 -1.3846
25882SOL    HW280279   5.399   6.596  10.070 -0.5677  0.7549 -2.5208
25883SOL     OW80280   4.989   0.260   5.645 -0.3215 -0.2522  0.1710
25883SOL    HW180281   5.069   0.276   5.595 -0.3783  1.7920  0.6368
25883SOL    HW280282   5.005   0.177   5.691  1.0338 -0.4847 -0.6761
25884SOL     OW80283   1.834   4.698   1.536 -0.5538  0.0909  0.1591
25884SOL    HW180284   1.911   4.647   1.509  0.7332  2.7800 -1.6225
25884SOL    HW280285   1.787   4.716   1.455 -0.9128  1.7468  0.6951
25885SOL     OW80286   3.484   7.052   4.719 -0.2126 -0.9370  0.0207
25885SOL    HW180287   3.452   7.000   4.646 -0.0553 -1.9467  0.6552
25885SOL    HW280288   3.419   7.121   4.730 -0.7501 -1.3664 -0.4347
25886SOL     OW80289   3.178   5.756   4.339 -0.1387  0.2209  0.3344
25886SOL    HW180290   3.097   5.781   4.295 -0.5595  1.3416  1.6675
25886SOL    HW280291   3.173   5.661   4.346 -1.0231  0.2154 -0.1747
25887SOL     OW80292   9.529   0.969   1.080 -0.2973 -1.0530  0.1933
25887SOL    HW180293   9.592   0.929   1.021  1.0148 -0.6208  1.2293
25887SOL    HW280294   9.583   1.022   1.139 -1.8176  0.9581 -0.1376
25888SOL     OW80295   7.735   5.536   5.370  0.1335 -0.3425 -0.2950
25888SOL    HW180296   7.807   5.478   5.394 -0.2696 -0.3394  1.0301
25888SOL    HW280297   7.669   5.522   5.439 -0.6315  0.5232 -0.8249
25889SOL     OW80298   8.665   4.916   0.663 -0.1208 -0.2853 -0.2793
25889SOL    HW180299   8.697   4.916   0.753  1.3189  0.0864 -0.7718
25889SOL    HW280300   8.616   4.998   0.656  1.1036  0.4763 -0.2666
25890SOL     OW80301   4.963   1.324   6.626 -0.0433 -0.2339 -0.4393
25890SOL    HW180302   4.949   1.252   6.686  1.0674 -0.9347 -0.9939
25890SOL    HW280303   5.051   1.356   6.645 -1.2914  2.5369  1.3727
25891SOL     OW80304   8.645   4.377   4.334  0.1803 -0.4913 -0.6745
25891SOL    HW180305   8.632   4.295   4.287  1.1073 -0.8530 -0.3340
25891SOL    HW280306   8.737   4.400   4.317  0.5582 -0.6631  0.9785
25892SOL     OW80307  10.280   8.955   0.675  0.0859 -0.3491  0.0374
25892SOL    HW180308  10.321   8.997   0.599 -1.5220 -0.4802 -0.9588
25892SOL    HW280309  10.186   8.972   0.663 -0.1150  1.5778  3.1865
25893SOL     OW80310   7.041   0.083   6.606  0.2287 -0.2715  0.0574
25893SOL    HW180311   6.964   0.029   6.588 -1.1360  1.8125 -0.8027
25893SOL    HW280312   7.017   0.170   6.574  2.7192  0.6185  0.3785
25894SOL     OW80313   7.882   2.521   0.649  0.0971  0.1873 -0.5129
25894SOL    HW180314   7.923   2.440   0.679 -1.1095 -0.6876 -1.1607
25894SOL    HW280315   7.953   2.570   0.609  0.4215 -1.6701 -2.3846
25895SOL     OW80316   4.376   3.229   6.028  0.7613 -0.0866  0.3636
25895SOL    HW180317   4.339   3.155   6.077 -0.6419 -0.6219 -1.4274
25895SOL    HW280318   4.454   3.192   5.985  0.2812 -0.4331 -0.2196
25896SOL     OW80319   7.047   5.619   9.871  0.1197  0.3340 -0.4690
25896SOL    HW180320   7.055   5.607   9.776  0.7792 -0.5087 -0.3193
25896SOL    HW280321   7.115   5.683   9.893 -0.4147  0.9768 -0.6300
25897SOL     OW80322   8.029   6.402   9.374 -0.2086  0.1722  0.5634
25897SOL    HW180323   7.992   6.462   9.440 -1.0461 -0.6670  0.8854
25897SOL    HW280324   7.985   6.427   9.293 -1.4851 -0.7522  0.9249
25898SOL     OW80325   9.516   4.703   1.775 -0.3258 -0.4186  0.4067
25898SOL    HW180326   9.469   4.745   1.848  2.1316  1.1880  1.1898
25898SOL    HW280327   9.543   4.618   1.809  0.3209  0.0931  1.1918
25899SOL     OW80328   7.241   7.241   2.280 -0.6757 -0.6351  0.5866
25899SOL    HW180329   7.299   7.231   2.204 -0.5075 -1.0694  0.7737
25899SOL    HW280330   7.297   7.280   2.347 -1.8904  4.6160 -0.9455
25900SOL     OW80331   2.617   8.964   2.515 -0.9880 -0.0470  0.0444
25900SOL    HW180332   2.589   9.003   2.432 -0.4057 -0.7794 -0.5106
25900SOL    HW280333   2.713   8.974   2.514 -0.9482 -0.3971  0.4510
25901SOL     OW80334   4.153   2.861   0.201  0.3982  0.1150 -0.6306
25901SOL    HW180335   4.081   2.809   0.236  0.4266 -0.7912 -1.8481
25901SOL    HW280336   4.223   2.853   0.265 -0.1814  0.0459 -0.0034
25902SOL     OW80337   7.781   2.515   2.646 -0.6966  0.4121 -0.0747
25902SOL    HW180338   7.759   2.578   2.577 -0.2925  0.4554 -0.1675
25902SOL    HW280339   7.781   2.430   2.601 -0.9476  0.3816 -0.0152
25903SOL     OW80340   7.568   2.678  10.237 -0.2784  0.8995  0.4249
25903SOL    HW180341   7.492   2.623  10.252  0.1530  0.3469  0.6090
25903SOL    HW280342   7.546   2.762  10.278 -0.0395  0.1509  2.1711
25904SOL     OW80343   5.305   0.900   9.020 -0.3818  0.0489  0.3928
25904SOL    HW180344   5.236   0.962   8.997 -1.7532 -1.1510  1.0811
25904SOL    HW280345   5.276   0.862   9.103  0.8559 -0.8959  0.4258
25905SOL     OW80346   1.311   7.063   4.190  0.0566 -0.4494  0.5768
25905SOL    HW180347   1.386   7.080   4.134 -1.2037 -0.7612 -1.2854
25905SOL    HW280348   1.278   6.978   4.161 -0.7517 -0.5384  1.6700
25906SOL     OW80349   4.212   2.558   0.134  0.2217  0.2157  0.0085
25906SOL    HW180350   4.163   2.640   0.128 -0.0260 -0.0139 -1.6423
25906SOL    HW280351   4.197   2.528   0.223  0.9498  2.3246  0.9163
25907SOL     OW80352   5.328   3.432   6.398 -0.0139  0.4409  0.2839
25907SOL    HW180353   5.278   3.448   6.479 -0.5231 -0.9305  0.2726
25907SOL    HW280354   5.271   3.374   6.346  0.2993  1.3060 -1.0728
25908SOL     OW80355  10.187   0.607   5.189  0.3315 -0.5056 -0.2246
25908SOL    HW180356  10.153   0.596   5.278  0.3234  0.6739 -0.0698
25908SOL    HW280357  10.265   0.661   5.199 -0.5998  1.0955 -1.0573
25909SOL     OW80358   8.818   3.221   8.029  0.0073 -0.5547 -0.3985
25909SOL    HW180359   8.879   3.207   7.957 -1.7049  0.5752 -2.1599
25909SOL    HW280360   8.858   3.176   8.103  1.8694 -1.7345 -2.0201
25910SOL     OW80361   0.262   4.543   7.811 -0.1811  0.1984 -0.0370
25910SOL    HW180362   0.357   4.554   7.802  0.0005  0.0518  1.3591
25910SOL    HW280363   0.245   4.566   7.903 -1.6271  1.1144 -0.5084
25911SOL     OW80364   9.839   7.115   5.605  0.2811  0.3521 -0.0518
25911SOL    HW180365   9.893   7.061   5.548 -0.7544  0.5471 -1.2762
25911SOL    HW280366   9.749   7.090   5.583 -0.2086  2.2319 -0.3442
25912SOL     OW80367   9.210   6.700   7.321  0.0430  0.3111 -0.3871
25912SOL    HW180368   9.238   6.610   7.339  1.5790  1.1810  2.0394
25912SOL    HW280369   9.206   6.705   7.225  0.3666 -2.1858 -0.6008
25913SOL     OW80370   8.941   9.473   0.564  0.3533 -0.5622  0.0263
25913SOL    HW180371   8.926   9.413   0.636 -0.8658 -1.6294 -1.0699
25913SOL    HW280372   8.927   9.560   0.601 -0.7159 -1.1177  0.9720
25914SOL     OW80373   3.555   0.187   6.307  0.1080 -0.1657 -0.5029
25914SOL    HW180374   3.605   0.112   6.277 -1.4646 -1.1775 -0.6880
25914SOL    HW280375   3.499   0.153   6.376  0.1256  1.0837  0.1606
25915SOL     OW80376   7.654   2.942   5.321 -0.2824 -0.2006  0.6530
25915SOL    HW180377   7.721   2.994   5.365 -0.8453  0.0947  1.1680
25915SOL    HW280378   7.619   2.886   5.389  0.7718 -1.7581 -0.0319
25916SOL     OW80379   3.698   1.619   6.735 -0.0316 -0.4258 -0.5444
25916SOL    HW180380   3.615   1.645   6.694  1.4161  0.1259 -3.3449
25916SOL    HW280381   3.756   1.694   6.722  1.5636 -1.6234 -0.6064
25917SOL     OW80382   7.639  10.144   7.560  0.0197 -0.5624  0.2806
25917SOL    HW180383   7.640  10.091   7.639  0.7600  1.9740  2.0988
25917SOL    HW280384   7.558  10.195   7.566  0.2885 -0.0301 -0.3648
25918SOL     OW80385   3.165   3.792   2.286  0.2290  0.5748 -0.6140
25918SOL    HW180386   3.166   3.851   2.361 -0.2970  0.2607 -0.3534
25918SOL    HW280387   3.091   3.822   2.233 -0.2851 -0.0843 -0.2840
25919SOL     OW80388   9.967   8.472   0.781  0.2181 -0.2312  0.2278
25919SOL    HW180389   9.900   8.539   0.767 -0.9290 -1.6596 -1.7058
25919SOL    HW280390  10.043   8.502   0.730 -0.3123 -0.3816 -0.6750
25920SOL     OW80391   5.643   0.576   8.006  0.7180  0.3283 -0.7037
25920SOL    HW180392   5.578   0.558   7.938 -0.8981  0.5212  0.7360
25920SOL    HW280393   5.636   0.670   8.022 -0.4367 -0.0208  1.1452
25921SOL     OW80394   6.715   6.931   7.449  0.0373 -0.1563 -0.7020
25921SOL    HW180395   6.780   6.861   7.434  0.0253 -0.0983 -1.0316
25921SOL    HW280396   6.640   6.886   7.487  0.0039 -0.3356 -0.9778
25922SOL     OW80397   4.618   3.909   1.672 -0.7108 -0.1687  0.2088
25922SOL    HW180398   4.701   3.863   1.670 -0.5035 -0.3402  4.2650
25922SOL    HW280399   4.621   3.968   1.597  2.6063 -0.8602 -0.3397
25923SOL     OW80400   1.180   9.237   2.909  0.3418 -0.9217  0.5298
25923SOL    HW180401   1.127   9.268   2.983  0.7064  0.8849  0.0872
25923SOL    HW280402   1.270   9.244   2.940  0.4746 -0.5850  0.0678
25924SOL     OW80403   0.453   2.496   9.306  0.3475 -0.1323 -0.1349
25924SOL    HW180404   0.534   2.446   9.318  0.8608  1.1882  2.7487
25924SOL    HW280405   0.399   2.474   9.382 -0.2657  2.1110  0.1508
25925SOL     OW80406   6.363   1.053  10.019  0.1579  0.3859  0.3399
25925SOL    HW180407   6.305   0.991   9.975  2.3462 -1.0581 -0.6715
25925SOL    HW280408   6.374   1.124   9.955 -1.1839  1.1760  0.9261
25926SOL     OW80409   8.494   0.317   1.755 -0.1154  0.0412  0.0482
25926SOL    HW180410   8.502   0.222   1.748 -2.3623 -0.1654 -0.3309
25926SOL    HW280411   8.546   0.350   1.682 -0.0769 -0.9304 -0.3840
25927SOL     OW80412   1.868   7.962   6.824  0.0502  0.7628  0.2711
25927SOL    HW180413   1.949   7.912   6.832 -0.4312  0.2619  2.9659
25927SOL    HW280414   1.870   8.021   6.900 -1.9774  0.8982  0.2525
25928SOL     OW80415   7.587   0.586   6.674  0.1270  0.5645 -0.2342
25928SOL    HW180416   7.534   0.564   6.598  0.7263 -3.2715  0.2446
25928SOL    HW280417   7.527   0.628   6.736 -1.9637 -1.9335 -0.4450
25929SOL     OW80418   5.342   8.053   1.833  0.2278  0.2577 -0.1742
25929SOL    HW180419   5.402   8.127   1.832 -0.7286  1.0731  0.4929
25929SOL    HW280420   5.367   8.000   1.757  1.6979  0.6189  0.0273
25930SOL     OW80421   0.171   9.427   2.290 -0.2781  0.1283 -0.2795
25930SOL    HW180422   0.199   9.339   2.315  0.5490 -0.0994 -1.8554
25930SOL    HW280423   0.168   9.475   2.372  0.9157 -0.9212  0.4185
25931SOL     OW80424   5.310   8.191   3.808 -0.7709  0.2175  0.4704
25931SOL    HW180425   5.249   8.152   3.745 -1.5599 -0.1764  1.4401
25931SOL    HW280426   5.260   8.260   3.850  0.1893  1.3891 -0.2638
25932SOL     OW80427   2.541   4.507   5.013 -0.6187 -0.3692 -0.3353
25932SOL    HW180428   2.624   4.554   5.027 -0.5573 -0.2460 -1.0968
25932SOL    HW280429   2.474   4.567   5.046 -0.3850 -0.6566  0.7130
25933SOL     OW80430   2.330  10.269   8.553  0.2067  0.3345  0.1419
25933SOL    HW180431   2.409  10.215   8.560  0.7127  0.9327 -0.7097
25933SOL    HW280432   2.363  10.356   8.530 -0.6299  0.8853  0.9461
25934SOL     OW80433  10.185   4.272   5.384  0.1648  0.3919 -0.7311
25934SOL    HW180434  10.138   4.214   5.326  0.1948 -0.0180 -0.3512
25934SOL    HW280435  10.193   4.355   5.336  1.6203 -0.4255 -1.9744
25935SOL     OW80436   9.209   8.615   6.840  0.4382  0.1209 -0.1530
25935SOL    HW180437   9.217   8.646   6.931  0.9778  0.3095 -0.2608
25935SOL    HW280438   9.222   8.520   6.847  0.4284  0.1281 -0.0271
25936SOL     OW80439   2.162   8.915   1.147 -0.9404  0.1811 -0.3177
25936SOL    HW180440   2.107   8.844   1.114 -2.2434  0.0712  1.8607
25936SOL    HW280441   2.125   8.994   1.108 -0.7170 -0.1450 -1.2147
25937SOL     OW80442   4.003   7.868   1.103  0.0418  0.1783 -0.1038
25937SOL    HW180443   3.944   7.940   1.125 -0.2333  0.4030 -1.5218
25937SOL    HW280444   3.966   7.830   1.024  1.4126 -0.1319 -0.6168
25938SOL     OW80445   9.286   7.041   7.950  0.4884  0.1201 -0.3785
25938SOL    HW180446   9.241   7.012   7.870  0.7288 -0.5455 -0.2777
25938SOL    HW280447   9.377   7.014   7.938  0.6695  0.6386 -0.1786
25939SOL     OW80448   2.849   1.098   0.555 -0.3133  0.4215 -0.1212
25939SOL    HW180449   2.811   1.013   0.577  1.2348 -0.2763  0.0008
25939SOL    HW280450   2.796   1.130   0.482 -0.1720 -1.2402 -1.0064
25940SOL     OW80451   7.960   6.915   8.165  0.4519 -0.1683  0.2445
25940SOL    HW180452   8.016   6.991   8.153 -1.0285  0.6936 -1.8411
25940SOL    HW280453   7.928   6.922   8.255 -0.2079  2.0820 -0.1164
25941SOL     OW80454   1.365   7.421   8.807  0.5015 -0.1694  0.1732
25941SOL    HW180455   1.420   7.362   8.754 -0.7079 -2.0118  0.8441
25941SOL    HW280456   1.427   7.468   8.863  1.7024  0.9138 -1.9477
25942SOL     OW80457   9.074   0.539   0.454 -0.0573 -0.5115  0.2727
25942SOL    HW180458   9.015   0.562   0.382  0.1159 -0.3400  0.1861
25942SOL    HW280459   9.138   0.610   0.457  0.0268 -0.5934  0.4986
25943SOL     OW80460   0.023   1.875   3.050  0.1125 -0.0625 -0.1746
25943SOL    HW180461  -0.039   1.945   3.071 -1.7084 -0.9084 -2.3261
25943SOL    HW280462   0.096   1.920   3.008 -1.1852  0.6141 -1.8382
25944SOL     OW80463   9.652   3.152   6.327  0.4781 -0.7744 -0.3945
25944SOL    HW180464   9.567   3.108   6.335  0.9777 -1.7889 -0.4284
25944SOL    HW280465   9.659   3.204   6.407  0.0425 -1.0691 -0.1577
25945SOL     OW80466   3.638   4.533   3.531  0.1496  0.0709 -0.3772
25945SOL    HW180467   3.696   4.600   3.567 -0.3517  1.2144 -1.6378
25945SOL    HW280468   3.550   4.559   3.558  0.1308 -1.5731  1.3934
25946SOL     OW80469   3.508   3.810   9.560  0.6384  0.1376 -0.2415
25946SOL    HW180470   3.564   3.733   9.548  1.1419  0.5084 -0.3061
25946SOL    HW280471   3.436   3.779   9.615  1.6924  0.0132  1.1382
25947SOL     OW80472   1.031   4.301   7.966  0.3377  0.4745 -0.3610
25947SOL    HW180473   1.101   4.361   7.989  0.6751  0.8664 -2.2537
25947SOL    HW280474   0.976   4.350   7.905 -0.1064 -0.7069 -0.9415
25948SOL     OW80475   7.632   2.571   1.179 -0.2321  0.1430  0.9359
25948SOL    HW180476   7.655   2.650   1.130 -5.1700  0.7920 -0.9215
25948SOL    HW280477   7.592   2.604   1.260 -1.5310 -0.4250  0.5509
25949SOL     OW80478   6.342   4.921   8.679  0.6335  0.2889 -0.3315
25949SOL    HW180479   6.341   4.997   8.621  1.5141 -0.0704 -0.8298
25949SOL    HW280480   6.315   4.847   8.625 -0.7102  0.3098  0.2742
25950SOL     OW80481   0.878   4.643   9.213  0.1573  0.3689  0.9576
25950SOL    HW180482   0.951   4.624   9.153 -0.9762 -2.3901  0.2809
25950SOL    HW280483   0.800   4.625   9.161 -0.9252  0.1369  2.5980
25951SOL     OW80484   9.998   2.028   6.289 -0.1267  0.3528 -0.1728
25951SOL    HW180485  10.090   2.033   6.263 -0.6422  0.1271 -2.2538
25951SOL    HW280486   9.998   1.979   6.370  1.6488  1.0200  0.2792
25952SOL     OW80487   5.526   2.993   6.364 -0.2219  0.3441 -0.1450
25952SOL    HW180488   5.610   2.951   6.345 -1.1028 -1.8843  0.5983
25952SOL    HW280489   5.545   3.054   6.434  0.8141 -0.0159 -0.0995
25953SOL     OW80490   3.608   5.595   5.293 -0.4517  0.7291 -0.7403
25953SOL    HW180491   3.610   5.664   5.226  0.1992 -1.6076 -3.3222
25953SOL    HW280492   3.623   5.641   5.376  1.1797  3.5418 -2.4428
25954SOL     OW80493   5.043   7.331   8.734 -0.2757 -0.1306 -0.5653
25954SOL    HW180494   4.966   7.277   8.720 -0.3627 -0.3907  0.7661
25954SOL    HW280495   5.010   7.409   8.778 -0.0988  0.8664 -2.1343
25955SOL     OW80496   5.420   4.746   3.953  0.0948 -0.2554  0.2008
25955SOL    HW180497   5.508   4.709   3.964  0.3962  0.8614  2.2337
25955SOL    HW280498   5.372   4.717   4.031 -1.7546 -1.7863 -1.4320
25956SOL     OW80499   5.839  10.216   4.258  0.2925 -0.1064  0.2470
25956SOL    HW180500   5.767  10.280   4.259  0.0728 -0.3448 -0.1217
25956SOL    HW280501   5.905  10.253   4.317  0.7676  1.1541 -1.0343
25957SOL     OW80502   5.344   7.052   5.798 -0.0412  0.1779  0.5486
25957SOL    HW180503   5.360   7.141   5.831 -1.2928  1.4011 -1.8556
25957SOL    HW280504   5.268   7.021   5.848 -0.9510  1.3829 -0.0179
25958SOL     OW80505   2.268   2.688   7.632 -0.0231  0.0245 -0.3416
25958SOL    HW180506   2.332   2.689   7.560 -1.5853 -1.3297 -1.8383
25958SOL    HW280507   2.321   2.699   7.711  1.6303  3.2602 -1.7270
25959SOL     OW80508   8.490   8.664   9.569 -0.2934 -0.2427  0.1127
25959SOL    HW180509   8.565   8.642   9.513 -0.3273 -1.2284  0.4480
25959SOL    HW280510   8.464   8.752   9.539  0.3220 -0.3271 -0.7288
25960SOL     OW80511   7.401   2.879   8.488  0.1233  0.5153 -0.4359
25960SOL    HW180512   7.395   2.970   8.516 -0.4652  0.4102 -0.1951
25960SOL    HW280513   7.310   2.852   8.476  0.1576 -0.5905  1.3580
25961SOL     OW80514   8.197   0.533   5.219  0.9047  0.0880 -0.2016
25961SOL    HW180515   8.150   0.499   5.295  0.2104 -0.7911 -1.0021
25961SOL    HW280516   8.287   0.543   5.249  0.9505 -1.6662  0.3406
25962SOL     OW80517   8.500   6.532   7.940 -0.4300  0.1619 -0.3311
25962SOL    HW180518   8.506   6.613   7.989 -0.1889  0.2476 -0.5023
25962SOL    HW280519   8.579   6.530   7.886  1.1521 -1.5945  1.8101
25963SOL     OW80520   4.745   7.696   3.384 -0.5045 -0.2235  0.1360
25963SOL    HW180521   4.727   7.677   3.476  1.9666  1.3827  1.0665
25963SOL    HW280522   4.681   7.762   3.360 -2.2491 -1.8521  0.1441
25964SOL     OW80523   6.842   9.195   0.413  0.2511  0.4608  0.1606
25964SOL    HW180524   6.845   9.284   0.448 -2.0025  1.7364 -2.4760
25964SOL    HW280525   6.796   9.204   0.329 -1.1701 -3.3934  0.3405
25965SOL     OW80526   4.640   0.262   2.900 -0.1743  0.0537  0.1599
25965SOL    HW180527   4.735   0.258   2.902 -0.1372  1.0529  0.9407
25965SOL    HW280528   4.612   0.189   2.955  0.1928  0.9667  1.6054
25966SOL     OW80529   6.519   0.633   2.954  0.1295  0.0963 -0.6299
25966SOL    HW180530   6.518   0.728   2.950 -0.0591  0.2094  1.2280
25966SOL    HW280531   6.610   0.611   2.976  0.0011 -0.0897 -0.2683
25967SOL     OW80532   3.375   4.956   0.407  0.0449  0.1247 -0.1787
25967SOL    HW180533   3.417   4.948   0.321  1.0052  1.0468  0.1833
25967SOL    HW280534   3.357   4.866   0.434  2.0078 -0.3246 -0.2543
25968SOL     OW80535   4.025   6.443   3.989 -0.2604 -0.1036 -0.3150
25968SOL    HW180536   4.085   6.438   4.063 -0.8176 -1.5843  0.0841
25968SOL    HW280537   3.945   6.480   4.026  0.6683  2.9810 -1.0905
25969SOL     OW80538   5.679   3.513   3.479  0.1825 -0.6183  0.0933
25969SOL    HW180539   5.642   3.425   3.467  1.7253 -0.9879 -2.9489
25969SOL    HW280540   5.765   3.497   3.519  0.0257 -0.3723  0.5359
25970SOL     OW80541   9.356   5.182   5.859  0.0279 -0.0512  0.0526
25970SOL    HW180542   9.380   5.239   5.786  0.4478  0.4352  0.5658
25970SOL    HW280543   9.287   5.229   5.905  0.9039  0.4049  0.9225
25971SOL     OW80544   1.870   4.467   7.761 -0.2659  0.0200 -0.1170
25971SOL    HW180545   1.953   4.422   7.778  0.1861 -0.5433 -3.2879
25971SOL    HW280546   1.859   4.526   7.836  2.1492 -1.0568  1.1967
25972SOL     OW80547   1.894   4.852   5.351 -0.4022 -0.1038  0.0892
25972SOL    HW180548   1.867   4.928   5.402  1.4832  0.0999  0.8794
25972SOL    HW280549   1.846   4.859   5.269 -0.3701  1.8886  0.1961
25973SOL     OW80550  10.187   4.077   0.956  0.4492  0.1426  0.3513
25973SOL    HW180551  10.100   4.118   0.960  0.1368 -0.4320 -0.4697
25973SOL    HW280552  10.170   3.984   0.941  1.2212  0.2196 -1.1868
25974SOL     OW80553   8.641   9.169   2.956  0.2932  0.0552 -0.3436
25974SOL    HW180554   8.556   9.148   2.917 -0.2480  0.2813  0.6600
25974SOL    HW280555   8.690   9.214   2.887 -0.4015 -0.0823 -0.9337
25975SOL     OW80556   9.974   4.847   0.463 -0.4913  0.4234 -0.3106
25975SOL    HW180557   9.965   4.813   0.552  1.8784 -0.7572 -0.4325
25975SOL    HW280558   9.978   4.942   0.474  1.9501  0.2356  1.1770
25976SOL     OW80559   9.690   5.002   1.926 -0.0409  0.1064 -0.1486
25976SOL    HW180560   9.714   4.947   2.000 -0.2978  1.3586  0.9146
25976SOL    HW280561   9.700   5.092   1.958  1.5169  0.7455 -2.1752
25977SOL     OW80562   0.639   5.097   1.915  0.3252  0.1335 -0.4494
25977SOL    HW180563   0.612   5.005   1.916 -0.6432  0.3922 -0.8878
25977SOL    HW280564   0.695   5.105   1.838  1.6838 -0.4129  0.4581
25978SOL     OW80565  10.321   7.390   7.397  0.1575  0.8541  0.5973
25978SOL    HW180566  10.251   7.359   7.455  0.2003 -0.5479 -0.0533
25978SOL    HW280567  10.348   7.474   7.434 -0.3088  0.3399  2.1809
25979SOL     OW80568   0.159   8.478   6.152 -0.3275  0.0378  0.8758
25979SOL    HW180569   0.242   8.450   6.190 -1.0426 -1.5775  1.3539
25979SOL    HW280570   0.171   8.469   6.057  0.4489  1.0961  0.8575
25980SOL     OW80571   2.136   2.236   5.032  0.2727  0.0006 -0.0575
25980SOL    HW180572   2.188   2.196   4.962  1.3060  1.1911 -0.0007
25980SOL    HW280573   2.092   2.309   4.989  0.9005  0.7280  0.5241
25981SOL     OW80574   6.967  10.227   5.470 -0.3061 -0.1119  0.2775
25981SOL    HW180575   7.026  10.301   5.487 -0.7510  0.5883 -1.1051
25981SOL    HW280576   6.938  10.200   5.557  0.8949  0.4750  0.8925
25982SOL     OW80577   0.756   7.051   8.507 -0.4872 -0.1627 -0.1089
25982SOL    HW180578   0.838   7.078   8.548 -1.6070  0.8684  1.6132
25982SOL    HW280579   0.755   6.956   8.516 -0.7751  0.0195  2.6533
25983SOL     OW80580   8.218   0.961   7.375 -0.1828 -0.4587  0.1096
25983SOL    HW180581   8.232   1.014   7.296  1.0605 -0.4315  0.3364
25983SOL    HW280582   8.150   0.899   7.349 -3.0068  2.2547  0.3370
25984SOL     OW80583   2.554  10.289   1.433  0.1678 -0.4854  0.5768
25984SOL    HW180584   2.562  10.194   1.442  1.3831 -0.2066  3.0431
25984SOL    HW280585   2.623  10.325   1.487 -0.7903  1.8566  0.3804
25985SOL     OW80586   7.879   5.342   3.789  0.3713 -0.5529  0.1610
25985SOL    HW180587   7.958   5.357   3.737  0.2790 -1.4304 -0.2474
25985SOL    HW280588   7.854   5.429   3.820  1.2496 -0.2089 -0.0661
25986SOL     OW80589   0.365   1.693   6.946  0.1030 -0.0867 -0.4629
25986SOL    HW180590   0.290   1.668   7.000 -0.2214 -1.3755 -1.4678
25986SOL    HW280591   0.385   1.615   6.895  1.6426  0.4831 -0.7865
25987SOL     OW80592   1.040   7.245   5.949 -0.1503  0.0688  0.7328
25987SOL    HW180593   1.135   7.243   5.960 -0.0789  1.9088  0.8567
25987SOL    HW280594   1.022   7.180   5.882  1.1512 -0.5851  0.9939
25988SOL     OW80595   3.326   7.213   0.358  0.2763  0.0650 -0.1869
25988SOL    HW180596   3.367   7.278   0.416 -0.4087 -2.0580  2.9060
25988SOL    HW280597   3.345   7.129   0.399 -2.7400 -1.3753 -1.4419
25989SOL     OW80598   3.637   3.863   2.846 -0.2196 -0.1190  0.1628
25989SOL    HW180599   3.696   3.804   2.798 -0.7542 -1.7564  1.4069
25989SOL    HW280600   3.562   3.808   2.869 -2.6711  2.0493 -1.9607
25990SOL     OW80601   9.769   1.528   5.451  0.2916 -0.4974 -0.1937
25990SOL    HW180602   9.859   1.521   5.482  0.8864  0.4107 -1.6250
25990SOL    HW280603   9.760   1.620   5.424 -1.4866 -0.2231  1.1230
25991SOL     OW80604   3.281   4.171   4.863  0.4636 -0.2587  0.1118
25991SOL    HW180605   3.221   4.147   4.934  0.6682 -2.8647 -0.4912
25991SOL    HW280606   3.367   4.174   4.904  0.3120  0.4903  0.3896
25992SOL     OW80607   4.449   8.959   3.089 -0.7062  0.0060  0.1165
25992SOL    HW180608   4.543   8.975   3.097 -0.3393 -1.1251 -1.3498
25992SOL    HW280609   4.416   8.959   3.179  0.9704 -1.0573  0.7685
25993SOL     OW80610   3.730   7.076   6.909 -0.5927 -0.3751  0.1197
25993SOL    HW180611   3.714   7.003   6.968  0.1189  0.5547  1.5189
25993SOL    HW280612   3.713   7.154   6.962  2.0228  0.5410 -0.2638
25994SOL     OW80613   2.378   4.939   0.771 -0.0989  0.1961 -0.4806
25994SOL    HW180614   2.449   4.950   0.834 -0.0556  0.1300 -0.5179
25994SOL    HW280615   2.344   5.027   0.757 -0.5161  0.1374  0.1164
25995SOL     OW80616   4.082   2.071   4.168 -0.0588  0.3709 -0.1533
25995SOL    HW180617   4.130   2.084   4.249  0.5181 -0.5752 -0.3345
25995SOL    HW280618   3.990   2.066   4.195 -0.0639  1.8758  0.2245
25996SOL     OW80619   5.050   2.577   6.262  0.0527 -0.7207  0.0319
25996SOL    HW180620   5.042   2.620   6.177 -0.4438  4.5152  2.3081
25996SOL    HW280621   5.145   2.571   6.277  0.1840  1.1299  0.1798
25997SOL     OW80622   8.996   7.262   4.964 -0.6146 -0.3975  0.1761
25997SOL    HW180623   8.938   7.191   4.937 -1.6698  0.3463  0.4171
25997SOL    HW280624   9.084   7.227   4.953 -1.1102 -2.0715  1.1975
25998SOL     OW80625   3.775   3.132   8.454 -0.1358 -0.3688  0.2012
25998SOL    HW180626   3.710   3.065   8.436  0.6036 -0.8120 -0.9994
25998SOL    HW280627   3.725   3.212   8.469 -0.9518 -0.5217 -1.4974
25999SOL     OW80628   6.593   9.782   1.536  0.1105  0.4687  0.4673
25999SOL    HW180629   6.679   9.758   1.571  0.4544 -1.4026 -1.4579
25999SOL    HW280630   6.531   9.759   1.606  1.0104  0.0691  1.1441
26000SOL     OW80631   3.182   7.655   8.116  0.9919  0.2128  0.3123
26000SOL    HW180632   3.223   7.700   8.041  0.3446 -1.1079 -0.8780
26000SOL    HW280633   3.250   7.655   8.183  1.8148  0.8979 -0.4859
26001SOL     OW80634   1.353  10.031   2.909  0.2334 -0.2917 -0.2165
26001SOL    HW180635   1.320  10.114   2.873  1.2317 -0.0984 -0.7381
26001SOL    HW280636   1.446  10.031   2.886  0.1074 -1.8966 -0.8579
26002SOL     OW80637   7.613   0.758   9.620  0.2045  0.0217  0.1934
26002SOL    HW180638   7.588   0.810   9.697  0.6657  1.4445 -0.5820
26002SOL    HW280639   7.588   0.812   9.545 -1.8384 -2.0956 -0.7431
26003SOL     OW80640   8.896   9.268   3.831 -0.6164  0.2034 -0.3609
26003SOL    HW180641   8.828   9.275   3.898 -0.2273  1.0306 -0.0358
26003SOL    HW280642   8.892   9.351   3.783 -1.6240 -0.7981 -2.1217
26004SOL     OW80643   6.252   3.404   0.369 -0.2919 -0.9318 -0.0778
26004SOL    HW180644   6.249   3.459   0.291  0.5590  0.5568  0.9059
26004SOL    HW280645   6.163   3.409   0.405 -0.2401 -0.2687 -0.0390
26005SOL     OW80646   7.418   1.420   8.901 -0.4407  0.3474 -0.3114
26005SOL    HW180647   7.441   1.404   8.992 -1.9539 -2.0095 -0.2564
26005SOL    HW280648   7.498   1.399   8.852 -0.1687 -0.1755  0.3409
26006SOL     OW80649   3.013   1.300   2.166 -0.0144 -0.8614 -0.5298
26006SOL    HW180650   3.108   1.299   2.155  0.2142  2.4435  0.1201
26006SOL    HW280651   2.979   1.329   2.082 -0.1143  1.1221  0.1385
26007SOL     OW80652   0.298   0.569   2.974  0.3748  0.2466  0.2381
26007SOL    HW180653   0.278   0.662   2.969  0.4359  0.1853 -2.0210
26007SOL    HW280654   0.392   0.564   2.955  0.6123 -0.2236  1.4216
26008SOL     OW80655   8.875   6.673   5.978  0.4772 -0.1883 -0.0432
26008SOL    HW180656   8.873   6.729   5.900 -1.1465 -0.4381 -0.2267
26008SOL    HW280657   8.783   6.651   5.993  0.8239 -0.6126  1.6209
26009SOL     OW80658   5.713   1.333   8.817  0.4101  0.3492 -0.0588
26009SOL    HW180659   5.644   1.371   8.763  0.2885  0.3143  0.0710
26009SOL    HW280660   5.750   1.263   8.763 -1.5094 -1.5065  0.8801
26010SOL     OW80661   6.386   9.311   1.064  0.2240  0.7160  0.2566
26010SOL    HW180662   6.383   9.240   1.128 -1.5521 -0.5618 -1.1339
26010SOL    HW280663   6.471   9.299   1.020  0.4941  0.2283  0.8965
26011SOL     OW80664   9.225   2.179   7.370  0.3513  0.1258 -0.7828
26011SOL    HW180665   9.166   2.242   7.411  0.1982 -1.3508  1.4472
26011SOL    HW280666   9.313   2.213   7.388  0.2516  0.1358 -0.2924
26012SOL     OW80667   3.826   6.709   7.679 -0.4356  0.2059  0.6201
26012SOL    HW180668   3.810   6.704   7.585 -0.5882 -1.5031  0.6989
26012SOL    HW280669   3.741   6.732   7.717 -0.2625  1.4008  0.3330
26013SOL     OW80670   1.251   4.001   6.497 -0.2896 -0.1537  0.0383
26013SOL    HW180671   1.320   4.001   6.431 -0.0569 -0.7426  0.2810
26013SOL    HW280672   1.170   4.016   6.448  0.0955  1.4613 -0.1478
26014SOL     OW80673   2.928   7.141   7.322  0.1646  0.0497 -0.3800
26014SOL    HW180674   2.931   7.230   7.286 -1.5432 -0.1007 -1.0022
26014SOL    HW280675   2.919   7.154   7.416 -0.7764  0.5810 -0.5257
26015SOL     OW80676   3.109  10.074   9.191 -0.2818  0.3506  0.0200
26015SOL    HW180677   3.126  10.164   9.220 -0.8603 -0.0016  1.5967
26015SOL    HW280678   3.187  10.025   9.219 -0.6715  0.0789  0.6555
26016SOL     OW80679   5.640   6.577   6.062 -0.5533 -0.3163 -0.0545
26016SOL    HW180680   5.559   6.538   6.095 -0.6097  0.6611  1.0317
26016SOL    HW280681   5.690   6.597   6.141  0.7544 -0.8817 -0.7092
26017SOL     OW80682   9.329   3.002   3.696 -0.5377  0.4181  0.0545
26017SOL    HW180683   9.308   3.090   3.666 -0.4710  0.3079 -0.3233
26017SOL    HW280684   9.245   2.964   3.721 -0.5296  0.6902  0.4983
26018SOL     OW80685   1.929   7.002   7.800 -0.0807 -0.3213 -0.3639
26018SOL    HW180686   1.989   6.945   7.751  0.4161 -1.1123  1.1050
26018SOL    HW280687   1.984   7.043   7.867 -1.0374 -0.5480  0.5855
26019SOL     OW80688   4.425   2.635   3.719 -0.2784 -0.0666  0.2705
26019SOL    HW180689   4.378   2.648   3.801  0.1866  1.9015  0.2841
26019SOL    HW280690   4.361   2.657   3.651  0.3667  2.1435  0.2770
26020SOL     OW80691   1.453   6.425   5.734  0.7741  0.0422 -0.2137
26020SOL    HW180692   1.513   6.360   5.697  0.1464 -1.8664  1.9080
26020SOL    HW280693   1.505   6.506   5.737  2.4969 -1.0012 -0.4719
26021SOL     OW80694   1.583   4.058   0.519  0.1362 -0.5705  0.6766
26021SOL    HW180695   1.577   4.019   0.431  0.6757 -0.5172  0.6153
26021SOL    HW280696   1.540   3.995   0.576 -0.4260 -0.5018  0.3461
26022SOL     OW80697   8.576   5.465   1.566  0.4052 -0.0251  0.1478
26022SOL    HW180698   8.560   5.557   1.590  0.4159  0.0842 -0.2617
26022SOL    HW280699   8.557   5.416   1.646 -1.1452  0.1744 -0.0741
26023SOL     OW80700   6.857   9.203   3.467  0.0358 -0.1976  0.3429
26023SOL    HW180701   6.905   9.286   3.462 -0.0097 -0.1942 -0.0791
26023SOL    HW280702   6.872   9.162   3.382 -0.7645 -0.1698  0.1805
26024SOL     OW80703   9.853   4.678   2.629  0.1680  0.0168 -0.6220
26024SOL    HW180704   9.768   4.686   2.671  0.8732  0.5559  0.7555
26024SOL    HW280705   9.858   4.752   2.568 -0.2874  0.0431 -0.6254
26025SOL     OW80706   4.733   4.413   2.257  0.1515  0.2462  0.2062
26025SOL    HW180707   4.650   4.404   2.210 -0.7904  2.0173  1.3836
26025SOL    HW280708   4.751   4.326   2.291 -0.7953 -0.3493 -0.7674
26026SOL     OW80709   5.441  10.050   5.115  0.0620 -0.0405 -0.0527
26026SOL    HW180710   5.519  10.051   5.060  0.3385  0.3042  0.3371
26026SOL    HW280711   5.475  10.044   5.205 -0.4114 -2.9995  0.0249
26027SOL     OW80712   9.424   3.457   1.111  0.0594  0.0045 -0.3154
26027SOL    HW180713   9.501   3.473   1.058  0.7924 -0.7048  0.4991
26027SOL    HW280714   9.388   3.544   1.128  1.0425  0.4046 -0.1980
26028SOL     OW80715   8.096   3.646   0.587 -1.0364 -0.2115  0.3202
26028SOL    HW180716   8.176   3.597   0.567 -1.6866 -1.3136  0.3182
26028SOL    HW280717   8.063   3.605   0.667 -2.3934 -0.8016 -0.5125
26029SOL     OW80718   5.934   3.324   6.844  0.2181 -0.0568 -0.8595
26029SOL    HW180719   5.901   3.394   6.788 -1.7005 -0.2358 -0.0233
26029SOL    HW280720   5.868   3.316   6.913  1.7118 -0.9255  0.5189
26030SOL     OW80721   6.676   0.841   7.622  0.3431 -0.2409 -0.2588
26030SOL    HW180722   6.753   0.785   7.632  0.8236  0.4836  0.2231
26030SOL    HW280723   6.674   0.892   7.703 -0.3283  0.1371 -0.5108
26031SOL     OW80724   6.473   5.299   9.496  0.2516 -0.6197  0.0774
26031SOL    HW180725   6.455   5.275   9.587  1.4379  0.9272  0.7803
26031SOL    HW280726   6.518   5.223   9.459  1.4523 -0.6018  1.3851
26032SOL     OW80727   2.364   7.978   5.347  0.0732  0.2460  0.0916
26032SOL    HW180728   2.311   7.898   5.356 -1.4129  1.3759  2.3980
26032SOL    HW280729   2.310   8.036   5.293 -0.2648  0.7613  0.9664
26033SOL     OW80730   5.380   1.316   9.143  0.5240 -0.6903 -0.2209
26033SOL    HW180731   5.412   1.385   9.201 -0.1788 -2.3437  2.2800
26033SOL    HW280732   5.284   1.324   9.146  0.4436  0.1116 -2.4488
26034SOL     OW80733   4.164   7.564   9.919 -0.4821  0.2764 -0.1959
26034SOL    HW180734   4.161   7.550  10.014 -1.9986 -0.1741 -0.2812
26034SOL    HW280735   4.140   7.479   9.882  1.4171  0.0666 -1.0404
26035SOL     OW80736   2.717   2.124   3.562 -0.3697 -0.0150  0.3749
26035SOL    HW180737   2.664   2.056   3.521 -1.1035 -0.5716  2.1369
26035SOL    HW280738   2.730   2.093   3.652  1.7515  0.8028  0.3993
26036SOL     OW80739   5.090   7.565   2.921 -0.4318  0.0589 -0.1921
26036SOL    HW180740   5.025   7.502   2.952 -0.3933  0.4165  0.6561
26036SOL    HW280741   5.174   7.520   2.933 -0.4862 -0.1978 -0.7711
26037SOL     OW80742   3.664   9.241   1.558 -0.1371 -0.3629 -0.1755
26037SOL    HW180743   3.741   9.294   1.580  0.9160 -2.0264  0.4068
26037SOL    HW280744   3.683   9.155   1.596 -1.7690 -1.1629 -1.0574
26038SOL     OW80745   2.296   0.424   4.284 -0.3333 -0.4322 -0.2149
26038SOL    HW180746   2.223   0.486   4.297  0.3487  0.4432 -0.4956
26038SOL    HW280747   2.254   0.338   4.289 -1.7950  0.0422 -2.5394
26039SOL     OW80748   7.463   9.211   8.555 -0.7510  0.6888 -0.1489
26039SOL    HW180749   7.459   9.127   8.510 -0.5629  0.0060  1.0602
26039SOL    HW280750   7.510   9.269   8.495  2.2568 -1.0173  0.3660
26040SOL     OW80751   9.849   8.658   5.606  0.1687  0.5056 -0.1635
26040SOL    HW180752   9.759   8.643   5.634 -0.9647  0.8282 -3.3180
26040SOL    HW280753   9.891   8.573   5.615 -1.3746 -0.4576 -1.6290
26041SOL     OW80754   6.805   3.412   6.809  0.0332  0.3448  0.1271
26041SOL    HW180755   6.791   3.489   6.865  2.5161  1.1193 -0.2057
26041SOL    HW280756   6.859   3.353   6.862 -1.5941 -1.1315  0.2657
26042SOL     OW80757   6.347   6.252   7.445 -0.2372  0.2192 -0.0921
26042SOL    HW180758   6.364   6.245   7.351 -0.7791  0.8371 -0.2483
26042SOL    HW280759   6.430   6.283   7.482 -0.3106  0.9380 -0.5091
26043SOL     OW80760   9.423   4.880   9.100  0.3417 -0.2439 -0.1118
26043SOL    HW180761   9.516   4.875   9.077  1.0966 -1.3278  2.7199
26043SOL    HW280762   9.401   4.791   9.128 -1.3862  0.1688 -0.0633
26044SOL     OW80763   2.868   2.920   3.227 -0.1139  0.3626 -0.0168
26044SOL    HW180764   2.837   2.833   3.202  0.7022 -0.4477  1.5672
26044SOL    HW280765   2.788   2.968   3.250 -0.5145 -0.3238  0.0717
26045SOL     OW80766   0.350   9.526   1.689 -0.2943  0.3353  0.1608
26045SOL    HW180767   0.379   9.579   1.614  0.1010  2.7127  1.8925
26045SOL    HW280768   0.259   9.553   1.703  0.0476  0.9035  1.3376
26046SOL     OW80769   5.157   0.439   5.520  0.4343  0.0525  0.2871
26046SOL    HW180770   5.243   0.482   5.518  0.5411 -0.1815 -0.3672
26046SOL    HW280771   5.095   0.510   5.537  0.7790  0.1813  1.0517
26047SOL     OW80772   2.119   0.604   1.504  0.6669  0.5987 -0.7219
26047SOL    HW180773   2.149   0.620   1.414  2.6123 -0.6514 -0.3663
26047SOL    HW280774   2.174   0.662   1.557  0.6918  0.1378 -0.2356
26048SOL     OW80775   2.870   2.268   8.262 -0.3163  0.4113 -0.4382
26048SOL    HW180776   2.833   2.350   8.230  1.2179  1.5718  0.5841
26048SOL    HW280777   2.930   2.240   8.193 -0.6876  0.2428 -0.6975
26049SOL     OW80778   0.824   9.300   6.214  0.1686  0.2401  0.8086
26049SOL    HW180779   0.883   9.254   6.274 -0.3591  0.2339  1.3295
26049SOL    HW280780   0.853   9.391   6.216  0.0322  0.2769  1.2247
26050SOL     OW80781   8.598   8.606   1.257 -0.3410 -0.3812  0.1505
26050SOL    HW180782   8.524   8.546   1.268  0.1494 -0.8453  1.1169
26050SOL    HW280783   8.558   8.688   1.228 -0.8775 -1.5977 -2.9010
26051SOL     OW80784   2.613   2.568   4.413  0.0062  0.3188  0.0648
26051SOL    HW180785   2.644   2.646   4.367  0.6644  0.2310  0.3506
26051SOL    HW280786   2.689   2.510   4.415 -0.4285 -0.2580  0.0175
26052SOL     OW80787   5.342   9.465   3.676  0.5813  0.5667  0.1199
26052SOL    HW180788   5.295   9.386   3.703 -0.0262  1.4560  1.8582
26052SOL    HW280789   5.274   9.525   3.648  1.1321  0.0807 -2.5354
26053SOL     OW80790  10.334   9.096   3.977  0.1172 -0.0245 -0.1528
26053SOL    HW180791  10.409   9.068   4.030  0.7950  2.9316  0.6223
26053SOL    HW280792  10.333   9.191   3.985 -2.6677  0.1711 -1.6385
26054SOL     OW80793   7.427  10.188   4.738 -0.0643  0.1403 -0.0180
26054SOL    HW180794   7.400  10.279   4.750 -2.9000 -0.8179  1.8273
26054SOL    HW280795   7.418  10.173   4.644 -0.1895  1.5722 -0.2561
26055SOL     OW80796   3.885   9.126   8.949  1.0404 -0.5184 -0.3632
26055SOL    HW180797   3.872   9.221   8.945  0.8148 -0.6024 -2.0804
26055SOL    HW280798   3.978   9.114   8.929  0.9132 -0.6942 -0.8594
26056SOL     OW80799   1.105   7.911   6.478 -0.2289 -0.2157  0.2965
26056SOL    HW180800   1.025   7.878   6.437 -1.4022  0.7081  1.7610
26056SOL    HW280801   1.079   7.934   6.567  1.6668  0.1599  0.7948
26057SOL     OW80802   1.386   2.637   7.813  0.3723 -0.0574 -0.1181
26057SOL    HW180803   1.329   2.566   7.782 -1.2911  0.9081  0.5871
26057SOL    HW280804   1.343   2.717   7.783 -0.8643  0.9059  3.7105
26058SOL     OW80805   3.349   2.369   0.434  0.6324 -0.3097  0.0932
26058SOL    HW180806   3.371   2.460   0.452 -0.5346  0.0009  0.0708
26058SOL    HW280807   3.419   2.318   0.474  1.5922  0.6111 -0.3784
26059SOL     OW80808   0.728   4.606   9.546  0.4402 -0.3655 -0.2709
26059SOL    HW180809   0.719   4.521   9.503  0.6781 -1.5776  1.8990
26059SOL    HW280810   0.641   4.625   9.581  0.2158  0.6613 -1.3283
26060SOL     OW80811   4.523   0.779   4.151  0.3202  0.0932 -0.0223
26060SOL    HW180812   4.577   0.858   4.141 -0.3721  0.7250  0.9961
26060SOL    HW280813   4.445   0.797   4.098  0.4497 -0.1936 -0.3129
26061SOL     OW80814   1.725   0.346   5.888 -0.1365  0.3826  0.1612
26061SOL    HW180815   1.800   0.291   5.865 -0.2518  0.7394 -1.1413
26061SOL    HW280816   1.743   0.431   5.848 -1.4246  0.3470 -0.5593
26062SOL     OW80817   4.738   9.265   7.916  0.7786  0.2539 -0.7294
26062SOL    HW180818   4.677   9.304   7.979 -3.6011 -3.2694 -2.2498
26062SOL    HW280819   4.718   9.308   7.833  1.0426 -0.2587 -1.0656
26063SOL     OW80820   7.047   0.328  10.336 -0.2777  0.3768  0.3616
26063SOL    HW180821   7.075   0.311  10.426  0.3344  1.4193  0.3875
26063SOL    HW280822   7.122   0.371  10.296 -0.1776 -0.9618 -0.9573
26064SOL     OW80823   6.737   4.821   2.719 -0.1665 -0.5594 -0.1076
26064SOL    HW180824   6.667   4.817   2.784 -0.8332 -0.9208 -0.8330
26064SOL    HW280825   6.812   4.857   2.767 -0.9409  0.1659  0.5968
26065SOL     OW80826   9.012   3.987   2.022  0.0478  1.0202  0.5983
26065SOL    HW180827   8.916   3.993   2.021 -0.0713  0.2356 -2.6187
26065SOL    HW280828   9.042   4.071   1.988  0.6114  1.5089  2.1814
26066SOL     OW80829   9.730   6.716   4.390  0.0779  0.6870 -0.4695
26066SOL    HW180830   9.635   6.730   4.384 -0.1128  0.3002  1.1148
26066SOL    HW280831   9.769   6.790   4.343 -1.0020  0.7822 -1.2537
26067SOL     OW80832   4.753  10.176   6.491 -0.1847  0.2513 -0.3409
26067SOL    HW180833   4.700  10.189   6.570 -0.1126 -2.0532  0.1527
26067SOL    HW280834   4.833  10.226   6.507  0.9697 -2.1849  2.2700
26068SOL     OW80835   2.362   7.776   6.702  0.2248  0.1092 -0.4919
26068SOL    HW180836   2.431   7.748   6.763  0.4285 -1.1445 -1.2541
26068SOL    HW280837   2.401   7.847   6.652  0.8975 -0.4241 -0.7488
26069SOL     OW80838   1.413   1.101   2.401  0.6287 -0.1028 -0.4542
26069SOL    HW180839   1.401   1.109   2.496  0.0527  0.2230 -0.5521
26069SOL    HW280840   1.357   1.028   2.376 -2.3509  2.2273 -1.1039
26070SOL     OW80841   3.091   3.232   3.085  0.1814  0.0679 -0.0890
26070SOL    HW180842   3.076   3.308   3.028  0.4167 -0.9072 -1.4893
26070SOL    HW280843   3.071   3.156   3.031  2.0926 -0.9837  0.5731
26071SOL     OW80844   8.073   4.550   5.409 -0.1337  0.0293  0.5229
26071SOL    HW180845   8.055   4.602   5.331  1.2226  0.9998  0.8223
26071SOL    HW280846   8.042   4.604   5.482 -0.0672 -0.2316  0.7475
26072SOL     OW80847   0.430   7.116   3.448 -0.2146 -0.1043 -0.2794
26072SOL    HW180848   0.446   7.095   3.356 -1.4731  1.1244 -0.8116
26072SOL    HW280849   0.412   7.032   3.489 -0.6144 -0.5692 -1.3727
26073SOL     OW80850   7.521   5.660   9.010  0.0471 -0.7959 -0.0834
26073SOL    HW180851   7.495   5.644   9.101  1.2696 -1.7866  0.1170
26073SOL    HW280852   7.438   5.675   8.964 -0.5025  1.5198  1.4862
26074SOL     OW80853   2.085   0.127   0.297 -0.1147 -0.4794  0.2545
26074SOL    HW180854   2.004   0.178   0.299  0.4774  0.5243  2.0587
26074SOL    HW280855   2.057   0.037   0.281 -1.3277  0.1687 -1.6538
26075SOL     OW80856   0.574  10.222   2.705 -0.5043  0.1841  0.6541
26075SOL    HW180857   0.562  10.195   2.614 -0.9202  1.0741  0.4289
26075SOL    HW280858   0.626  10.302   2.699  1.9873 -1.2953  1.3838
26076SOL     OW80859   8.989   8.334   8.630  0.4777 -0.2532  0.0131
26076SOL    HW180860   9.010   8.243   8.608  1.6024  0.0460 -0.2250
26076SOL    HW280861   8.997   8.381   8.547  1.4213  0.3129  0.4061
26077SOL     OW80862   6.213   0.922   0.133 -0.2177  0.0096  0.1044
26077SOL    HW180863   6.169   0.846   0.169 -2.0167  0.5602 -0.8406
26077SOL    HW280864   6.274   0.949   0.202  1.6128 -3.1244 -0.1040
26078SOL     OW80865   2.032   4.533   2.231  0.1670  0.2476 -0.3425
26078SOL    HW180866   2.007   4.624   2.217  0.7000  0.6499  1.1510
26078SOL    HW280867   2.088   4.535   2.309  2.8941 -0.9064 -2.1094
26079SOL     OW80868   8.806   1.140  10.090  0.2355 -0.2887  0.0118
26079SOL    HW180869   8.816   1.125   9.996 -0.0426 -2.8962  0.3295
26079SOL    HW280870   8.896   1.150  10.122  0.6148 -2.7412 -0.1124
26080SOL     OW80871   3.469   9.845   4.121 -0.4303  0.7332 -0.1533
26080SOL    HW180872   3.467   9.837   4.026  0.3481 -1.7662 -0.0140
26080SOL    HW280873   3.552   9.888   4.140 -0.1717  0.3970 -0.5422
26081SOL     OW80874   6.312   0.016   0.850  0.2939 -0.4852 -0.2315
26081SOL    HW180875   6.258  -0.046   0.800  0.1879 -1.2521  0.8203
26081SOL    HW280876   6.281   0.009   0.940 -0.9589  2.3958 -0.2929
26082SOL     OW80877   9.035   7.879   1.863 -0.2567 -0.6266 -0.1168
26082SOL    HW180878   8.973   7.837   1.803 -1.1192 -0.4307  0.6218
26082SOL    HW280879   9.049   7.966   1.825  4.1840 -2.4790 -3.6000
26083SOL     OW80880   3.099   3.052   3.307  0.0386 -0.0895 -0.1381
26083SOL    HW180881   3.117   3.111   3.234 -0.9578 -0.2920 -0.5650
26083SOL    HW280882   3.021   3.004   3.280 -2.4209  2.1019  2.3582
26084SOL     OW80883   6.669   3.543   1.888  0.5248 -0.1909 -0.3305
26084SOL    HW180884   6.673   3.481   1.815  2.9148  0.1993 -0.6144
26084SOL    HW280885   6.757   3.542   1.925 -0.1397  0.9920  1.4050
26085SOL     OW80886   7.207   6.144   2.991 -0.4445 -0.0612 -0.2123
26085SOL    HW180887   7.217   6.240   2.996 -1.4687  0.2147 -2.3895
26085SOL    HW280888   7.180   6.119   3.079 -0.1365  1.6453  0.4233
26086SOL     OW80889   5.139   9.030   6.592 -0.1527 -0.0492  0.0381
26086SOL    HW180890   5.104   9.119   6.589 -0.4884 -0.1886 -3.0145
26086SOL    HW280891   5.190   9.021   6.512 -0.1130 -2.6137  0.2597
26087SOL     OW80892   6.745   2.456   8.652 -0.4554  0.0243  0.7238
26087SOL    HW180893   6.838   2.465   8.672  0.0601  0.8013 -1.7086
26087SOL    HW280894   6.739   2.374   8.603 -1.5363 -1.3668  2.9746
26088SOL     OW80895   0.949   5.393   7.469 -0.3140  0.4030  0.1226
26088SOL    HW180896   0.936   5.378   7.562  0.2035 -0.0432  0.1330
26088SOL    HW280897   0.890   5.465   7.447 -1.0451 -0.0421  0.6144
26089SOL     OW80898   8.277   0.916   9.604 -0.3268 -0.3216 -0.4823
26089SOL    HW180899   8.366   0.949   9.617 -0.9757  0.5326  2.6458
26089SOL    HW280900   8.279   0.874   9.518  2.5599  1.3502 -1.3582
26090SOL     OW80901   6.450   2.646   6.430  0.2026  0.2115 -0.1025
26090SOL    HW180902   6.477   2.612   6.344  1.2882  0.4363  0.1270
26090SOL    HW280903   6.433   2.739   6.415  1.2803  0.4545  0.0893
26091SOL     OW80904   5.257   7.912   6.355  0.3889 -0.3281 -0.2509
26091SOL    HW180905   5.257   7.931   6.448  1.4028 -2.2764  0.1774
26091SOL    HW280906   5.172   7.945   6.324  0.0223  0.2907  1.3415
26092SOL     OW80907   1.640   1.849   4.245  0.3943 -0.5536  0.0505
26092SOL    HW180908   1.629   1.914   4.314  2.2756 -0.9495  0.7904
26092SOL    HW280909   1.686   1.895   4.174  1.0677 -0.8541  0.2765
26093SOL     OW80910   0.858   9.488   0.069  0.2180  0.0678  0.3347
26093SOL    HW180911   0.766   9.466   0.080 -0.1998  2.2540  1.6499
26093SOL    HW280912   0.905   9.409   0.098 -1.1998 -0.6690  0.6926
26094SOL     OW80913   4.745   3.291   5.979 -0.0859 -0.3122  0.2302
26094SOL    HW180914   4.792   3.349   5.919  1.1276 -1.9738 -0.5105
26094SOL    HW280915   4.699   3.229   5.921 -1.6427  0.0976  0.9859
26095SOL     OW80916   2.777  10.237   5.498  0.1659 -0.9928  0.2636
26095SOL    HW180917   2.759  10.181   5.422  0.4384 -1.7216  0.7248
26095SOL    HW280918   2.831  10.308   5.463 -0.9806 -0.4597 -0.5279
26096SOL     OW80919   5.730   7.118   3.929 -0.3317  0.2150  0.2063
26096SOL    HW180920   5.761   7.193   3.879 -0.0247  0.9303  1.4184
26096SOL    HW280921   5.701   7.055   3.863  0.7648  0.7997 -0.8741
26097SOL     OW80922   1.421   2.896   6.686 -0.1094 -0.6311  0.4338
26097SOL    HW180923   1.465   2.818   6.718  1.1535  1.4246  4.2382
26097SOL    HW280924   1.491   2.958   6.665 -1.1044  0.5635  0.4817
26098SOL     OW80925   2.524   2.941   8.271 -0.0807 -0.0674  0.4697
26098SOL    HW180926   2.532   3.028   8.231 -0.2210 -0.1148  0.3349
26098SOL    HW280927   2.519   2.957   8.365 -0.2786  0.0825  0.4347
26099SOL     OW80928   7.431   2.448   9.215  0.2059 -0.2211  0.2475
26099SOL    HW180929   7.413   2.397   9.294 -1.1039  0.5706  0.4827
26099SOL    HW280930   7.444   2.538   9.247  1.1317 -0.1485 -0.3012
26100SOL     OW80931   2.360   1.568   6.394 -0.1013  0.5449  0.8219
26100SOL    HW180932   2.375   1.561   6.300 -0.6262  0.3722  0.7456
26100SOL    HW280933   2.389   1.657   6.417  0.6178  0.3621  0.6145
26101SOL     OW80934   8.033   4.053   5.757 -0.3910 -0.0492 -0.1275
26101SOL    HW180935   7.949   4.056   5.803  0.7090  3.8272  2.0937
26101SOL    HW280936   8.017   4.098   5.674 -0.6392  0.3086  0.1102
26102SOL     OW80937   4.421   5.839   8.591  0.0938  0.0328  0.1188
26102SOL    HW180938   4.465   5.863   8.672  1.0161  0.0588 -0.3713
26102SOL    HW280939   4.469   5.763   8.558 -0.5856 -0.2927 -0.1515
26103SOL     OW80940  10.032   1.625   3.449  0.3389  0.0108 -0.2438
26103SOL    HW180941  10.075   1.692   3.395 -0.5135  0.2584 -0.6323
26103SOL    HW280942   9.984   1.675   3.515  1.0321 -0.2806  0.4999
26104SOL     OW80943   8.067   7.597   5.703 -0.1216  0.3986 -0.3161
26104SOL    HW180944   7.991   7.629   5.655  0.2054  0.9051 -0.5152
26104SOL    HW280945   8.141   7.642   5.662  0.3393 -0.4817 -0.4750
26105SOL     OW80946   0.639   8.909   5.368  0.1626  0.4685  0.1324
26105SOL    HW180947   0.590   8.991   5.381 -0.3291  0.0606  0.8899
26105SOL    HW280948   0.679   8.892   5.453  0.3954  0.0051 -0.0724
26106SOL     OW80949  10.219   1.516   8.134  0.0372 -0.2095  0.2106
26106SOL    HW180950  10.157   1.581   8.102 -0.1302 -0.0061  0.9377
26106SOL    HW280951  10.218   1.527   8.229  0.9808 -0.3980  0.2433
26107SOL     OW80952   0.561   0.609   5.125  0.1562  0.0620  0.3019
26107SOL    HW180953   0.633   0.570   5.174  0.2471 -1.2338 -0.8149
26107SOL    HW280954   0.489   0.613   5.188  0.2460 -1.6337  0.5700
26108SOL     OW80955   0.790   6.951   0.721 -0.1518  0.2309  0.2334
26108SOL    HW180956   0.882   6.975   0.730 -0.0341  0.0895 -0.5411
26108SOL    HW280957   0.747   7.032   0.693  0.1011 -0.2051 -1.5172
26109SOL     OW80958   7.312   2.878   8.134 -0.2107 -0.0141 -0.0854
26109SOL    HW180959   7.390   2.825   8.149 -0.4969 -0.6915 -0.9228
26109SOL    HW280960   7.285   2.857   8.045 -0.3213  1.5788 -0.4628
26110SOL     OW80961   5.389   2.512   3.172 -0.2800 -0.1203 -0.2363
26110SOL    HW180962   5.407   2.457   3.096  1.4888  1.0240 -0.7113
26110SOL    HW280963   5.325   2.576   3.140 -0.2925 -0.2465 -0.4660
26111SOL     OW80964   3.165   9.073   2.490  0.4033 -1.0194 -0.9316
26111SOL    HW180965   3.208   9.052   2.573 -0.7977  1.9698  0.5799
26111SOL    HW280966   3.224   9.135   2.447 -0.1809 -0.5517 -1.0702
26112SOL     OW80967   5.179   3.860  10.242 -0.0135 -0.4955  0.0035
26112SOL    HW180968   5.125   3.882  10.166  1.3352 -1.9116 -1.4122
26112SOL    HW280969   5.186   3.765  10.240  0.5785 -0.5178  1.5654
26113SOL     OW80970   7.576   2.181   6.597  0.1995  0.9752 -0.4556
26113SOL    HW180971   7.535   2.189   6.683 -0.2106  2.6832 -0.7763
26113SOL    HW280972   7.509   2.143   6.541  0.4889 -0.2042 -0.0295
26114SOL     OW80973   5.706   5.891   8.473 -0.5499 -0.5879 -0.4129
26114SOL    HW180974   5.662   5.850   8.399  1.5326 -0.7146 -1.6297
26114SOL    HW280975   5.779   5.834   8.493 -0.1594  0.2743  0.7279
26115SOL     OW80976   3.202   6.021   4.504  0.4324 -0.0006  0.3341
26115SOL    HW180977   3.242   5.962   4.441  1.3543 -1.2787  2.0225
26115SOL    HW280978   3.143   6.076   4.452  1.3548 -0.7931 -1.6378
26116SOL     OW80979   7.453   1.405   6.096  0.7691  0.2450 -0.0865
26116SOL    HW180980   7.484   1.351   6.024  0.8091  0.9891 -0.6391
26116SOL    HW280981   7.524   1.403   6.160  0.6030 -0.6673  0.0753
26117SOL     OW80982   7.481  10.044   9.067  0.3711  0.6817  0.1967
26117SOL    HW180983   7.502   9.959   9.028  0.4126  1.8274 -2.5543
26117SOL    HW280984   7.385  10.048   9.064  0.3556  0.5838  0.6306
26118SOL     OW80985   1.705   4.781   1.305 -0.3149 -0.0995  0.3441
26118SOL    HW180986   1.691   4.820   1.219 -0.9541 -0.0548  0.4629
26118SOL    HW280987   1.629   4.807   1.356  1.7597  3.0218  2.1223
26119SOL     OW80988   6.012   3.175   7.843 -0.0995 -0.0917  0.3988
26119SOL    HW180989   6.010   3.271   7.847 -1.3453 -0.1148  0.9919
26119SOL    HW280990   5.922   3.149   7.864 -0.1347 -1.3485 -1.1839
26120SOL     OW80991   9.977   1.474   9.409  0.1050  0.0734  0.0068
26120SOL    HW180992  10.001   1.483   9.501  1.5681  0.0533 -0.3462
26120SOL    HW280993   9.990   1.561   9.372 -0.7939  0.1624 -0.1300
26121SOL     OW80994   2.082   0.248   7.284 -0.4526  0.0115 -0.4035
26121SOL    HW180995   2.059   0.339   7.265 -0.4890  0.4527  1.5416
26121SOL    HW280996   2.169   0.253   7.326 -1.1442 -0.6415  1.2016
26122SOL     OW80997   3.642   5.783   5.090  0.4314 -0.2018  0.3614
26122SOL    HW180998   3.708   5.791   5.021 -1.2148  1.2982 -1.1513
26122SOL    HW280999   3.679   5.831   5.164  1.6661 -0.6862  0.0771
26123SOL     OW81000   3.115   1.882   4.668 -0.3568  0.6010  0.0664
26123SOL    HW181001   3.029   1.854   4.636 -0.0453  0.0178 -0.2944
26123SOL    HW281002   3.176   1.853   4.600  0.1547  0.7469  0.4572
26124SOL     OW81003   1.235   3.682   8.639  0.2149 -0.5821 -0.3223
26124SOL    HW181004   1.199   3.699   8.726  0.1505  0.6361 -0.5770
26124SOL    HW281005   1.230   3.587   8.629 -0.2585 -0.6826  0.7920
26125SOL     OW81006   8.254   0.380  10.331  0.4039 -0.0291 -0.2880
26125SOL    HW181007   8.308   0.446  10.374  0.6690  0.3130 -1.1329
26125SOL    HW281008   8.262   0.399  10.238 -1.2899  0.1363 -0.4305
26126SOL     OW81009   2.982   4.916   4.471  0.0111 -0.4238 -0.3659
26126SOL    HW181010   2.890   4.890   4.472  0.2853 -1.4814 -0.8986
26126SOL    HW281011   3.016   4.884   4.554 -0.1144  0.0599 -0.1221
26127SOL     OW81012   1.877   2.670   0.700  0.1738  0.1558  0.2669
26127SOL    HW181013   1.788   2.675   0.665  1.3990  1.6760 -3.1130
26127SOL    HW281014   1.899   2.577   0.697 -0.7237 -0.0414 -0.6010
26128SOL     OW81015   8.548   4.423   6.137 -0.2479 -0.1622 -0.3658
26128SOL    HW181016   8.580   4.502   6.181  0.0286 -1.5909  2.1993
26128SOL    HW281017   8.622   4.394   6.083  0.1774  0.5266 -0.1630
26129SOL     OW81018   7.127   0.165   1.439 -0.2952  0.3447  0.3944
26129SOL    HW181019   7.095   0.182   1.350 -0.2236  0.9677  0.4856
26129SOL    HW281020   7.221   0.183   1.435 -0.1522 -0.3861  0.4062
26130SOL     OW81021   2.506   4.697   7.188 -1.0694 -0.0913 -0.3174
26130SOL    HW181022   2.594   4.735   7.183 -1.5321  0.8927 -1.1923
26130SOL    HW281023   2.469   4.734   7.268 -0.5992 -0.7231  0.2025
26131SOL     OW81024   7.502   1.796   7.107  1.0041  0.1330 -0.7616
26131SOL    HW181025   7.484   1.867   7.168  2.9207 -1.2214  1.5821
26131SOL    HW281026   7.426   1.737   7.116  1.2029  0.0094  0.2890
26132SOL     OW81027   2.527   9.455   7.735 -0.2705 -0.0867 -0.5543
26132SOL    HW181028   2.580   9.517   7.785 -0.1923 -0.7736  0.2450
26132SOL    HW281029   2.437   9.483   7.750 -0.2741 -0.5553  0.3693
26133SOL     OW81030   0.602   4.814   8.294 -0.0182 -0.2104 -0.0582
26133SOL    HW181031   0.551   4.861   8.361  2.5747  0.4838  1.5463
26133SOL    HW281032   0.536   4.783   8.232 -2.2710  1.7708  1.1689
26134SOL     OW81033   3.389   2.881   0.034  0.3141 -0.1024  0.7046
26134SOL    HW181034   3.425   2.966   0.062  0.2255 -0.8580  3.3526
26134SOL    HW281035   3.385   2.829   0.114 -0.4947 -2.3320 -0.6924
26135SOL     OW81036   5.019   6.548   9.433 -0.2885 -0.3632 -0.0178
26135SOL    HW181037   4.954   6.565   9.365 -1.3777 -0.1589  1.0533
26135SOL    HW281038   5.063   6.632   9.446 -0.4141 -0.2833 -0.1109
26136SOL     OW81039   7.081   6.954   6.454 -0.2261  0.2678 -0.8412
26136SOL    HW181040   7.143   6.974   6.524 -0.7135 -2.0942  0.3488
26136SOL    HW281041   7.005   7.009   6.473 -1.1083 -1.6670  1.6792
26137SOL     OW81042   5.950  10.248   3.018 -0.3173 -0.6508 -0.2417
26137SOL    HW181043   5.975  10.184   2.951 -0.8988  0.2055 -1.3121
26137SOL    HW281044   5.855  10.242   3.023 -0.2069 -1.4352  1.2858
26138SOL     OW81045   1.034   5.148   4.958 -0.1301  0.4103  0.3856
26138SOL    HW181046   1.060   5.112   5.043 -1.0444 -0.4592  0.3071
26138SOL    HW281047   0.943   5.176   4.971 -0.0416  0.9469 -0.1093
26139SOL     OW81048  10.027   8.028   0.223 -0.1383 -0.3455  0.5344
26139SOL    HW181049  10.001   7.938   0.242 -0.9683  0.2600  2.5359
26139SOL    HW281050   9.987   8.080   0.293  0.8251  1.5109 -0.2175
26140SOL     OW81051   9.145   8.376   4.924  0.5695  0.3896 -0.2285
26140SOL    HW181052   9.111   8.388   5.012  2.1340 -0.2405  0.5063
26140SOL    HW281053   9.239   8.360   4.936  0.9458  0.9352 -2.0569
26141SOL     OW81054   1.857   4.163   5.380 -0.0292  0.6226 -0.2356
26141SOL    HW181055   1.936   4.134   5.425  0.2580  0.7748 -0.6418
26141SOL    HW281056   1.806   4.207   5.448  0.3868  0.8238 -0.0523
26142SOL     OW81057   4.406   2.841   5.411  0.1407 -0.0334 -0.6007
26142SOL    HW181058   4.463   2.918   5.404 -0.1785  0.3809  0.8769
26142SOL    HW281059   4.318   2.877   5.416  0.0457 -0.4053  0.9346
26143SOL     OW81060   8.853   2.708   2.479 -0.3540 -0.2642  0.4322
26143SOL    HW181061   8.885   2.620   2.497  1.7314  0.7369  1.9976
26143SOL    HW281062   8.917   2.744   2.418  1.1157  1.4314  2.8176
26144SOL     OW81063   8.916   2.264   1.309 -0.1497  0.2233 -0.2093
26144SOL    HW181064   8.882   2.342   1.352 -0.1139 -0.2861  0.7662
26144SOL    HW281065   8.841   2.206   1.301 -0.2862  0.5324 -1.3863
26145SOL     OW81066   9.223   7.812   4.654 -0.2362 -0.2078  0.0388
26145SOL    HW181067   9.276   7.734   4.670 -0.0220 -0.0078  0.3313
26145SOL    HW281068   9.187   7.834   4.740  0.1553  0.3357  0.0686
26146SOL     OW81069   8.286   5.885   4.911 -0.2168  0.3709 -0.0535
26146SOL    HW181070   8.337   5.834   4.974  2.1528  0.9232 -1.4110
26146SOL    HW281071   8.225   5.822   4.873  1.8873 -1.2989 -0.9086
26147SOL     OW81072   9.804   0.713   5.381 -0.6515  0.2272  0.1876
26147SOL    HW181073   9.834   0.738   5.469 -1.0996 -0.0223  0.4126
26147SOL    HW281074   9.764   0.627   5.393  2.3288 -1.4677 -0.8464
26148SOL     OW81075   8.260   1.894  10.185  0.1391 -0.0103 -0.0191
26148SOL    HW181076   8.289   1.941  10.263  1.6065 -1.0199  0.0760
26148SOL    HW281077   8.340   1.864  10.143 -0.6979 -1.3910 -0.7253
26149SOL     OW81078   1.012   4.253  10.087 -0.3724 -0.0232 -0.1466
26149SOL    HW181079   0.989   4.205  10.166  1.1932 -0.1657  0.2515
26149SOL    HW281080   1.078   4.199  10.044  1.9634  2.0021  0.6639
26150SOL     OW81081   7.326   1.765   8.977  0.0195 -0.3486 -0.1570
26150SOL    HW181082   7.353   1.836   9.035  0.0781 -0.9361  0.5625
26150SOL    HW281083   7.289   1.808   8.900  3.0832  0.5515 -1.2841
26151SOL     OW81084   9.162   3.182   4.236  0.1286  0.4030  0.0133
26151SOL    HW181085   9.250   3.200   4.203  0.1644 -1.8954 -1.4183
26151SOL    HW281086   9.104   3.229   4.176  0.3318  0.3491 -0.2287
26152SOL     OW81087   8.074   3.795   7.436  0.3670 -0.0387  0.0533
26152SOL    HW181088   8.029   3.872   7.401  0.2841 -0.7558 -1.5115
26152SOL    HW281089   8.038   3.784   7.524  1.8658  2.8755  1.1431
26153SOL     OW81090   0.823   4.251   8.858 -0.5325 -0.6232  0.0558
26153SOL    HW181091   0.762   4.324   8.873  0.3780  0.1288  0.1789
26153SOL    HW281092   0.842   4.254   8.765  0.1627 -0.1475  0.1991
26154SOL     OW81093   5.207   1.524   8.035  0.1310 -0.4210  0.0477
26154SOL    HW181094   5.219   1.579   8.112 -0.8392  1.2169 -0.9252
26154SOL    HW281095   5.153   1.451   8.066  1.2308 -0.7360  1.3001
26155SOL     OW81096  10.243   8.771   2.977  0.9244  0.3450  1.0067
26155SOL    HW181097  10.221   8.724   3.057  1.0584  0.6343  1.2157
26155SOL    HW281098  10.337   8.786   2.982  0.9233  0.4198  0.8249
26156SOL     OW81099   6.990   0.507   4.401  0.6062 -0.1529  0.7302
26156SOL    HW181100   6.951   0.419   4.402  0.4648 -0.1068 -0.0556
26156SOL    HW281101   7.083   0.491   4.387  0.2341 -0.1135 -2.4319
26157SOL     OW81102   7.339   5.170   9.413 -0.2085 -0.3660  0.0560
26157SOL    HW181103   7.362   5.079   9.394  1.0406 -0.1722  0.5121
26157SOL    HW281104   7.312   5.169   9.505  0.9100 -0.1073  0.4022
26158SOL     OW81105   5.252   3.848   5.545  0.0796 -0.3390 -0.1360
26158SOL    HW181106   5.325   3.905   5.570 -0.5108  0.2859  0.2098
26158SOL    HW281107   5.188   3.908   5.505 -1.3345 -0.4240  1.8652
26159SOL     OW81108   1.663   4.779   4.564  0.1840 -0.8361  0.6921
26159SOL    HW181109   1.736   4.815   4.513  0.8200  0.9915  2.7159
26159SOL    HW281110   1.585   4.818   4.524  0.7199  1.1622  1.4986
26160SOL     OW81111   7.407   8.955   5.899  0.6139 -0.5008 -0.7634
26160SOL    HW181112   7.410   8.908   5.982  0.9610 -1.0069 -1.0637
26160SOL    HW281113   7.349   8.902   5.844  0.1713 -0.0286 -0.7675
26161SOL     OW81114   4.783   0.007   9.623 -0.0447  0.3371  0.1112
26161SOL    HW181115   4.814   0.087   9.665 -0.8138  1.1099 -0.7440
26161SOL    HW281116   4.729   0.037   9.551 -0.3281 -0.9663 -0.2522
26162SOL     OW81117   4.810   0.280   2.569 -0.5601 -0.0731 -0.1360
26162SOL    HW181118   4.825   0.356   2.625  1.2298  0.5584 -1.3620
26162SOL    HW281119   4.745   0.309   2.505  1.2235  1.0403 -1.5490
26163SOL     OW81120   9.168   0.717   3.114 -0.0690  0.2621  0.5515
26163SOL    HW181121   9.141   0.626   3.122 -1.1784  0.3905 -1.1809
26163SOL    HW281122   9.139   0.758   3.196 -0.4821 -0.7211  0.9116
26164SOL     OW81123   5.328   3.401   3.231  0.0495 -0.5959  0.3333
26164SOL    HW181124   5.258   3.363   3.285  1.0481 -0.1272  2.0479
26164SOL    HW281125   5.286   3.471   3.182 -0.5551  0.2780  2.0141
26165SOL     OW81126   4.527   4.639   9.239  0.2546  0.3831  0.3764
26165SOL    HW181127   4.445   4.623   9.286  0.6678  1.4370  1.5296
26165SOL    HW281128   4.504   4.703   9.172 -0.0980 -0.2399 -0.1118
26166SOL     OW81129   5.682  10.193   8.929  0.6054 -0.4588  0.1862
26166SOL    HW181130   5.691  10.115   8.874  0.0590 -1.2220  1.1499
26166SOL    HW281131   5.608  10.173   8.987 -0.1346  1.1399 -0.1470
26167SOL     OW81132   7.354   2.898   2.866  0.8849  0.0682 -0.3368
26167SOL    HW181133   7.392   2.847   2.794 -2.3743 -0.6927 -1.7033
26167SOL    HW281134   7.298   2.836   2.912  0.3197  1.3736  0.8100
26168SOL     OW81135   6.201   6.124   4.198 -0.3013  0.0566  0.0918
26168SOL    HW181136   6.204   6.168   4.113 -0.4373  0.1683  0.1445
26168SOL    HW281137   6.129   6.166   4.244  0.1599  0.4136  0.4912
26169SOL     OW81138   9.299   2.834   9.540 -0.2998 -0.2569  0.1121
26169SOL    HW181139   9.332   2.777   9.609 -0.6332 -0.8732 -0.2223
26169SOL    HW281140   9.204   2.824   9.544 -0.3436  0.0067 -0.1833
26170SOL     OW81141   0.441   8.314   2.669  0.1560 -0.5437 -0.2942
26170SOL    HW181142   0.386   8.263   2.610  0.3581 -1.5753  0.3642
26170SOL    HW281143   0.526   8.318   2.626  0.3897 -1.5580  0.0359
26171SOL     OW81144   5.218   7.930   0.250 -0.5602  1.0550  0.3246
26171SOL    HW181145   5.213   7.917   0.155 -1.1053  1.7987  0.2399
26171SOL    HW281146   5.310   7.945   0.268  0.1080 -2.2145  0.3710
26172SOL     OW81147   3.145   5.514   9.442  0.4682 -0.1162 -0.4430
26172SOL    HW181148   3.103   5.573   9.505 -1.4172 -2.1908  0.3624
26172SOL    HW281149   3.090   5.521   9.363  0.8568 -0.0154 -0.7064
26173SOL     OW81150   5.662   2.750   8.308 -0.2556 -0.1411 -0.4922
26173SOL    HW181151   5.676   2.665   8.266 -1.8447  0.3981 -2.2939
26173SOL    HW281152   5.653   2.730   8.401 -1.5448 -2.0957 -0.9760
26174SOL     OW81153   5.329   4.127   8.325 -0.3736  0.1369  0.1609
26174SOL    HW181154   5.351   4.220   8.336  1.8141 -0.4738  1.5472
26174SOL    HW281155   5.379   4.100   8.248 -0.4821 -0.0374  0.1523
26175SOL     OW81156   3.248   5.661   0.660 -0.7838  0.0515  0.3195
26175SOL    HW181157   3.313   5.731   0.672 -2.1492  1.3712  0.2317
26175SOL    HW281158   3.241   5.651   0.566 -2.0843  1.3010  0.2413
26176SOL     OW81159   7.791   7.273   7.599  0.5254  0.8780 -0.1693
26176SOL    HW181160   7.802   7.347   7.659 -0.9015  0.2844  0.8775
26176SOL    HW281161   7.746   7.311   7.523 -0.3504  1.0866  0.4322
26177SOL     OW81162   4.614   1.854   1.069 -0.2496 -0.1134  0.5707
26177SOL    HW181163   4.603   1.760   1.053  0.2586 -0.1929  0.6799
26177SOL    HW281164   4.683   1.859   1.135 -1.7355  0.2532  2.1491
26178SOL     OW81165   8.467   2.052   1.014 -0.0705 -0.0087 -0.4551
26178SOL    HW181166   8.476   2.143   1.042  1.4476 -0.0671 -0.6999
26178SOL    HW281167   8.513   2.047   0.931 -2.4083 -0.4198 -1.8124
26179SOL     OW81168   5.664   4.535   5.646 -0.1801  0.0048  0.4156
26179SOL    HW181169   5.677   4.481   5.568  1.7648 -0.4845  1.0182
26179SOL    HW281170   5.653   4.472   5.717  1.5873  0.3530  1.0468
26180SOL     OW81171   5.068   8.770   8.164  0.0671 -0.0027  0.0658
26180SOL    HW181172   5.053   8.771   8.259  0.4208  0.0235  0.1231
26180SOL    HW281173   5.131   8.699   8.151  0.8247  0.6614 -0.0178
26181SOL     OW81174   6.785   0.519   3.017  0.2614  0.2140 -0.2964
26181SOL    HW181175   6.818   0.566   2.940 -0.4244 -1.0308 -1.3870
26181SOL    HW281176   6.863   0.484   3.059  0.6647  1.1212 -0.2507
26182SOL     OW81177   8.252   8.694   0.506 -0.2830  0.3867  0.3518
26182SOL    HW181178   8.200   8.717   0.429  0.4954  2.2622  0.3355
26182SOL    HW281179   8.205   8.621   0.545 -0.2257 -1.2787 -2.3783
26183SOL     OW81180   8.218   3.584   0.142 -0.0586  0.0278  0.0853
26183SOL    HW181181   8.213   3.661   0.199 -0.4823  1.9915 -2.4295
26183SOL    HW281182   8.176   3.612   0.060 -1.1176 -3.2157 -0.6397
26184SOL     OW81183   3.991   7.261   5.813 -0.4587 -0.2570  0.3166
26184SOL    HW181184   3.956   7.172   5.814  1.4157 -1.0317  0.2277
26184SOL    HW281185   3.997   7.284   5.906  1.3907 -1.2323  0.4842
26185SOL     OW81186   4.784   7.585   5.324 -0.1371  0.1717  0.0160
26185SOL    HW181187   4.746   7.606   5.239 -0.3603  0.6225  0.2177
26185SOL    HW281188   4.720   7.528   5.366 -0.0633  0.0133 -0.0874
26186SOL     OW81189   5.033   4.491   6.341  0.1196  0.0866 -0.3720
26186SOL    HW181190   4.961   4.524   6.395  0.8094  0.3246  0.4112
26186SOL    HW281191   4.989   4.448   6.267 -0.8533 -0.7680  0.6617
26187SOL     OW81192   4.127   4.960   6.233  0.2760  0.1044 -0.6018
26187SOL    HW181193   4.186   4.909   6.288 -1.7816 -1.2827  0.4466
26187SOL    HW281194   4.088   4.896   6.173 -1.1498  0.7101 -0.3605
26188SOL     OW81195   1.408   5.974   0.544  0.1687  0.3106 -0.6963
26188SOL    HW181196   1.426   6.055   0.497  1.9358 -0.5628 -1.6067
26188SOL    HW281197   1.324   5.943   0.509 -1.6362  2.7106  1.1347
26189SOL     OW81198   0.980   0.897   0.945  0.2306  0.1507 -0.6371
26189SOL    HW181199   0.995   0.981   0.988  0.7512  0.1370 -0.7849
26189SOL    HW281200   1.056   0.844   0.969 -0.2280 -0.3831 -0.3076
26190SOL     OW81201   3.157   0.730   8.836 -0.0328  0.1730  0.0870
26190SOL    HW181202   3.204   0.812   8.825  2.8133 -1.3053  0.2707
26190SOL    HW281203   3.115   0.715   8.751 -0.4850  1.6872  0.0065
26191SOL     OW81204   1.901   3.614   4.653 -0.1108  0.3314 -0.0153
26191SOL    HW181205   1.842   3.546   4.684 -1.2258  0.2924 -2.0089
26191SOL    HW281206   1.842   3.682   4.618  0.9738  0.4700 -1.6936
26192SOL     OW81207   9.928  10.210   1.696  0.3544 -0.5266  0.7459
26192SOL    HW181208   9.996  10.147   1.671  0.4613  0.3133 -1.3386
26192SOL    HW281209   9.973  10.295   1.694 -0.8758  0.1535 -1.5248
26193SOL     OW81210   5.276   6.325   5.435  0.3984  0.2707  0.1218
26193SOL    HW181211   5.284   6.272   5.357 -0.1651  1.1065 -0.5203
26193SOL    HW281212   5.182   6.330   5.452  0.4225  1.1732  0.0718
26194SOL     OW81213   4.911   3.611   5.533 -0.0342 -0.4037  0.0995
26194SOL    HW181214   4.972   3.553   5.487  0.3588 -0.4379  0.6543
26194SOL    HW281215   4.967   3.666   5.588 -0.4763 -0.1755  0.3251
26195SOL     OW81216  10.047   1.506   5.430 -0.0432 -0.0426  0.6492
26195SOL    HW181217  10.021   1.416   5.413 -1.0205  0.4385 -0.5907
26195SOL    HW281218  10.142   1.504   5.435  0.1180 -0.7723 -1.8398
26196SOL     OW81219   0.708   6.797   9.404 -0.1271 -0.2827  0.4158
26196SOL    HW181220   0.795   6.780   9.440 -0.2116 -1.0913  0.2568
26196SOL    HW281221   0.693   6.890   9.420  0.4214 -0.3206  1.2001
26197SOL     OW81222   7.621   6.804   9.437 -0.6263  0.2355 -0.1205
26197SOL    HW181223   7.707   6.823   9.401 -0.3841 -1.2921 -0.4255
26197SOL    HW281224   7.637   6.783   9.529 -0.9893  2.1055  0.4222
26198SOL     OW81225   1.850   4.592   8.776 -0.4035  0.3629  0.0463
26198SOL    HW181226   1.769   4.631   8.811 -1.0147 -0.6025 -0.2598
26198SOL    HW281227   1.860   4.631   8.689 -0.9259 -0.0267 -0.1946
26199SOL     OW81228   4.920   4.467   8.290  0.5153 -0.1456 -0.0469
26199SOL    HW181229   4.869   4.525   8.346  0.5105 -0.5286  0.3461
26199SOL    HW281230   4.986   4.428   8.347  0.4757 -0.5812 -0.2917
26200SOL     OW81231   2.705   5.602   5.941 -0.3957 -0.3786  0.4262
26200SOL    HW181232   2.753   5.684   5.933 -0.9454  0.0446  1.3097
26200SOL    HW281233   2.721   5.573   6.031 -0.9457 -0.7620  0.4108
26201SOL     OW81234   8.049   3.773   7.086  0.3409  0.3178  0.0564
26201SOL    HW181235   8.031   3.834   7.157 -0.0798 -0.5595  0.7304
26201SOL    HW281236   8.096   3.701   7.128  0.6894  0.0949 -0.6895
26202SOL     OW81237   0.491   8.949   4.119 -0.7964  0.3547  0.1089
26202SOL    HW181238   0.537   9.012   4.063 -0.5712 -0.3978 -0.5755
26202SOL    HW281239   0.406   8.990   4.136 -0.9247  0.5484 -0.9057
26203SOL     OW81240   4.240   1.135   9.064 -0.2319  0.5191 -0.6314
26203SOL    HW181241   4.175   1.157   9.130  0.1874 -1.9815  0.7497
26203SOL    HW281242   4.208   1.053   9.026  1.5212 -0.1643 -0.7126
26204SOL     OW81243   6.744   8.702   6.720 -0.2248  0.4082  0.2029
26204SOL    HW181244   6.737   8.618   6.676  0.5446  0.9014 -0.9221
26204SOL    HW281245   6.815   8.690   6.783 -1.2943 -0.2832  1.3235
26205SOL     OW81246   0.282   3.652   9.266 -0.3589 -0.0464  0.2110
26205SOL    HW181247   0.193   3.618   9.276  0.1735 -2.3452 -1.7475
26205SOL    HW281248   0.337   3.584   9.305  0.6231  0.2303 -0.6622
26206SOL     OW81249   0.859   2.840   1.933 -0.2327  0.1277 -0.0436
26206SOL    HW181250   0.935   2.898   1.923  0.7063 -0.9216  0.7291
26206SOL    HW281251   0.893   2.765   1.983 -1.9693  0.0135  1.0447
26207SOL     OW81252  10.129   3.032   8.786 -0.0525  0.1657  0.4812
26207SOL    HW181253  10.052   2.975   8.781  0.2550 -0.2265  0.0512
26207SOL    HW281254  10.114   3.086   8.863 -0.5399 -0.2277  0.6712
26208SOL     OW81255   4.182   5.332   1.968 -0.3237 -0.0361  0.5893
26208SOL    HW181256   4.261   5.298   2.011 -0.6075 -0.6188  0.6603
26208SOL    HW281257   4.215   5.384   1.895  0.1957  1.6402  1.9560
26209SOL     OW81258   7.545   6.555   8.184  0.0783  0.0084 -0.0177
26209SOL    HW181259   7.629   6.601   8.178 -0.7052  1.6048  0.7343
26209SOL    HW281260   7.559   6.488   8.251  1.1001 -0.5667 -0.7811
26210SOL     OW81261   7.892   5.178   6.547  0.0535  0.4888 -0.0051
26210SOL    HW181262   7.875   5.084   6.557 -0.7525  0.5708 -0.5285
26210SOL    HW281263   7.845   5.203   6.467 -0.7723  1.5924  0.8023
26211SOL     OW81264   8.571   0.012   3.080 -0.4182 -0.3289 -0.4046
26211SOL    HW181265   8.596  -0.075   3.048 -1.1515 -0.0391 -1.8279
26211SOL    HW281266   8.587   0.071   3.006  0.0062  0.7572  0.5145
26212SOL     OW81267   8.575   1.764   3.799  0.0382  0.1550 -0.4266
26212SOL    HW181268   8.650   1.731   3.848 -0.6873  0.3867  0.8999
26212SOL    HW281269   8.520   1.687   3.784 -0.7788  0.3935  1.0809
26213SOL     OW81270   2.336   4.825   7.027 -0.1522  0.1200  0.3606
26213SOL    HW181271   2.399   4.769   7.072  0.0312 -0.6199 -0.7673
26213SOL    HW281272   2.260   4.828   7.084 -0.2355 -1.4492  0.3677
26214SOL     OW81273   1.414   4.940   2.173 -0.2903  0.2828  0.1775
26214SOL    HW181274   1.479   4.947   2.103  0.3626  0.9803  0.8469
26214SOL    HW281275   1.387   4.848   2.172  0.3567  0.0961 -0.4087
26215SOL     OW81276   9.422   2.004   3.662 -0.4790  0.7353  1.0387
26215SOL    HW181277   9.436   1.915   3.629  0.1262  1.2988 -0.3194
26215SOL    HW281278   9.510   2.039   3.674 -0.6543  1.8799 -0.6158
26216SOL     OW81279   0.897   0.133   9.221 -0.5229 -0.4162 -0.1315
26216SOL    HW181280   0.980   0.155   9.178  0.3701 -0.1880  1.6305
26216SOL    HW281281   0.831   0.183   9.172  0.5113  0.2536 -0.8849
26217SOL     OW81282   9.022   2.332   8.375 -0.4875  0.0537  0.3287
26217SOL    HW181283   8.987   2.421   8.368 -1.7604 -0.3022  1.6779
26217SOL    HW281284   9.061   2.329   8.462  2.4570  0.2200 -0.8582
26218SOL     OW81285   0.926   0.406  10.123 -0.1015 -0.7181 -0.3216
26218SOL    HW181286   0.965   0.457  10.194  0.8286 -2.4678  0.5059
26218SOL    HW281287   0.930   0.463  10.047  2.6738 -0.1834  0.0992
26219SOL     OW81288   7.970   3.145  10.275  0.2179  0.3914  0.1361
26219SOL    HW181289   8.016   3.073  10.319  2.3014  2.2031  1.1342
26219SOL    HW281290   8.038   3.187  10.222 -1.0391  1.4254 -0.7024
26220SOL     OW81291   7.027   3.961   4.897  0.3871 -0.0196 -0.7777
26220SOL    HW181292   7.033   4.053   4.873 -1.1294 -0.0969 -1.6008
26220SOL    HW281293   7.032   3.960   4.993 -0.0987  0.9761 -0.7344
26221SOL     OW81294   7.696   8.570   2.710 -0.2239  0.0473  0.5692
26221SOL    HW181295   7.619   8.534   2.754  0.3942 -1.3793  0.5187
26221SOL    HW281296   7.763   8.574   2.779 -0.5848  2.2916  0.8953
26222SOL     OW81297   1.282   6.207   9.763  0.6596  0.0995 -0.0146
26222SOL    HW181298   1.294   6.255   9.681  1.3120 -0.6924 -0.3927
26222SOL    HW281299   1.190   6.220   9.785  0.4436  0.1970 -0.9444
26223SOL     OW81300   5.372   8.156   9.931  0.0411  0.7681  0.3071
26223SOL    HW181301   5.457   8.129   9.896  0.6082  1.6765  0.9416
26223SOL    HW281302   5.388   8.243   9.969 -0.9965  0.6421  1.0796
26224SOL     OW81303   5.117   8.548   1.221  0.4113 -0.1577  0.0166
26224SOL    HW181304   5.045   8.577   1.277  0.8291  1.8441 -0.4079
26224SOL    HW281305   5.110   8.603   1.143  1.4982 -0.9971 -0.6992
26225SOL     OW81306   0.361   2.501   9.058  0.0255  0.6462  0.0314
26225SOL    HW181307   0.340   2.592   9.035 -2.5092  0.7663  2.2648
26225SOL    HW281308   0.397   2.507   9.147 -0.3578 -0.5138  0.2805
26226SOL     OW81309  10.154   7.928   9.744  0.0057  0.2696  0.0495
26226SOL    HW181310  10.150   7.886   9.658  2.2799  1.2546 -0.6027
26226SOL    HW281311  10.152   7.855   9.806  0.0513 -0.5659 -0.9111
26227SOL     OW81312   6.804   5.252  10.293 -0.1488  0.4111  0.1627
26227SOL    HW181313   6.734   5.314  10.273 -0.3377  0.3058  0.4828
26227SOL    HW281314   6.798   5.240  10.388 -0.3527 -0.3712  0.0589
26228SOL     OW81315   5.320   9.770   7.080  0.1388  0.0045 -0.0697
26228SOL    HW181316   5.409   9.734   7.082  0.0715 -0.1482  0.2491
26228SOL    HW281317   5.306   9.803   7.169  0.2418  0.9282 -0.3811
26229SOL     OW81318   2.711   1.270   5.968 -0.1593 -0.6243 -0.3412
26229SOL    HW181319   2.742   1.202   6.029 -0.8428  0.2930  1.0863
26229SOL    HW281320   2.633   1.232   5.928 -1.7264 -0.0314  1.9223
26230SOL     OW81321   4.433   0.316   2.062  0.0876 -0.0155  0.2863
26230SOL    HW181322   4.444   0.405   2.096 -2.9787  0.6342 -0.1277
26230SOL    HW281323   4.448   0.260   2.138 -1.5542  1.1159  1.5215
26231SOL     OW81324   0.810  10.318   6.442 -0.0809 -0.7710  0.0413
26231SOL    HW181325   0.798  10.280   6.529  1.9267 -0.6021  0.4403
26231SOL    HW281326   0.832  10.244   6.386  2.3099 -0.5083  0.5053
26232SOL     OW81327  10.058   0.882   1.955 -0.3018  0.2091  0.1715
26232SOL    HW181328  10.085   0.922   1.872  3.9648  0.1415  1.2853
26232SOL    HW281329  10.085   0.945   2.022 -0.6380 -1.1483  1.6422
26233SOL     OW81330   3.470   8.563   5.975  0.4580 -0.1305  0.2471
26233SOL    HW181331   3.400   8.505   6.006  1.8187 -1.7858  0.3209
26233SOL    HW281332   3.456   8.570   5.881  1.5149 -2.3548 -0.1157
26234SOL     OW81333   0.260   4.572   1.503  0.0929  0.6887  0.3078
26234SOL    HW181334   0.188   4.633   1.517  1.1826  1.5246  2.6316
26234SOL    HW281335   0.247   4.503   1.568 -1.3234 -1.9430 -2.4776
26235SOL     OW81336   0.416   4.876   4.845  0.1787  0.2830  0.0690
26235SOL    HW181337   0.479   4.841   4.782 -1.2693  0.9988 -1.9004
26235SOL    HW281338   0.334   4.829   4.825 -0.9444  2.3044 -0.3443
26236SOL     OW81339   9.631   3.024   0.571  0.5305 -0.2446  0.0535
26236SOL    HW181340   9.634   2.998   0.479 -0.0604 -0.4668  0.0953
26236SOL    HW281341   9.553   3.079   0.579 -0.1548 -1.2662  0.6776
26237SOL     OW81342   2.291   3.323   9.125 -0.2086  0.1628 -0.2016
26237SOL    HW181343   2.323   3.409   9.153 -1.2171  0.6429 -0.4948
26237SOL    HW281344   2.366   3.284   9.080  0.2688  0.8719 -0.0483
26238SOL     OW81345   2.516   8.597   0.993 -0.1223  0.0619  0.2310
26238SOL    HW181346   2.547   8.509   0.970 -2.4168 -1.1251  1.3181
26238SOL    HW281347   2.466   8.626   0.917 -0.8312 -0.3511  0.5289
26239SOL     OW81348   2.365   0.406   0.544  0.0889 -0.2069 -0.7036
26239SOL    HW181349   2.342   0.442   0.629  2.9943 -0.1674  0.1675
26239SOL    HW281350   2.324   0.466   0.481 -2.0159 -0.1836  0.6086
26240SOL     OW81351   4.939   7.919   7.328 -0.1179  0.1671 -0.1226
26240SOL    HW181352   4.847   7.938   7.312 -0.1139 -0.6157 -1.2204
26240SOL    HW281353   4.966   7.865   7.253  1.1945  0.2719  0.2404
26241SOL     OW81354   7.564   9.844   0.734 -0.0624  0.5907  0.0930
26241SOL    HW181355   7.503   9.909   0.768  1.2507  1.2430  1.2985
26241SOL    HW281356   7.536   9.762   0.775 -1.7834  0.2981 -1.5089
26242SOL     OW81357   8.039   8.681   1.977 -0.6214 -0.1863 -0.3840
26242SOL    HW181358   7.989   8.602   2.000 -2.2556  1.1692  1.0187
26242SOL    HW281359   7.980   8.730   1.920  0.3109  0.1374 -1.0938
26243SOL     OW81360   8.367   7.727   6.830 -0.5181 -0.0019 -0.8399
26243SOL    HW181361   8.327   7.693   6.749  1.0247 -1.4950 -1.0185
26243SOL    HW281362   8.316   7.687   6.900 -1.2944  0.5901 -1.0515
26244SOL     OW81363   9.976   1.742   0.648  0.3434  0.4572  0.4751
26244SOL    HW181364  10.045   1.722   0.584 -1.2733 -0.3575 -1.1209
26244SOL    HW281365   9.952   1.833   0.629 -0.8536 -0.1062 -0.8569
26245SOL     OW81366   8.290   2.972  10.019  0.4347 -0.3186 -0.7209
26245SOL    HW181367   8.274   3.066  10.028  3.2539  0.3967 -2.0886
26245SOL    HW281368   8.264   2.952   9.929 -1.5586 -1.2765 -0.0069
26246SOL     OW81369   2.700   0.600   6.918 -0.1640  0.7846  0.4265
26246SOL    HW181370   2.661   0.687   6.924 -0.8366  0.7031 -1.6353
26246SOL    HW281371   2.683   0.559   7.003 -0.8042  2.2732  1.0385
26247SOL     OW81372   8.136   5.318   8.935  0.1242 -0.6351  0.1368
26247SOL    HW181373   8.232   5.313   8.937  0.1492 -0.2283  0.0531
26247SOL    HW281374   8.114   5.376   9.008 -0.1613 -1.9919  1.1676
26248SOL     OW81375   0.384   8.378   1.049 -0.0414  1.0075 -0.0343
26248SOL    HW181376   0.317   8.376   0.980  0.3180 -1.8485 -0.4245
26248SOL    HW281377   0.378   8.292   1.091  0.9898  1.9955  2.3349
26249SOL     OW81378   1.773   8.619   7.319 -0.0615 -0.5459  0.2192
26249SOL    HW181379   1.868   8.609   7.321  0.0786  0.4818 -0.5407
26249SOL    HW281380   1.745   8.599   7.408  0.8512 -1.0202  0.4102
26250SOL     OW81381   3.667   4.367   1.402 -0.0514 -0.2426 -0.4724
26250SOL    HW181382   3.581   4.352   1.442  0.0550  1.9046  0.7311
26250SOL    HW281383   3.719   4.291   1.427 -0.9315 -0.4481  0.8110
26251SOL     OW81384   3.379   2.033   3.617 -0.6870  0.1145  0.5119
26251SOL    HW181385   3.437   2.091   3.665 -2.7471  0.7835  2.3672
26251SOL    HW281386   3.347   2.085   3.544  1.2362 -0.3976 -0.7951
26252SOL     OW81387   8.892   2.820   1.040  0.4028  0.4810 -0.1920
26252SOL    HW181388   8.815   2.854   1.086  0.9294  0.9656  0.3532
26252SOL    HW281389   8.965   2.870   1.076  1.0987 -0.6435  0.0007
26253SOL     OW81390   7.366   7.663   2.864  0.2436 -0.2139 -0.1904
26253SOL    HW181391   7.433   7.653   2.930  0.6097 -0.2346 -0.5626
26253SOL    HW281392   7.321   7.578   2.861 -0.4463  0.1001  0.7457
26254SOL     OW81393   5.575   9.989   5.354 -0.0539 -0.2969  0.2987
26254SOL    HW181394   5.592  10.064   5.412 -3.5228  0.9539 -0.0506
26254SOL    HW281395   5.579   9.913   5.411  1.2859  0.3921  1.1639
26255SOL     OW81396   0.166   7.262   2.275  0.3733 -0.2459  0.5453
26255SOL    HW181397   0.220   7.188   2.304  0.0462 -1.1531 -1.0444
26255SOL    HW281398   0.098   7.269   2.341  1.6217  0.0298  1.8518
26256SOL     OW81399   5.440   3.621   5.549 -0.4664 -0.3481  0.8698
26256SOL    HW181400   5.485   3.664   5.477 -0.0102 -0.9984  0.7540
26256SOL    HW281401   5.362   3.675   5.565 -1.0091 -0.6493 -0.6401
26257SOL     OW81402   6.157   5.648   8.068 -0.0357 -0.6225  0.3461
26257SOL    HW181403   6.131   5.630   8.158  0.2708  1.8689  1.0033
26257SOL    HW281404   6.084   5.698   8.032  0.7450  0.2019 -0.1113
26258SOL     OW81405   7.233   2.750   6.288  0.3299 -0.2008  0.3291
26258SOL    HW181406   7.306   2.719   6.235  0.2947  3.1541 -2.0319
26258SOL    HW281407   7.158   2.698   6.259  0.7045  0.2786 -1.5884
26259SOL     OW81408   7.230   6.650   5.946  0.4694 -0.0939  0.2611
26259SOL    HW181409   7.186   6.595   5.881  0.7342  1.7116 -1.5430
26259SOL    HW281410   7.303   6.690   5.898  1.3433  0.4985  1.9846
26260SOL     OW81411   4.673   5.059   0.780 -0.0554  0.6698 -0.0992
26260SOL    HW181412   4.596   5.067   0.837 -0.5085  1.2329 -0.7749
26260SOL    HW281413   4.664   4.973   0.740  1.4875 -0.7724  2.3849
26261SOL     OW81414   7.122   6.050   8.815  0.0444  0.3260 -0.5363
26261SOL    HW181415   7.096   5.960   8.834 -0.9956  1.0954  2.1585
26261SOL    HW281416   7.150   6.049   8.723  1.4180 -3.0119 -0.2021
26262SOL     OW81417   3.133   8.251   9.600 -0.1086 -0.0228  0.1307
26262SOL    HW181418   3.222   8.276   9.576  0.2937 -0.9114  0.6183
26262SOL    HW281419   3.077   8.313   9.554  0.7924  1.4266  0.8940
26263SOL     OW81420   7.338   1.877   3.748 -0.1289  0.3878 -0.3872
26263SOL    HW181421   7.413   1.889   3.690  1.3180 -0.0416  1.3060
26263SOL    HW281422   7.376   1.856   3.833 -2.1089  1.7923  0.9598
26264SOL     OW81423   7.488  10.085   3.226 -0.0683  0.9293 -0.1205
26264SOL    HW181424   7.540  10.087   3.146  0.4390 -1.0062  0.1156
26264SOL    HW281425   7.549  10.109   3.296  0.7747 -1.9347  0.2368
26265SOL     OW81426   9.481   4.342   5.015 -0.2177  0.0877  0.8997
26265SOL    HW181427   9.420   4.278   4.979 -2.3200  2.0776  0.6577
26265SOL    HW281428   9.526   4.378   4.939  4.0300 -3.6890  1.2362
26266SOL     OW81429  10.264   6.254   2.661  0.1368 -0.0283 -0.1715
26266SOL    HW181430  10.206   6.316   2.617 -0.1075 -0.6321 -0.7181
26266SOL    HW281431  10.218   6.233   2.742  0.5634  1.0463  0.3700
26267SOL     OW81432   4.504   0.950   4.870 -0.0145 -0.2587 -0.5258
26267SOL    HW181433   4.473   0.918   4.954 -0.7318 -0.0461 -0.7079
26267SOL    HW281434   4.483   1.044   4.871 -0.0311 -0.2560 -0.9420
26268SOL     OW81435   7.474   3.282   6.055 -0.2128 -0.1956 -0.6189
26268SOL    HW181436   7.495   3.354   5.995 -1.1136  0.0453 -0.6579
26268SOL    HW281437   7.558   3.237   6.069  0.2903  0.6396 -0.8791
26269SOL     OW81438   6.652   8.625   0.154 -0.4946 -0.1496 -0.0647
26269SOL    HW181439   6.708   8.594   0.226 -0.1258 -1.3135 -0.8304
26269SOL    HW281440   6.570   8.576   0.165 -0.3896 -0.4242 -0.5109
26270SOL     OW81441   7.981   0.679   9.051 -0.0204  0.2418 -0.1362
26270SOL    HW181442   7.954   0.604   9.104 -0.8170  1.1019  0.7126
26270SOL    HW281443   8.058   0.648   9.003 -0.7863 -1.3480 -0.3899
26271SOL     OW81444   2.591   3.844   6.244 -0.0842  0.3917  0.4797
26271SOL    HW181445   2.583   3.770   6.184  0.1835  0.4533  0.3657
26271SOL    HW281446   2.560   3.810   6.328  0.8881 -0.1353  0.6455
26272SOL     OW81447   8.071   4.731   1.054  0.0976 -0.1254 -0.4908
26272SOL    HW181448   8.144   4.671   1.066  0.3858  0.1497 -0.8512
26272SOL    HW281449   8.083   4.768   0.966 -0.9160 -0.6701 -0.8792
26273SOL     OW81450   8.597   1.224   0.540 -0.1636  0.3078  0.0755
26273SOL    HW181451   8.658   1.230   0.614 -0.6935 -0.5681  0.5986
26273SOL    HW281452   8.552   1.308   0.541 -0.4232  0.1726  0.9888
26274SOL     OW81453   5.301   2.667   5.449 -0.1458 -0.5033  0.3060
26274SOL    HW181454   5.368   2.599   5.456 -0.0123 -0.4163 -0.0786
26274SOL    HW281455   5.345   2.747   5.476 -1.0181 -0.9417  3.4561
26275SOL     OW81456   1.051   5.147   3.287 -0.1113  0.7589  0.0635
26275SOL    HW181457   1.102   5.172   3.210  0.8664  1.6945  0.9794
26275SOL    HW281458   0.966   5.189   3.274 -0.2016  0.3231 -0.8276
26276SOL     OW81459   0.577   6.098   8.640 -0.3326 -0.0870  0.2320
26276SOL    HW181460   0.533   6.175   8.602 -0.4448  0.2022  0.9309
26276SOL    HW281461   0.625   6.060   8.567 -0.2922  0.6375 -0.1361
26277SOL     OW81462   5.596   3.351   2.776  0.5044 -0.0635 -0.1004
26277SOL    HW181463   5.508   3.382   2.798  0.5046  0.1291 -0.3641
26277SOL    HW281464   5.643   3.431   2.751  0.4391 -0.2956 -1.0199
26278SOL     OW81465   6.882   7.788   8.084 -0.6224  0.1564  0.5075
26278SOL    HW181466   6.818   7.856   8.062 -0.3946  0.3173  0.3315
26278SOL    HW281467   6.847   7.708   8.045  0.1138  0.5582 -1.0719
26279SOL     OW81468   5.790   7.979   3.477 -0.0864 -0.0597 -0.5780
26279SOL    HW181469   5.844   7.951   3.551 -0.3127 -1.5520 -0.9456
26279SOL    HW281470   5.765   7.898   3.434 -1.8062  0.6453 -0.9941
26280SOL     OW81471   2.650   5.322   0.049  0.6308  0.4229 -0.2153
26280SOL    HW181472   2.680   5.362   0.131 -1.2494  1.8187 -0.1384
26280SOL    HW281473   2.572   5.272   0.074  0.1853  0.6509 -1.0944
26281SOL     OW81474   3.090   0.657   9.090  0.7844 -0.4660 -0.0469
26281SOL    HW181475   3.040   0.730   9.127 -0.6957 -1.7903  0.7013
26281SOL    HW281476   3.110   0.684   9.000 -0.3605  0.5549 -0.0116
26282SOL     OW81477   9.840   8.689   0.163 -0.2833 -0.2304 -0.1133
26282SOL    HW181478   9.868   8.749   0.233  2.8002  0.2411 -1.6069
26282SOL    HW281479   9.828   8.605   0.207  0.2239  0.3488  1.1919
26283SOL     OW81480   9.785   9.003   4.087 -0.7549  0.2272  0.4732
26283SOL    HW181481   9.726   9.018   4.161  0.2575  3.1726  0.8041
26283SOL    HW281482   9.747   9.054   4.016 -1.5285 -2.3004 -1.0476
26284SOL     OW81483   5.192   9.792   6.849  0.1066 -0.4550  0.0977
26284SOL    HW181484   5.113   9.845   6.838 -0.7958 -1.6841  0.3587
26284SOL    HW281485   5.206   9.788   6.944  0.1333 -0.7205  0.0842
26285SOL     OW81486   5.995   0.946   6.951  0.0898 -0.0196 -0.6279
26285SOL    HW181487   5.956   0.996   7.023 -1.0852 -0.5103 -0.9021
26285SOL    HW281488   6.057   0.888   6.994 -1.4691 -1.1694  0.1793
26286SOL     OW81489   3.033  10.316   3.014  0.0743  0.8097  0.2145
26286SOL    HW181490   2.971  10.312   3.087 -0.5077  2.6662 -0.1319
26286SOL    HW281491   3.094  10.385   3.038  0.5874  0.6359 -0.5493
26287SOL     OW81492   8.334   7.924   4.863 -0.3380 -0.3185  0.2378
26287SOL    HW181493   8.359   7.854   4.803 -1.3281 -1.1439  0.7584
26287SOL    HW281494   8.405   7.988   4.856 -1.0279  0.2620 -2.7786
26288SOL     OW81495   8.869   1.654   3.395 -0.1311 -0.2512 -0.5281
26288SOL    HW181496   8.798   1.700   3.351 -0.7288 -1.1506 -0.5107
26288SOL    HW281497   8.926   1.623   3.324  0.6917  1.1477 -0.5137
26289SOL     OW81498   2.431   9.208   6.367  0.0106 -0.4806 -0.5682
26289SOL    HW181499   2.357   9.258   6.332  0.9721  1.3561 -0.1150
26289SOL    HW281500   2.479   9.180   6.290  0.3403  0.7457 -0.8384
26290SOL     OW81501   0.879   6.808   6.066 -0.9508 -0.1169 -0.1752
26290SOL    HW181502   0.939   6.735   6.053  0.2869  0.7780  0.2891
26290SOL    HW281503   0.821   6.780   6.137  0.3492 -0.1718  0.8948
26291SOL     OW81504   4.033   1.782   2.697 -0.3603  0.0844  0.4437
26291SOL    HW181505   4.108   1.727   2.672 -0.7200 -0.6381  0.9254
26291SOL    HW281506   4.036   1.786   2.792 -0.1034  1.2594  0.4067
26292SOL     OW81507   1.563   3.144   0.714  0.9293  0.3069 -0.0753
26292SOL    HW181508   1.629   3.211   0.698  1.1003 -0.2618 -1.9963
26292SOL    HW281509   1.608   3.079   0.768  1.9892 -0.0696 -1.3492
26293SOL     OW81510   6.359   1.041   0.386  0.1679  0.1210 -0.0926
26293SOL    HW181511   6.414   1.030   0.463 -0.1579 -0.1513  0.1009
26293SOL    HW281512   6.400   1.113   0.338  1.0357 -0.4648 -0.2527
26294SOL     OW81513   0.921   2.959   0.276  0.9387 -0.1321  0.2857
26294SOL    HW181514   0.870   3.036   0.251  0.3610 -0.8738 -0.9129
26294SOL    HW281515   1.009   2.993   0.292  0.0345  1.2701  2.9293
26295SOL     OW81516   6.651   4.506   4.301  0.9082  0.3693 -0.0099
26295SOL    HW181517   6.744   4.488   4.294  1.1312  1.5281 -0.2141
26295SOL    HW281518   6.628   4.546   4.216  0.0497 -0.6473 -0.2733
26296SOL     OW81519  10.338   7.448   8.133 -0.0352 -0.2109  0.4159
26296SOL    HW181520  10.343   7.363   8.178 -1.0526 -0.7315 -0.4056
26296SOL    HW281521  10.361   7.512   8.201  1.9203 -1.1868  0.7523
26297SOL     OW81522   1.051   4.625   7.881 -0.3166  0.6914  0.1456
26297SOL    HW181523   1.084   4.668   7.960  0.4582 -0.4602  0.4733
26297SOL    HW281524   1.126   4.577   7.847 -1.4604 -1.5971  0.6316
26298SOL     OW81525   9.580   1.137  10.274  0.3994 -0.7931 -0.0992
26298SOL    HW181526   9.652   1.190  10.309 -2.2730  2.0406  1.6849
26298SOL    HW281527   9.558   1.077  10.346  0.2001 -0.7812 -0.1504
26299SOL     OW81528   0.154   2.423   4.345  0.1065 -0.0757  0.3599
26299SOL    HW181529   0.130   2.515   4.335 -1.2349 -0.5199 -0.7426
26299SOL    HW281530   0.232   2.413   4.290  0.2432  0.3828  0.4621
26300SOL     OW81531   4.757   7.428   4.301  0.8507  0.4690 -0.4663
26300SOL    HW181532   4.811   7.468   4.233  0.6196 -0.8539 -1.4596
26300SOL    HW281533   4.820   7.379   4.355  0.9049  0.6468 -0.3682
26301SOL     OW81534   6.521   8.426   5.608 -0.8518 -0.5930 -0.1072
26301SOL    HW181535   6.600   8.480   5.596 -0.7208 -0.6096  0.6211
26301SOL    HW281536   6.461   8.483   5.657 -1.8463 -0.0775 -1.8320
26302SOL     OW81537  10.258   9.511   2.624  0.2618  0.3713  0.2608
26302SOL    HW181538  10.190   9.463   2.577  0.5370  1.0062 -0.8000
26302SOL    HW281539  10.212   9.549   2.699 -0.6394  1.0766 -0.6247
26303SOL     OW81540   4.235   9.132   2.400 -0.1751  0.4310  0.0232
26303SOL    HW181541   4.155   9.141   2.348 -1.1843 -1.4735  1.1394
26303SOL    HW281542   4.288   9.069   2.351 -0.7675 -0.7229  0.8085
26304SOL     OW81543   0.514   0.949   8.840 -0.0134 -0.4271  0.4624
26304SOL    HW181544   0.590   0.911   8.796  1.4127 -0.9166  3.0883
26304SOL    HW281545   0.546   1.034   8.872 -1.1665  0.1668  0.0776
26305SOL     OW81546   9.772   3.728   3.074 -0.0651 -0.3196 -0.1033
26305SOL    HW181547   9.836   3.700   3.139  0.6733 -1.1872 -1.1668
26305SOL    HW281548   9.824   3.761   3.001 -0.8846  1.1347 -0.0775
26306SOL     OW81549   6.626   1.219   7.642  0.7314  0.4758 -0.1929
26306SOL    HW181550   6.574   1.243   7.719  2.2149 -0.9498  1.3210
26306SOL    HW281551   6.563   1.173   7.585 -0.1714  0.7131  0.5822
26307SOL     OW81552   3.381   2.209   4.783 -0.2012  0.6648  0.0747
26307SOL    HW181553   3.412   2.298   4.766  0.5247  0.1391 -1.5846
26307SOL    HW281554   3.319   2.191   4.713  0.3559 -0.4416 -0.1752
26308SOL     OW81555   1.965   5.772   2.245 -0.4860 -0.3362 -0.1335
26308SOL    HW181556   2.000   5.712   2.310  0.5564  0.5194  0.1372
26308SOL    HW281557   1.942   5.851   2.294 -0.4187  0.0340 -0.6749
26309SOL     OW81558   9.634   9.156   1.667 -0.1649  0.0395  0.1460
26309SOL    HW181559   9.717   9.144   1.713  0.6968  1.9689 -0.8210
26309SOL    HW281560   9.650   9.124   1.578 -0.2436  1.0335 -0.2321
26310SOL     OW81561   2.408   5.105   3.958  0.3045  0.4836  0.2613
26310SOL    HW181562   2.483   5.107   4.017  1.6915  0.1337 -1.3943
26310SOL    HW281563   2.346   5.046   4.000  2.1672 -1.5382  0.3863
26311SOL     OW81564   9.277   5.937   3.849  0.1460  0.6226  0.0762
26311SOL    HW181565   9.236   5.972   3.927 -1.5896  0.3639 -0.6699
26311SOL    HW281566   9.231   5.979   3.776 -0.9066 -1.8900 -0.8411
26312SOL     OW81567   1.480   5.975   9.404  0.2333  0.1851 -0.2629
26312SOL    HW181568   1.484   6.064   9.439  0.1567 -0.2859  1.0172
26312SOL    HW281569   1.456   5.921   9.479 -2.2589 -0.6296 -1.5582
26313SOL     OW81570   3.513   0.294   3.703 -0.2402 -0.0444  0.0268
26313SOL    HW181571   3.539   0.329   3.618 -0.5566  1.3494  0.4857
26313SOL    HW281572   3.596   0.285   3.751 -0.3451  3.8202  1.2713
26314SOL     OW81573   9.278   4.850   7.859  0.4264 -0.2823  0.1757
26314SOL    HW181574   9.318   4.763   7.867 -1.9933 -1.3909  1.0923
26314SOL    HW281575   9.189   4.838   7.892  0.2215  2.7162  0.9255
26315SOL     OW81576   3.095   4.276   2.864  0.1897  0.1253 -0.1442
26315SOL    HW181577   3.139   4.324   2.794 -0.3315  1.3898  0.3708
26315SOL    HW281578   3.130   4.313   2.945  0.3993 -0.9554  0.2851
26316SOL     OW81579   4.468   8.602   3.400  0.0983  0.7190  0.1628
26316SOL    HW181580   4.538   8.617   3.336  0.6976 -0.0858  0.6189
26316SOL    HW281581   4.477   8.674   3.463  1.3039 -0.0406  0.8917
26317SOL     OW81582   5.895   4.795   5.746 -0.0019 -0.1786  0.0671
26317SOL    HW181583   5.870   4.748   5.666 -0.8298  1.2536 -0.5695
26317SOL    HW281584   5.884   4.731   5.816  0.1054 -1.2759 -0.8900
26318SOL     OW81585   2.093   8.653   9.243 -0.4418 -0.7083  0.1056
26318SOL    HW181586   2.069   8.599   9.168 -0.4814  1.7581 -1.8037
26318SOL    HW281587   2.186   8.636   9.257 -1.0573 -3.4639  1.5979
26319SOL     OW81588   2.831   7.940   5.690  0.1281 -0.1190  0.1111
26319SOL    HW181589   2.905   7.942   5.751  0.3073  0.5793 -0.1259
26319SOL    HW281590   2.856   7.874   5.625  0.3536 -0.1895  0.2665
26320SOL     OW81591   0.236   3.730   7.350  0.2758  0.0820 -0.0142
26320SOL    HW181592   0.275   3.646   7.376  1.1946  0.9774  1.7564
26320SOL    HW281593   0.311   3.790   7.346 -0.5038  1.0663 -0.0915
26321SOL     OW81594   8.709   5.225   5.471  0.0247 -0.5618  0.4174
26321SOL    HW181595   8.624   5.186   5.451 -0.4168  0.3863  0.4271
26321SOL    HW281596   8.772   5.157   5.448 -0.6315 -0.5801 -1.4877
26322SOL     OW81597   9.050   3.505   2.013  0.6584  0.0801 -0.1416
26322SOL    HW181598   8.977   3.559   2.042  0.8319  0.3449 -0.1968
26322SOL    HW281599   9.110   3.503   2.088  1.2940  1.0893 -0.5994
26323SOL     OW81600   2.720   6.976   5.953  0.2794  0.2799 -0.7125
26323SOL    HW181601   2.744   7.056   6.000  0.2202  0.2632 -0.6534
26323SOL    HW281602   2.789   6.914   5.973  0.1157  0.1870 -0.4311
26324SOL     OW81603   8.550   2.355   9.371 -0.6916  0.3167  0.0078
26324SOL    HW181604   8.573   2.444   9.342  2.3748  0.2344  1.7891
26324SOL    HW281605   8.512   2.368   9.458 -0.4751 -0.1223  0.1655
26325SOL     OW81606   1.640   6.135   6.690  0.4577  0.1303 -1.1242
26325SOL    HW181607   1.657   6.046   6.723 -1.4853 -0.2772 -1.1363
26325SOL    HW281608   1.710   6.188   6.728  0.5230 -1.0474  0.5118
26326SOL     OW81609   1.578   6.257   2.015 -0.0886 -0.6705 -0.5984
26326SOL    HW181610   1.526   6.176   2.018 -2.0926  0.5845  0.9110
26326SOL    HW281611   1.516   6.325   1.988  0.8974  0.7842  0.6323
26327SOL     OW81612   8.455   3.092   8.991  0.1823  0.7255  0.5417
26327SOL    HW181613   8.501   3.060   9.069  1.8539 -1.1660 -1.0787
26327SOL    HW281614   8.363   3.074   9.008  0.4797  0.6004  2.1736
26328SOL     OW81615   4.314   8.801   9.105 -0.1951  1.0716  0.7279
26328SOL    HW181616   4.243   8.809   9.041  0.5350 -1.4120 -0.5315
26328SOL    HW281617   4.385   8.854   9.069 -0.9924  2.6746  1.4326
26329SOL     OW81618   0.578   8.135   9.838  0.0414  0.0369  0.1347
26329SOL    HW181619   0.611   8.103   9.755  0.3699 -0.9341  0.6261
26329SOL    HW281620   0.648   8.116   9.901  0.2338  1.6719  0.4714
26330SOL     OW81621   7.755   2.688   0.822 -0.2818  0.0122 -0.0887
26330SOL    HW181622   7.800   2.612   0.783 -0.3135  0.0287 -0.1580
26330SOL    HW281623   7.677   2.699   0.768 -0.2989  0.0686 -0.0527
26331SOL     OW81624   3.239   6.940   3.470 -0.3145 -0.2176  0.2115
26331SOL    HW181625   3.181   6.947   3.394  0.5809  0.4807 -0.4238
26331SOL    HW281626   3.183   6.905   3.539 -0.9038 -1.9213 -1.0402
26332SOL     OW81627   8.131   8.252   7.698  0.3283  0.6585 -0.1725
26332SOL    HW181628   8.216   8.296   7.700  1.0008 -0.6081  0.1562
26332SOL    HW281629   8.072   8.316   7.659  1.8978  0.8179 -2.5445
26333SOL     OW81630   8.880   7.891   2.976 -0.5886  0.6455  0.0799
26333SOL    HW181631   8.910   7.943   2.901  0.2555 -1.5225 -1.1521
26333SOL    HW281632   8.784   7.898   2.972 -0.5088  1.8465 -0.2107
26334SOL     OW81633   4.827  10.072   2.181 -0.4749 -0.0152  0.0862
26334SOL    HW181634   4.876  10.052   2.261  0.4799  1.6550 -0.0353
26334SOL    HW281635   4.747  10.113   2.212 -1.6788 -2.3293  0.2656
26335SOL     OW81636  10.274   3.416   3.412  0.1671 -0.0989 -0.2912
26335SOL    HW181637  10.291   3.380   3.325  1.2384  0.0132 -0.1383
26335SOL    HW281638  10.314   3.355   3.473  0.0762  0.2127  0.0891
26336SOL     OW81639  10.072   1.620   4.626  0.4309 -0.1176 -0.0526
26336SOL    HW181640  10.136   1.688   4.604 -0.4718  0.3488 -1.3725
26336SOL    HW281641  10.037   1.592   4.542 -0.1135 -1.3496  0.5626
26337SOL     OW81642   3.835   1.559   0.422 -0.2559 -0.2475 -0.1154
26337SOL    HW181643   3.772   1.557   0.493 -1.0278  0.8857 -0.7461
26337SOL    HW281644   3.882   1.641   0.432  0.3446 -0.5583 -0.3120
26338SOL     OW81645   6.674   6.866   4.135  0.0395  1.0096  0.3915
26338SOL    HW181646   6.663   6.892   4.227  1.1063  2.0921  0.2275
26338SOL    HW281647   6.589   6.829   4.111  0.4269 -1.5493  2.4866
26339SOL     OW81648   2.882   0.085   7.387 -0.2443  0.0930 -0.2161
26339SOL    HW181649   2.943   0.011   7.376 -0.5838 -0.2420  0.1298
26339SOL    HW281650   2.798   0.044   7.405 -0.5927  0.5533 -0.7371
26340SOL     OW81651   3.077   8.537   8.009 -0.0413  0.2510  0.3598
26340SOL    HW181652   3.007   8.495   7.959  0.4655  0.5215 -0.5961
26340SOL    HW281653   3.154   8.531   7.952  0.0148  2.6575  0.0890
26341SOL     OW81654   8.273   1.931   8.683 -0.0893  0.7997  0.6920
26341SOL    HW181655   8.298   1.966   8.768  2.3869 -1.3921  1.0035
26341SOL    HW281656   8.327   1.979   8.620 -0.6675  1.2559  0.5441
26342SOL     OW81657   2.076   6.333   8.668 -0.1846 -0.3027 -0.4830
26342SOL    HW181658   2.030   6.257   8.703  2.1011 -1.3330  0.4992
26342SOL    HW281659   2.007   6.389   8.632 -2.0706 -2.1161  0.1340
26343SOL     OW81660   5.419   9.178   5.515  0.0230  0.5742  0.7234
26343SOL    HW181661   5.336   9.188   5.467 -1.0616 -2.3763  1.7754
26343SOL    HW281662   5.454   9.094   5.485  2.1890  1.3149  1.0332
26344SOL     OW81663   3.881   0.164   4.889  0.0328 -0.3385 -0.6528
26344SOL    HW181664   3.975   0.178   4.900  0.1248 -1.2125 -0.2135
26344SOL    HW281665   3.873   0.128   4.800 -0.0328  0.9082 -1.1660
26345SOL     OW81666   6.793   1.779   4.655  0.3982  0.1312 -0.6149
26345SOL    HW181667   6.792   1.684   4.670  2.3922  0.3543  1.5890
26345SOL    HW281668   6.717   1.812   4.703  0.9565 -0.1907  0.5292
26346SOL     OW81669   6.313   7.207   3.070 -0.5508 -0.0225 -0.1220
26346SOL    HW181670   6.279   7.212   3.159 -0.1534  0.2374  0.0180
26346SOL    HW281671   6.408   7.210   3.081 -0.5233  1.1476 -0.6356
26347SOL     OW81672   1.164   4.988   0.652 -0.8382 -0.1099 -0.4983
26347SOL    HW181673   1.161   4.919   0.718 -1.3620  0.1609 -0.2350
26347SOL    HW281674   1.249   4.976   0.609 -0.2672  0.0162  0.5533
26348SOL     OW81675   9.633   8.783   6.707 -0.2726  0.3321 -0.7287
26348SOL    HW181676   9.670   8.863   6.745 -0.3269  0.3051 -0.6219
26348SOL    HW281677   9.544   8.778   6.743  0.2567 -0.6114  0.4681
26349SOL     OW81678   9.682   9.876   6.738 -0.6872 -0.0144  0.2426
26349SOL    HW181679   9.708   9.932   6.812 -0.8151  0.7631 -0.2865
26349SOL    HW281680   9.763   9.858   6.692 -0.7282  0.2417  0.0696
26350SOL     OW81681   9.035   5.075   1.867 -0.1406 -0.3674 -0.1372
26350SOL    HW181682   9.103   5.138   1.889  0.4337 -1.4341  1.2663
26350SOL    HW281683   8.978   5.073   1.944 -0.2800 -1.3781 -0.2522
26351SOL     OW81684   1.331   4.672   3.971  0.1333  0.1769 -0.1037
26351SOL    HW181685   1.292   4.623   4.043 -0.4250  0.7085 -0.0286
26351SOL    HW281686   1.267   4.742   3.953  0.4452  0.2774 -0.8556
26352SOL     OW81687   3.910   9.583   1.989 -0.5661  0.3317 -0.3293
26352SOL    HW181688   3.868   9.503   2.023  0.5253 -0.3756 -0.5815
26352SOL    HW281689   3.869   9.597   1.904 -1.3454  0.5165  0.0673
26353SOL     OW81690   4.524   4.512   0.373 -0.0590  0.2203 -0.6425
26353SOL    HW181691   4.510   4.604   0.395  0.4156 -0.2353  1.8969
26353SOL    HW281692   4.442   4.486   0.330 -0.0712  1.8627 -1.7331
26354SOL     OW81693   1.503   0.444   3.445  0.1573  0.3667  0.2937
26354SOL    HW181694   1.497   0.481   3.533  0.1110  1.4459 -0.1499
26354SOL    HW281695   1.566   0.373   3.454 -0.4272 -0.0492  1.3623
26355SOL     OW81696   9.669   9.218   9.890 -0.2109 -0.0377  0.1089
26355SOL    HW181697   9.723   9.270   9.950  0.4209 -0.5186 -0.0412
26355SOL    HW281698   9.682   9.258   9.804  0.8055 -0.8342 -0.1273
26356SOL     OW81699   9.951   1.098   7.091 -0.3808  0.2563  0.0306
26356SOL    HW181700   9.872   1.048   7.069 -0.3692  0.3071 -0.1272
26356SOL    HW281701  10.004   1.038   7.142  0.6721 -0.7022 -2.0831
26357SOL     OW81702   8.594   5.812   0.149 -0.1548 -0.0837  0.3241
26357SOL    HW181703   8.538   5.813   0.227  0.0063  0.2102  0.4419
26357SOL    HW281704   8.680   5.787   0.182 -0.0522  0.1851  0.2685
26358SOL     OW81705   5.753   1.773   1.807  0.7072 -0.2436  0.3275
26358SOL    HW181706   5.769   1.681   1.786  0.6031  0.2840 -2.3726
26358SOL    HW281707   5.829   1.819   1.772  0.7350  0.7553  1.6097
26359SOL     OW81708   6.316   7.711   8.974  0.2188 -0.0121  0.3022
26359SOL    HW181709   6.363   7.644   8.924 -0.6566 -0.7642  0.4624
26359SOL    HW281710   6.318   7.788   8.918 -0.2594 -0.6787 -0.6738
26360SOL     OW81711   2.877   3.570   2.230  0.0282  0.5127  0.0183
26360SOL    HW181712   2.874   3.658   2.268 -0.2136  0.7892 -0.6207
26360SOL    HW281713   2.873   3.585   2.136 -0.5846 -0.2177 -0.0779
26361SOL     OW81714   4.778   8.711   0.696  0.0691  0.1137 -0.0147
26361SOL    HW181715   4.850   8.763   0.732  1.2739 -0.8048 -1.0412
26361SOL    HW281716   4.740   8.767   0.628 -0.2985  0.6436  0.6047
26362SOL     OW81717   0.631   4.969   6.977  0.1143 -0.6307 -0.2067
26362SOL    HW181718   0.645   4.988   6.884  2.0146 -2.7902 -0.4317
26362SOL    HW281719   0.696   5.023   7.022 -1.2501  0.9402  0.0169
26363SOL     OW81720   9.367   2.806   1.290  0.0467  0.1272 -0.1273
26363SOL    HW181721   9.319   2.869   1.344 -3.2615 -0.0002 -2.6198
26363SOL    HW281722   9.308   2.731   1.283  1.7382 -1.1698 -1.3409
26364SOL     OW81723   4.042   5.800   9.376  0.4439 -0.2555 -0.0645
26364SOL    HW181724   4.121   5.763   9.336  0.1713 -1.3607  0.3839
26364SOL    HW281725   4.074   5.866   9.438  1.1759 -2.1885  1.7210
26365SOL     OW81726   3.907   0.117   6.134  0.0471  0.2469  0.2269
26365SOL    HW181727   3.911   0.210   6.156  1.2854  1.0279 -2.8399
26365SOL    HW281728   3.988   0.080   6.170  0.3600  0.7337  0.0313
26366SOL     OW81729   4.242   5.020   9.586 -0.1557  0.0256 -0.2294
26366SOL    HW181730   4.233   4.965   9.509  0.6538  0.1660 -0.4402
26366SOL    HW281731   4.325   5.066   9.572  0.0876 -0.0796  0.8023
26367SOL     OW81732   1.297   8.719   0.446 -0.1966 -0.6568  0.4281
26367SOL    HW181733   1.242   8.747   0.373  0.6510  0.8841  0.3557
26367SOL    HW281734   1.386   8.717   0.410  0.1997 -0.1231  1.3409
26368SOL     OW81735   7.723   8.552   0.604 -0.7088 -0.0067  0.1413
26368SOL    HW181736   7.734   8.572   0.511 -0.3513 -0.6483  0.0327
26368SOL    HW281737   7.748   8.459   0.611  1.7070  0.6445  1.2717
26369SOL     OW81738   3.810  10.341   5.124  0.1207 -0.2612 -0.4225
26369SOL    HW181739   3.838  10.361   5.034  0.6214 -0.0869 -0.2302
26369SOL    HW281740   3.823  10.422   5.172  1.1128 -0.7088  0.1056
26370SOL     OW81741   4.890   3.020   1.634 -0.3396  0.4495  0.6922
26370SOL    HW181742   4.847   3.080   1.695  0.2285  1.4181  0.1590
26370SOL    HW281743   4.866   3.052   1.547 -2.3707 -1.7825  0.3158
26371SOL     OW81744   3.726   9.485   9.349 -0.4405 -0.2577  0.4172
26371SOL    HW181745   3.756   9.402   9.312  1.9640  0.9962 -0.6205
26371SOL    HW281746   3.672   9.524   9.280  0.7664  0.2899 -0.2336
26372SOL     OW81747   0.834   6.560  10.033  0.6999 -0.1219  0.6499
26372SOL    HW181748   0.868   6.643  10.001  0.3137 -0.2234 -0.0461
26372SOL    HW281749   0.831   6.570  10.128 -0.5549  1.1344  0.5120
26373SOL     OW81750   0.685   4.973  10.029  0.0551 -0.4951  0.2818
26373SOL    HW181751   0.780   4.972  10.035  0.0773 -0.6681 -0.0927
26373SOL    HW281752   0.659   4.881  10.026 -0.2387 -0.5015  2.0329
26374SOL     OW81753   6.517   5.450   7.716 -0.4762 -0.0224 -0.0145
26374SOL    HW181754   6.596   5.402   7.742  1.0933  2.2006 -0.3551
26374SOL    HW281755   6.462   5.451   7.794  0.6630 -0.0856  0.8061
26375SOL     OW81756   1.950   7.730  10.038 -0.4847 -0.7696  0.3749
26375SOL    HW181757   1.995   7.727   9.953 -0.6561  0.0789  0.2486
26375SOL    HW281758   1.948   7.639  10.066 -1.3782 -1.2181 -1.0272
26376SOL     OW81759   7.059   9.303   5.886  0.7863  0.2615 -0.3912
26376SOL    HW181760   7.129   9.308   5.821  0.6180 -1.1006 -0.7227
26376SOL    HW281761   7.091   9.240   5.951  0.9240  1.5604  0.8506
26377SOL     OW81762   3.964  10.170   8.041  0.1147 -0.0315 -0.1510
26377SOL    HW181763   3.887  10.113   8.044 -1.0373  1.4727  2.3783
26377SOL    HW281764   4.037  10.113   8.065 -0.2054 -1.4086 -2.2572
26378SOL     OW81765   7.471   9.586   5.652 -0.4563  0.4483  0.5733
26378SOL    HW181766   7.452   9.495   5.673 -0.5708  0.7544  1.8943
26378SOL    HW281767   7.411   9.637   5.706 -0.4145  1.3166 -0.1630
26379SOL     OW81768   7.338   2.384   8.952 -0.4388 -0.3056  0.2408
26379SOL    HW181769   7.377   2.413   9.035  0.1619  1.5713 -0.6220
26379SOL    HW281770   7.283   2.458   8.925  0.7944 -0.0930 -1.8813
26380SOL     OW81771   7.969   4.932   7.981 -0.0972  0.5396  0.4602
26380SOL    HW181772   8.054   4.965   7.951 -0.7425  1.0502 -0.8609
26380SOL    HW281773   7.905   4.996   7.949 -1.2662 -1.3382 -1.1291
26381SOL     OW81774   0.563   7.095   0.968 -0.5694 -0.0875 -0.0480
26381SOL    HW181775   0.541   7.154   1.040  0.3470  0.5817 -0.2950
26381SOL    HW281776   0.595   7.153   0.899 -2.3556 -0.6076 -1.3927
26382SOL     OW81777   9.821   0.987   1.560  0.4389  0.0710 -0.3164
26382SOL    HW181778   9.826   1.058   1.624  0.6725 -1.7085  1.7514
26382SOL    HW281779   9.730   0.989   1.530  0.7166  1.9272 -1.2040
26383SOL     OW81780   1.263   1.559   7.545 -0.2053 -0.0204 -0.1475
26383SOL    HW181781   1.296   1.630   7.601 -1.7714  1.8481 -1.4572
26383SOL    HW281782   1.312   1.568   7.463 -0.1969 -0.6600 -0.2169
26384SOL     OW81783   8.107   9.021   3.656 -0.3667  0.3517 -0.8281
26384SOL    HW181784   8.165   9.097   3.656 -1.0940  0.9816  1.4805
26384SOL    HW281785   8.159   8.951   3.616  0.5537  1.8595 -2.4025
26385SOL     OW81786   0.443   4.958   8.457  0.0051 -0.4969 -0.0726
26385SOL    HW181787   0.435   4.999   8.543 -1.4270  1.2259 -0.9392
26385SOL    HW281788   0.358   4.916   8.443 -1.1186  2.0753 -1.8919
26386SOL     OW81789   8.907   5.436   3.635  0.0578  0.4920  0.9882
26386SOL    HW181790   8.864   5.503   3.582 -0.9873  1.6629  3.2086
26386SOL    HW281791   8.837   5.398   3.688  0.8081 -1.6873  0.5589
26387SOL     OW81792   0.593   0.478   2.885  0.5547  0.4858  0.0680
26387SOL    HW181793   0.663   0.457   2.823  0.1204  0.0591 -0.2907
26387SOL    HW281794   0.567   0.393   2.921 -0.8962  0.4032 -1.0401
26388SOL     OW81795   7.444   7.633   9.300 -0.1361 -0.3877 -0.1221
26388SOL    HW181796   7.429   7.725   9.282  0.8874  0.3277  2.2728
26388SOL    HW281797   7.506   7.604   9.233 -2.4157 -0.1240 -2.5009
26389SOL     OW81798   1.027   5.765   7.506 -0.0000  0.2274  0.5780
26389SOL    HW181799   0.983   5.700   7.451  1.4716 -1.0627  0.8694
26389SOL    HW281800   0.978   5.846   7.490 -2.8095 -1.2043  1.3267
26390SOL     OW81801   8.462   7.019   5.530 -0.0840  0.1341 -0.1019
26390SOL    HW181802   8.432   6.930   5.512  0.3284 -0.0352  0.0320
26390SOL    HW281803   8.457   7.027   5.626  0.2814  0.1085 -0.0798
26391SOL     OW81804   2.039   4.335   5.068 -0.3026 -0.2247  0.5738
26391SOL    HW181805   2.099   4.397   5.026 -0.3838 -0.0158  0.7658
26391SOL    HW281806   2.031   4.263   5.005 -0.8610  0.3374 -0.0120
26392SOL     OW81807   0.234   2.566   7.652  0.4240  0.1623  0.8059
26392SOL    HW181808   0.198   2.654   7.664  0.4948  0.5286 -1.2827
26392SOL    HW281809   0.157   2.509   7.652  0.2594  0.3820  0.8170
26393SOL     OW81810   1.929   2.884   7.768 -0.1582  0.5707 -0.5652
26393SOL    HW181811   1.851   2.847   7.810 -1.3024  2.4661 -0.8994
26393SOL    HW281812   1.921   2.978   7.781  2.5467  0.7952  0.1288
26394SOL     OW81813   1.433   7.976   5.414  0.1333 -0.5814 -0.0336
26394SOL    HW181814   1.528   7.985   5.418  0.0861 -0.2958  0.3955
26394SOL    HW281815   1.399   8.064   5.428 -0.2175 -0.7960  0.4995
26395SOL     OW81816   5.724   1.139   0.230  0.0021  0.0162  0.4866
26395SOL    HW181817   5.658   1.153   0.162 -3.5535  0.0570  3.5823
26395SOL    HW281818   5.735   1.226   0.270 -1.1586 -0.6677  2.4355
26396SOL     OW81819   4.425   6.648   5.197  0.4878 -0.3364  0.1615
26396SOL    HW181820   4.476   6.652   5.116 -0.0351 -0.7382 -0.1981
26396SOL    HW281821   4.470   6.583   5.251 -1.3557 -3.1679 -1.4330
26397SOL     OW81822   9.169   8.951   0.900 -0.8818  0.3449  0.1283
26397SOL    HW181823   9.079   8.956   0.933 -0.8662  3.8188  0.0674
26397SOL    HW281824   9.224   8.952   0.978 -0.8855 -0.6094  0.1448
26398SOL     OW81825   6.265   9.408   3.319  0.4466  0.1056 -0.0764
26398SOL    HW181826   6.271   9.444   3.231 -0.5305 -0.8607 -0.5517
26398SOL    HW281827   6.201   9.464   3.364 -1.4703 -1.2634 -0.9718
26399SOL     OW81828   2.663   2.631   7.111 -0.2781  0.6693 -0.4245
26399SOL    HW181829   2.739   2.575   7.101 -0.3683  0.9836 -4.7643
26399SOL    HW281830   2.689   2.715   7.073 -2.2547  1.2949 -0.5370
26400SOL     OW81831   8.007   5.450   6.555 -0.1391 -0.0705  0.3100
26400SOL    HW181832   7.933   5.391   6.569 -0.7195  0.5197 -0.1976
26400SOL    HW281833   8.007   5.466   6.460 -0.5040  1.3963  0.5364
26401SOL     OW81834   2.355   3.016   9.965  1.4324 -0.0055  0.3045
26401SOL    HW181835   2.299   3.083  10.005  1.6601  0.5184 -0.2349
26401SOL    HW281836   2.323   3.009   9.875  2.6546  0.7986 -0.2218
26402SOL     OW81837   1.887   7.068   7.174  0.3923 -0.6108  0.4881
26402SOL    HW181838   1.935   7.055   7.256 -0.0443  0.6626  0.9660
26402SOL    HW281839   1.918   7.152   7.141  0.0007 -0.7564 -0.2727
26403SOL     OW81840   7.541   2.581   6.517  0.5272  0.9378 -0.3527
26403SOL    HW181841   7.627   2.603   6.553  0.9000 -0.2080 -0.4910
26403SOL    HW281842   7.560   2.519   6.446 -0.4537 -0.0189  0.1889
26404SOL     OW81843   4.249   8.324  10.102 -0.2712 -0.2601 -0.8257
26404SOL    HW181844   4.284   8.263  10.167  0.8354 -0.3929 -1.5224
26404SOL    HW281845   4.300   8.306  10.023 -1.7961 -0.3153 -1.8374
26405SOL     OW81846   4.033   5.807   4.310 -0.5635 -0.4431  0.6178
26405SOL    HW181847   4.019   5.836   4.400 -0.6570 -0.6595  0.6736
26405SOL    HW281848   3.978   5.729   4.301 -0.9218 -0.1539  0.2311
26406SOL     OW81849   3.431   9.735   6.936 -0.2454  0.0645  0.4507
26406SOL    HW181850   3.359   9.734   6.999  0.4300  0.8427  1.2522
26406SOL    HW281851   3.470   9.648   6.943  0.1118  0.2936  1.4542
26407SOL     OW81852   0.302   7.183  10.072  0.0513 -0.1577  0.5397
26407SOL    HW181853   0.261   7.097  10.083 -1.3024  0.2389 -1.1027
26407SOL    HW281854   0.361   7.172   9.997 -0.2298  0.3797  0.2373
26408SOL     OW81855   2.864   7.326   5.828 -0.1207 -0.5494 -0.2255
26408SOL    HW181856   2.898   7.327   5.918  0.8305 -3.1662 -0.4663
26408SOL    HW281857   2.943   7.324   5.773 -0.6984  0.4513 -1.1216
26409SOL     OW81858   6.062   1.837   8.499 -0.4272 -0.1533  0.2013
26409SOL    HW181859   6.060   1.919   8.549  3.5154  0.4959 -0.3778
26409SOL    HW281860   6.068   1.864   8.408  1.3367 -0.9915  0.0257
26410SOL     OW81861   4.154   9.839   9.035 -0.2328 -0.5167 -0.1763
26410SOL    HW181862   4.227   9.779   9.019 -0.7440 -1.3821  0.5877
26410SOL    HW281863   4.195   9.919   9.067  0.4623 -0.4564 -1.1645
26411SOL     OW81864   6.651   8.285   0.244  0.1090  0.2522 -0.1661
26411SOL    HW181865   6.711   8.260   0.314  0.6774  1.2972 -0.2610
26411SOL    HW281866   6.601   8.359   0.280 -1.4984 -0.9048  0.0980
26412SOL     OW81867   2.888   4.706   5.674  0.2512  0.8291 -0.1654
26412SOL    HW181868   2.868   4.739   5.586  1.3974  0.7437 -0.4778
26412SOL    HW281869   2.855   4.616   5.674 -2.0593  1.6016  0.3780
26413SOL     OW81870   1.962   1.869   5.237  0.2437  0.2749  0.0201
26413SOL    HW181871   1.987   1.961   5.245  0.4526  0.2257 -0.0534
26413SOL    HW281872   1.947   1.840   5.327 -1.9100  0.9455 -0.0718
26414SOL     OW81873   5.842   7.945   2.057 -0.4755  0.4839 -0.0947
26414SOL    HW181874   5.886   7.872   2.100  0.4793  1.1171  0.0369
26414SOL    HW281875   5.756   7.950   2.098 -0.2806 -0.1167  0.3874
26415SOL     OW81876   1.067   0.527   2.822 -0.2258 -0.5133  0.0546
26415SOL    HW181877   0.997   0.589   2.806  0.8605  1.4185  2.2752
26415SOL    HW281878   1.059   0.503   2.915  3.0230  1.2331  0.9430
26416SOL     OW81879   9.211   9.869   1.283 -0.8234  0.3946 -0.0956
26416SOL    HW181880   9.285   9.929   1.295 -1.3362  1.2758 -1.1304
26416SOL    HW281881   9.145   9.922   1.237 -1.5783 -0.7571 -0.3662
26417SOL     OW81882   2.545   6.854  10.021  0.1083 -0.8015  0.2899
26417SOL    HW181883   2.493   6.912  10.077 -0.3453 -0.2950 -0.6320
26417SOL    HW281884   2.589   6.913   9.959  1.4099 -1.2619  0.7357
26418SOL     OW81885   7.354  10.043   9.801 -0.2514  0.4022  0.2256
26418SOL    HW181886   7.271  10.068   9.842 -0.0748  1.6126 -0.1233
26418SOL    HW281887   7.412  10.117   9.816 -0.0628  0.7525 -1.8384
26419SOL     OW81888   8.579   5.055   6.454  0.6490 -0.2422 -0.1945
26419SOL    HW181889   8.553   4.988   6.390  0.1770  0.3213 -0.6143
26419SOL    HW281890   8.530   5.033   6.533 -1.2067  0.8007 -0.9770
26420SOL     OW81891   5.136   0.355   0.141 -0.0181  0.1799 -0.4358
26420SOL    HW181892   5.131   0.443   0.178  0.0152 -0.6473  1.6828
26420SOL    HW281893   5.219   0.319   0.174 -0.2388 -0.8107 -0.9045
26421SOL     OW81894   1.210   7.544   7.727 -0.5327 -0.0286 -0.1512
26421SOL    HW181895   1.126   7.499   7.713 -1.0853  1.2668 -1.2380
26421SOL    HW281896   1.242   7.510   7.810 -1.2543 -1.9022 -0.5941
26422SOL     OW81897  10.222   2.197   5.880  0.8350 -0.1656 -0.1116
26422SOL    HW181898  10.302   2.248   5.889  0.0693  1.3005 -1.2340
26422SOL    HW281899  10.155   2.261   5.855 -0.4133 -1.5450 -0.4490
26423SOL     OW81900   2.019   0.554   1.803  0.2163  0.5554 -0.6722
26423SOL    HW181901   2.056   0.628   1.755  0.4599  0.0903 -1.2323
26423SOL    HW281902   2.093   0.493   1.813  0.1666  0.6429  0.3060
26424SOL     OW81903   4.855   5.361   5.356  0.7850 -0.5396  0.6186
26424SOL    HW181904   4.782   5.411   5.393  1.3305  0.2239  0.6925
26424SOL    HW281905   4.814   5.299   5.297 -0.0122 -0.9164  1.5382
26425SOL     OW81906   0.087   5.717   9.126  0.0928  0.0970  0.7225
26425SOL    HW181907   0.061   5.708   9.218  1.0670 -0.2420  0.9768
26425SOL    HW281908   0.130   5.635   9.106  2.7639  1.3354  0.9396
26426SOL     OW81909   7.828   7.168   0.651  0.0857 -0.8838  0.1168
26426SOL    HW181910   7.918   7.169   0.684  0.4648 -0.6253 -0.8991
26426SOL    HW281911   7.835   7.193   0.559 -1.4138  3.9745  1.0191
26427SOL     OW81912   3.667   6.826   4.245 -0.3814  0.1863 -0.0430
26427SOL    HW181913   3.679   6.902   4.188  0.0798  0.3753  0.3103
26427SOL    HW281914   3.698   6.853   4.330 -1.5973  0.0840  0.4602
26428SOL     OW81915   0.658   5.728   4.640  0.0199 -0.1017  0.6544
26428SOL    HW181916   0.684   5.638   4.623 -0.6371  0.1650 -2.2064
26428SOL    HW281917   0.736   5.769   4.678  0.8226 -1.4851  0.5399
26429SOL     OW81918   6.146   0.568   0.413  0.0259 -0.1334 -0.1076
26429SOL    HW181919   6.116   0.481   0.386 -1.2651  0.3620 -0.3897
26429SOL    HW281920   6.240   0.568   0.397  0.0203 -1.4403 -0.1994
26430SOL     OW81921   9.638   2.373   0.961  0.0499 -0.1819  0.0866
26430SOL    HW181922   9.663   2.280   0.956 -1.2456 -0.6224  1.2009
26430SOL    HW281923   9.563   2.381   0.902  1.0058  0.5066 -1.0881
26431SOL     OW81924   3.862   4.177   0.603 -0.3143 -0.1143 -0.6257
26431SOL    HW181925   3.797   4.244   0.581 -0.2093  0.3068  0.2995
26431SOL    HW281926   3.943   4.209   0.563 -0.1096  0.6780  0.3930
26432SOL     OW81927   8.697   9.125   5.812  0.2114 -0.3090 -0.2499
26432SOL    HW181928   8.631   9.091   5.872  0.9640  0.6930  1.2013
26432SOL    HW281929   8.779   9.085   5.843  0.7521  0.9808  0.0288
26433SOL     OW81930   3.968   2.933   3.538  0.0386  0.6841 -0.3963
26433SOL    HW181931   3.918   2.858   3.508 -0.9624  1.1933 -0.0826
26433SOL    HW281932   3.916   2.969   3.610  1.9551 -0.0532  1.4577
26434SOL     OW81933   7.697   7.948   8.985  0.3288  0.3927  0.0288
26434SOL    HW181934   7.734   7.868   9.022  1.4586  0.5438 -0.7421
26434SOL    HW281935   7.616   7.919   8.943 -0.0197 -0.0850  0.9949
26435SOL     OW81936   6.073   3.550   2.578 -0.1331  0.7369  0.1463
26435SOL    HW181937   6.039   3.468   2.544  0.1855  0.4280  0.5566
26435SOL    HW281938   6.062   3.543   2.673  3.5567 -0.5878  0.6294
26436SOL     OW81939   0.981   2.814   9.497 -0.6189  0.0681  0.8269
26436SOL    HW181940   1.046   2.879   9.469 -0.0657 -1.1763 -0.9498
26436SOL    HW281941   1.017   2.778   9.578  0.5784 -0.1096  0.2461
26437SOL     OW81942   6.399   6.385   8.498 -0.3062 -0.0609  0.3688
26437SOL    HW181943   6.462   6.454   8.517  0.7579 -0.7615 -0.4959
26437SOL    HW281944   6.352   6.416   8.421  1.0157 -0.7922 -0.7820
26438SOL     OW81945   3.424   5.642   1.160 -0.3359 -0.2697  0.6844
26438SOL    HW181946   3.515   5.671   1.151  0.0082 -0.7828  2.1472
26438SOL    HW281947   3.405   5.597   1.079 -0.8370  3.6893 -1.6687
26439SOL     OW81948   6.122   6.045   2.436 -0.0765  0.2078  0.5595
26439SOL    HW181949   6.048   6.042   2.498 -0.2963 -0.6880  0.2753
26439SOL    HW281950   6.109   6.126   2.388 -0.9963 -0.0251  0.3886
26440SOL     OW81951   2.908   5.654   6.936 -0.0649  0.0370 -0.2331
26440SOL    HW181952   2.862   5.592   6.993  1.7511 -0.5078  0.7170
26440SOL    HW281953   3.001   5.637   6.952  0.5029  2.4581 -0.5537
26441SOL     OW81954   6.619   6.527   8.903 -0.1712 -0.3460  0.6709
26441SOL    HW181955   6.541   6.485   8.867  0.0298 -0.2346  0.0890
26441SOL    HW281956   6.604   6.529   8.997 -0.7300 -0.6079  0.5926
26442SOL     OW81957   5.826   0.893   0.312 -0.7470 -0.4401  0.2675
26442SOL    HW181958   5.796   0.978   0.280  2.8351  0.4581 -1.2148
26442SOL    HW281959   5.782   0.829   0.255 -2.4041  0.4491  0.4852
26443SOL     OW81960   9.760   0.520   3.864 -0.0549  0.0047  0.0362
26443SOL    HW181961   9.704   0.458   3.912 -2.7345  0.1502 -2.6005
26443SOL    HW281962   9.739   0.605   3.901 -1.0560 -0.0380 -0.3975
26444SOL     OW81963   1.295   9.155   0.326  0.2488  0.0176  0.4842
26444SOL    HW181964   1.339   9.226   0.280 -0.8568 -1.0805 -2.5049
26444SOL    HW281965   1.360   9.084   0.330  0.0004 -0.2867 -0.5236
26445SOL     OW81966   5.004   8.192   9.349 -0.1050 -0.4824 -0.2630
26445SOL    HW181967   5.088   8.149   9.333 -0.4708 -0.8490 -1.2537
26445SOL    HW281968   4.953   8.127   9.398  0.8088  0.4261  2.0576
26446SOL     OW81969   4.622   4.230   9.210  0.1847  0.1534  0.1055
26446SOL    HW181970   4.635   4.314   9.254  0.4289  0.5293 -0.6625
26446SOL    HW281971   4.591   4.254   9.122  1.7165 -0.5045 -0.6333
26447SOL     OW81972   0.724   3.437   7.915  0.4506 -0.1649 -0.4049
26447SOL    HW181973   0.641   3.464   7.875  0.6330 -0.2066 -0.8166
26447SOL    HW281974   0.713   3.343   7.929  0.8282 -0.3882 -1.4676
26448SOL     OW81975   2.748   4.455   5.700 -0.4857 -0.1935  0.1207
26448SOL    HW181976   2.707   4.377   5.663 -1.8120  0.1093  0.8639
26448SOL    HW281977   2.763   4.433   5.792 -0.7659  0.3716  0.3101
26449SOL     OW81978   9.397   9.889   0.832  0.2969  0.3985 -0.0215
26449SOL    HW181979   9.465   9.826   0.853  0.1709 -0.0651 -0.9630
26449SOL    HW281980   9.315   9.843   0.849  0.2053  0.3756 -0.5082
26450SOL     OW81981   7.522   0.534   0.887  0.0857  0.3368  0.4691
26450SOL    HW181982   7.501   0.621   0.853 -1.7461 -0.5068 -0.7208
26450SOL    HW281983   7.618   0.528   0.881  0.0644  1.3223 -1.8847
26451SOL     OW81984   5.759   1.857   3.074 -0.3503 -0.0192  0.9653
26451SOL    HW181985   5.770   1.860   3.169 -2.2044  0.7584  1.2032
26451SOL    HW281986   5.807   1.934   3.043 -0.4452  0.2060  1.3596
26452SOL     OW81987   7.393   8.967   6.783 -0.3646  0.3785  0.4483
26452SOL    HW181988   7.351   9.031   6.726  1.4307 -0.0679 -1.4767
26452SOL    HW281989   7.344   8.972   6.865 -2.0050  2.2113 -0.5773
26453SOL     OW81990   6.042   1.379   3.970  0.1922  0.0017  0.1255
26453SOL    HW181991   6.093   1.459   3.964  0.3770 -0.0140  1.2595
26453SOL    HW281992   5.954   1.408   3.994 -0.5133  0.0654 -2.2382
26454SOL     OW81993   8.918   0.252   5.897 -0.4772  0.0649  0.1031
26454SOL    HW181994   8.933   0.161   5.875 -1.2756  0.0142 -0.2720
26454SOL    HW281995   8.960   0.302   5.827  0.3984  0.0071  0.5759
26455SOL     OW81996   9.502   9.866   2.027 -0.5619  0.4169 -0.5875
26455SOL    HW181997   9.510   9.785   1.978  0.2725  0.7869 -1.0952
26455SOL    HW281998   9.560   9.928   1.981  0.9398  0.5339  1.3069
26456SOL     OW81999   3.918   0.820   1.474  0.1847  0.0613  0.2286
26456SOL    HW182000   3.938   0.737   1.431 -1.3037  0.1819 -0.7558
26456SOL    HW282001   3.997   0.841   1.524  1.0322 -1.3301 -0.4831
26457SOL     OW82002   1.049   2.652   4.811  0.1021  0.0087  0.6697
26457SOL    HW182003   1.020   2.740   4.788 -0.5245 -0.8089 -1.9780
26457SOL    HW282004   1.137   2.665   4.847  0.6115  1.6324 -0.9737
26458SOL     OW82005   9.884   2.774   0.636  0.4640 -0.6525 -0.0384
26458SOL    HW182006   9.897   2.808   0.547  2.2146  0.3750  0.5647
26458SOL    HW282007   9.967   2.731   0.657  0.7658  0.6851  1.7432
26459SOL     OW82008   6.806   4.767   9.899  0.4927 -0.1404 -0.1507
26459SOL    HW182009   6.828   4.705   9.830  0.9000  0.0494 -0.1985
26459SOL    HW282010   6.839   4.851   9.866  0.1761  0.0528  0.0236
26460SOL     OW82011   0.489   1.771   0.588  0.4900  0.5601 -0.1888
26460SOL    HW182012   0.473   1.754   0.681  2.6115  0.0524  0.1253
26460SOL    HW282013   0.448   1.856   0.572 -1.2355 -0.0135  0.7964
26461SOL     OW82014   3.661   8.599   2.039  0.2340  0.5579  0.5701
26461SOL    HW182015   3.697   8.548   2.112  1.1601  1.0273  0.4562
26461SOL    HW282016   3.567   8.599   2.054  0.3094 -0.3262  1.1317
26462SOL     OW82017   4.699   2.338   1.479 -0.0595 -0.4411 -0.2879
26462SOL    HW182018   4.744   2.282   1.416  1.6058  0.8628 -0.3381
26462SOL    HW282019   4.701   2.288   1.561 -2.0305 -2.0468 -1.1466
26463SOL     OW82020   9.919   9.817  10.184  0.6225 -0.0725  0.5461
26463SOL    HW182021   9.851   9.789  10.123  1.9721 -1.1978 -0.4835
26463SOL    HW282022   9.909   9.760  10.260 -1.2702  1.5436  1.6278
26464SOL     OW82023   0.135   7.883   3.629  0.0944  0.7807  0.1411
26464SOL    HW182024   0.049   7.919   3.655 -0.1201 -0.7729  1.7920
26464SOL    HW282025   0.190   7.961   3.617 -1.3374  1.7869 -0.2219
26465SOL     OW82026   5.496   5.060  10.216  0.2156  0.5017 -0.1389
26465SOL    HW182027   5.415   5.019  10.246  0.6796  0.1670  0.6918
26465SOL    HW282028   5.487   5.152  10.240 -0.0449  0.5266 -0.3286
26466SOL     OW82029   0.433   7.042   6.062 -0.0998  0.4442  0.1442
26466SOL    HW182030   0.372   7.102   6.020 -0.8972  0.2491  0.9999
26466SOL    HW282031   0.408   7.042   6.154 -1.9607 -3.2580 -0.1667
26467SOL     OW82032   7.805   7.076   9.633  0.0036 -0.1231  0.1410
26467SOL    HW182033   7.796   7.167   9.662  3.3448  0.4830 -0.3474
26467SOL    HW282034   7.803   7.025   9.714 -0.1815  0.5603  0.5776
26468SOL     OW82035   3.326   0.229   9.264 -0.3143  0.2894  0.1883
26468SOL    HW182036   3.258   0.296   9.268  0.2869  0.8766  0.8558
26468SOL    HW282037   3.396   0.269   9.212  0.8847  0.9852  2.2607
26469SOL     OW82038   4.963   7.173   0.394  0.3907 -0.6414 -0.3077
26469SOL    HW182039   4.928   7.220   0.470  1.0652  1.0092 -0.9726
26469SOL    HW282040   4.885   7.145   0.346 -0.0650  0.8022 -0.4687
26470SOL     OW82041   5.048   1.790   6.433 -0.2063 -0.9083  0.0089
26470SOL    HW182042   4.977   1.741   6.391  0.3570 -2.2284  0.5532
26470SOL    HW282043   5.026   1.788   6.526 -0.5105  0.4681 -0.0051
26471SOL     OW82044   1.771   0.218   1.071 -0.2140 -0.2301 -0.3215
26471SOL    HW182045   1.737   0.139   1.113 -1.6904  0.2140 -0.6150
26471SOL    HW282046   1.712   0.288   1.100  2.0714  1.1520  1.3795
26472SOL     OW82047   9.664   7.409   5.679  0.0196  0.4335  0.1695
26472SOL    HW182048   9.641   7.362   5.599 -1.3662  1.0946  0.1534
26472SOL    HW282049   9.617   7.363   5.748  0.0029  0.7768  0.3901
26473SOL     OW82050  10.148   4.661   7.216 -0.8270 -0.2221 -0.0052
26473SOL    HW182051  10.209   4.729   7.187  1.2348 -1.7695  0.4843
26473SOL    HW282052  10.075   4.709   7.254 -0.0849  1.7270 -0.9085
26474SOL     OW82053   5.296  10.072   3.321  0.2854  0.4233 -0.5169
26474SOL    HW182054   5.374  10.120   3.347  0.6381 -0.1767 -0.4436
26474SOL    HW282055   5.268  10.026   3.401  0.7528 -0.5748 -0.9052
26475SOL     OW82056   5.521   5.594   9.666 -0.1185 -0.3642  0.3709
26475SOL    HW182057   5.579   5.668   9.646  0.8641 -1.2904 -0.3244
26475SOL    HW282058   5.560   5.520   9.620 -3.5271 -0.5007 -2.7674
26476SOL     OW82059   0.309   4.371   1.752  0.6568 -0.5429 -0.3073
26476SOL    HW182060   0.312   4.294   1.695  0.4782 -0.2979 -0.6520
26476SOL    HW282061   0.339   4.339   1.837 -2.3913 -1.7522  0.4324
26477SOL     OW82062   9.383   6.091  10.061 -0.0713  0.3359  0.1976
26477SOL    HW182063   9.351   6.130   9.980  1.1993 -0.2052 -0.5998
26477SOL    HW282064   9.439   6.159  10.099 -1.4317  0.9592  1.1498
26478SOL     OW82065   0.646   5.257   2.278  0.5631  0.1868  0.2891
26478SOL    HW182066   0.557   5.291   2.285  0.0233 -1.4130  2.1428
26478SOL    HW282067   0.645   5.203   2.199 -0.7032 -1.2828  1.2585
26479SOL     OW82068   6.342   3.021   1.719 -0.2672 -0.2218 -0.0609
26479SOL    HW182069   6.276   2.952   1.722 -0.2343 -0.5139 -3.0138
26479SOL    HW282070   6.425   2.976   1.736 -0.5698 -0.2040  1.6339
26480SOL     OW82071   2.123   5.077   9.334 -0.2510  0.5494 -0.3331
26480SOL    HW182072   2.188   5.140   9.302 -0.8453  0.6155 -1.4614
26480SOL    HW282073   2.152   4.993   9.298 -0.1001  0.3690  0.2094
26481SOL     OW82074   6.535   7.365   6.340 -0.6949  0.3354  0.0848
26481SOL    HW182075   6.517   7.320   6.257  0.8722  0.0978 -0.1575
26481SOL    HW282076   6.492   7.311   6.406 -2.0684  0.5936 -0.5525
26482SOL     OW82077   0.152   9.369   5.626 -0.2853  0.1378  0.4905
26482SOL    HW182078   0.210   9.317   5.571  1.1536  0.3435  1.7550
26482SOL    HW282079   0.205   9.444   5.654 -1.2457  0.5009  1.4295
26483SOL     OW82080   3.099   4.688   4.945 -0.4060  0.2772 -0.1528
26483SOL    HW182081   3.194   4.691   4.951 -0.4029  2.0725 -0.6252
26483SOL    HW282082   3.081   4.638   4.866  0.2051  1.4767 -1.0795
26484SOL     OW82083   3.426   1.578   8.120 -0.0434  0.4024 -0.0621
26484SOL    HW182084   3.434   1.670   8.145  1.8670  1.0393 -2.6475
26484SOL    HW282085   3.378   1.538   8.193 -0.3170  3.2597  1.4842
26485SOL     OW82086   4.349   6.076   4.492 -0.1951 -0.0785 -0.2135
26485SOL    HW182087   4.421   6.136   4.505  1.3579 -2.1400  1.4552
26485SOL    HW282088   4.274   6.118   4.533  0.8427  0.7230  0.9101
26486SOL     OW82089   3.157   6.158   2.789  0.3211  0.6988  0.0351
26486SOL    HW182090   3.109   6.240   2.777  0.1270  0.6030  0.1415
26486SOL    HW282091   3.105   6.109   2.853 -0.9545 -0.5571 -1.8407
26487SOL     OW82092   4.971   7.277   2.271  0.0429  0.4117  0.1229
26487SOL    HW182093   4.970   7.291   2.177 -1.0421 -3.3984 -0.5993
26487SOL    HW282094   5.057   7.241   2.290  0.4216  1.5680  0.7416
26488SOL     OW82095   9.001   7.336   9.329  0.2950  0.0843  0.3548
26488SOL    HW182096   8.987   7.248   9.295 -0.5379 -0.0137  0.9107
26488SOL    HW282097   8.942   7.391   9.278  1.1828  0.4108 -0.3362
26489SOL     OW82098   1.972   4.978   2.479 -0.3031 -0.4670  0.1966
26489SOL    HW182099   2.021   5.036   2.421  0.7091 -0.1742  1.2952
26489SOL    HW282100   1.924   4.920   2.421  0.3803  0.0599 -0.9253
26490SOL     OW82101   1.472   9.510   4.067 -0.4063  0.0117 -0.0698
26490SOL    HW182102   1.567   9.508   4.058 -0.4313  0.2592 -0.4155
26490SOL    HW282103   1.441   9.442   4.007 -0.5132  0.8718 -1.0143
26491SOL     OW82104   6.919   3.713   7.189 -0.1703  0.2816  0.1494
26491SOL    HW182105   6.980   3.639   7.188 -1.6681 -1.0794  1.7587
26491SOL    HW282106   6.861   3.695   7.264 -3.0987  0.9799 -1.7579
26492SOL     OW82107   5.461   4.367   1.476  0.2358  0.1373  0.1035
26492SOL    HW182108   5.373   4.377   1.438  0.3752 -0.3638 -0.3598
26492SOL    HW282109   5.457   4.417   1.558 -0.9682 -1.1830  0.8884
26493SOL     OW82110   8.369   0.848   2.984  0.6626 -0.6010  0.0941
26493SOL    HW182111   8.376   0.782   2.915 -1.4392 -0.6613 -0.1201
26493SOL    HW282112   8.397   0.929   2.942 -0.4115 -0.6757 -0.8023
26494SOL     OW82113   7.043   7.651   0.895  0.0318 -0.4827 -0.3204
26494SOL    HW182114   7.024   7.558   0.881 -1.5191 -0.4126  1.0347
26494SOL    HW282115   7.135   7.661   0.869  0.2818 -2.4272 -0.3375
26495SOL     OW82116   9.938   2.574   7.975  0.2386  0.0683  0.0359
26495SOL    HW182117   9.900   2.486   7.980  1.2063 -0.3835 -0.3046
26495SOL    HW282118   9.921   2.612   8.061  0.2625 -0.6479  0.3675
26496SOL     OW82119   9.166   4.342   6.242  0.2029  0.0480  0.3986
26496SOL    HW182120   9.181   4.430   6.208 -0.6389 -0.0751 -0.3246
26496SOL    HW282121   9.170   4.285   6.166  1.4552 -0.6509  0.9565
26497SOL     OW82122   1.939   2.569   0.391  0.1817 -0.1483  0.0750
26497SOL    HW182123   1.876   2.640   0.390  0.8741  0.5147  1.2291
26497SOL    HW282124   1.894   2.495   0.350 -0.1031  1.3030 -2.4076
26498SOL     OW82125   3.324   0.706   2.437  0.0459 -0.2109  0.0918
26498SOL    HW182126   3.366   0.782   2.477  1.8989 -0.9096 -0.3833
26498SOL    HW282127   3.230   0.720   2.449  0.4027  1.4464  1.2414
26499SOL     OW82128   2.997   1.534   8.932  0.6211  0.0503 -0.0288
26499SOL    HW182129   2.956   1.563   9.014  0.3766  0.6302 -0.3463
26499SOL    HW282130   2.954   1.587   8.864  2.3406  1.1773 -0.3148
26500SOL     OW82131   1.273   8.462   5.698 -0.0228  0.7725  0.1030
26500SOL    HW182132   1.181   8.450   5.721 -0.2336 -0.2357 -1.1509
26500SOL    HW282133   1.298   8.380   5.655  1.5536  0.9183  0.6910
26501SOL     OW82134   5.170   2.131   1.772  0.0130 -0.3195  0.6652
26501SOL    HW182135   5.168   2.216   1.816  0.7929 -0.9321  1.9344
26501SOL    HW282136   5.098   2.136   1.708 -0.4305  1.0074  1.2181
26502SOL     OW82137   6.743   7.307   6.592  0.2276 -0.0543  0.6386
26502SOL    HW182138   6.769   7.397   6.573 -1.5321  0.1431 -1.1899
26502SOL    HW282139   6.657   7.315   6.632 -0.8190 -0.9489 -1.3109
26503SOL     OW82140   7.001   4.923   8.488  0.5926  0.3088 -0.0612
26503SOL    HW182141   6.929   4.894   8.544  1.6483 -0.1859  1.0832
26503SOL    HW282142   7.078   4.922   8.545  1.7110 -0.1876 -1.5078
26504SOL     OW82143   1.249   4.050   8.698 -0.3152  0.6529 -0.5715
26504SOL    HW182144   1.342   4.039   8.678 -0.3274 -0.6782  0.0007
26504SOL    HW282145   1.245   4.130   8.749  0.6132  0.3550 -0.0116
26505SOL     OW82146   6.153   7.960   2.250  0.0150  0.2178 -0.3561
26505SOL    HW182147   6.230   8.007   2.219 -0.4737 -0.5043 -2.9332
26505SOL    HW282148   6.177   7.867   2.242 -0.2824 -0.0165  1.1951
26506SOL     OW82149   5.300   0.251   6.017  0.5467 -0.2683  0.7745
26506SOL    HW182150   5.320   0.291   5.932  0.5874  1.5015  1.5890
26506SOL    HW282151   5.291   0.158   5.997 -2.2455  0.3971 -1.6671
26507SOL     OW82152   3.326   7.617   1.813 -0.4925  0.9380  0.3418
26507SOL    HW182153   3.261   7.587   1.750 -0.5564 -0.6570  1.1265
26507SOL    HW282154   3.283   7.608   1.898  1.5531 -2.7414  1.1622
26508SOL     OW82155   6.558   7.186   9.105  0.1599 -0.1603  0.3797
26508SOL    HW182156   6.572   7.134   9.184 -1.0068  2.2847  2.3739
26508SOL    HW282157   6.592   7.133   9.034  1.3057 -2.4962  2.5239
26509SOL     OW82158   1.511   6.825   1.095 -0.2279  0.0012  0.9585
26509SOL    HW182159   1.464   6.778   1.164 -1.3373 -1.2609 -0.5833
26509SOL    HW282160   1.444   6.880   1.054 -0.3425 -1.5262 -1.0259
26510SOL     OW82161   7.334   6.452   7.320 -0.2377  0.1026  0.6195
26510SOL    HW182162   7.242   6.462   7.295 -0.6787  1.7855  2.6615
26510SOL    HW282163   7.334   6.388   7.391 -0.0528  1.2242  1.6537
26511SOL     OW82164   7.522   7.765   0.408 -1.2089 -0.0564  0.2042
26511SOL    HW182165   7.487   7.845   0.446 -0.0157  1.4584 -1.7016
26511SOL    HW282166   7.558   7.717   0.483 -1.7952  1.2586  1.3661
26512SOL     OW82167   7.882   0.338   3.018 -0.7893  0.0299  0.2293
26512SOL    HW182168   7.851   0.391   2.944 -1.5807 -2.0403 -1.0252
26512SOL    HW282169   7.862   0.390   3.095  0.2246  2.3754 -0.9666
26513SOL     OW82170   4.302   2.892   1.550  0.2078 -0.0776 -0.3309
26513SOL    HW182171   4.319   2.834   1.475 -0.0854 -0.8248  0.1623
26513SOL    HW282172   4.306   2.833   1.626  0.9185  0.7409  0.2828
26514SOL     OW82173   1.271   8.641   5.084  0.5083  0.7371 -0.0032
26514SOL    HW182174   1.311   8.684   5.008 -0.9679  0.4899 -0.9584
26514SOL    HW282175   1.298   8.550   5.078 -3.4494 -0.5157 -3.1778
26515SOL     OW82176   9.718   4.569   6.568  0.2398 -0.4243 -0.4997
26515SOL    HW182177   9.786   4.526   6.516  2.6140  1.4023  0.8792
26515SOL    HW282178   9.762   4.593   6.649 -1.3405  3.0069 -0.4794
26516SOL     OW82179   9.433   1.599   2.127 -0.3716  0.0958 -0.4897
26516SOL    HW182180   9.444   1.694   2.122 -0.5530  0.1530  0.1488
26516SOL    HW282181   9.478   1.566   2.049  2.5102  0.4531  0.8727
26517SOL     OW82182   6.413   8.133   0.203 -0.1386 -0.2748  0.3617
26517SOL    HW182183   6.497   8.167   0.233 -0.1067 -0.3193  0.3204
26517SOL    HW282184   6.372   8.099   0.283  0.3129 -1.1945  0.2117
26518SOL     OW82185   0.480   2.624   7.342 -0.2020 -0.3599 -0.0560
26518SOL    HW182186   0.433   2.616   7.260 -0.4502  2.0326 -0.2436
26518SOL    HW282187   0.419   2.668   7.401  1.2062  1.5118  0.1371
26519SOL     OW82188   1.419   9.891   8.307  0.1237  0.0681  0.7812
26519SOL    HW182189   1.356   9.852   8.368 -0.1211  1.0100  1.1476
26519SOL    HW282190   1.396   9.984   8.305  0.8949  0.2547  0.1704
26520SOL     OW82191   6.371   5.980   0.069  0.4850 -0.2635 -0.3931
26520SOL    HW182192   6.440   5.985   0.136 -0.5336 -0.2495  0.6921
26520SOL    HW282193   6.365   6.070   0.035 -0.6766  0.3572  1.2966
26521SOL     OW82194   0.628   7.478   5.415  0.5048  0.0820  0.0601
26521SOL    HW182195   0.639   7.478   5.510  1.5605  0.8203 -0.0471
26521SOL    HW282196   0.690   7.413   5.382  0.5019  0.1849 -0.1549
26522SOL     OW82197   6.501   0.838   3.283  0.0443  0.4221 -0.0725
26522SOL    HW182198   6.583   0.884   3.300 -0.3014  0.8356  0.5182
26522SOL    HW282199   6.472   0.809   3.369  1.4072 -2.9675 -0.5810
26523SOL     OW82200   8.402   9.715   8.482  0.4269  0.3505 -0.4889
26523SOL    HW182201   8.329   9.770   8.452 -0.3370  0.8461  2.0315
26523SOL    HW282202   8.363   9.627   8.489  0.9322 -0.0205 -1.9838
26524SOL     OW82203  10.178   9.607   8.735 -0.3299  0.0304  0.7104
26524SOL    HW182204  10.253   9.554   8.762  0.2112  0.2894 -0.2053
26524SOL    HW282205  10.204   9.697   8.755 -0.4049  0.1191  0.4122
26525SOL     OW82206   4.425   3.511  10.085  0.2663  0.6090  0.1923
26525SOL    HW182207   4.480   3.564  10.027 -1.4581  2.1464 -0.1387
26525SOL    HW282208   4.395   3.573  10.152 -1.0963 -0.1522  0.3183
26526SOL     OW82209   0.392   1.998   8.790 -0.3500 -0.6496  0.3940
26526SOL    HW182210   0.383   2.037   8.703  1.6076 -2.3847 -0.6981
26526SOL    HW282211   0.454   2.055   8.835  0.5009 -1.0004 -0.2742
26527SOL     OW82212   7.238   7.043   1.177  0.1302 -0.0702 -0.1931
26527SOL    HW182213   7.197   7.035   1.091  0.8017  1.7506 -0.7097
26527SOL    HW282214   7.182   7.102   1.226 -1.0407 -2.1769  1.1966
26528SOL     OW82215   4.517   4.421   9.046 -1.0571  0.6041 -0.1486
26528SOL    HW182216   4.444   4.455   8.995  0.5205  1.1985 -2.1287
26528SOL    HW282217   4.537   4.491   9.108  0.4833  2.3038 -2.4434
26529SOL     OW82218   7.412   6.551   6.351  0.0270  1.0918  0.2314
26529SOL    HW182219   7.350   6.483   6.376  1.1664 -0.7039 -1.5410
26529SOL    HW282220   7.365   6.633   6.367 -2.3286 -0.1455  0.1068
26530SOL     OW82221   9.114   7.976   6.298 -0.2537  0.4362 -0.8535
26530SOL    HW182222   9.133   8.050   6.357 -1.2495  0.8945 -1.0800
26530SOL    HW282223   9.198   7.935   6.283 -0.0607 -0.3067  1.7017
26531SOL     OW82224   8.040   0.427   7.122 -0.2033  0.3528 -0.0592
26531SOL    HW182225   8.026   0.469   7.037  0.7638  1.0067  0.0905
26531SOL    HW282226   7.953   0.399   7.149 -0.4372 -0.6471 -1.6581
26532SOL     OW82227   0.534   7.538   4.690 -0.1282  0.1846 -0.4873
26532SOL    HW182228   0.501   7.516   4.602 -0.6410 -1.3412  0.0517
26532SOL    HW282229   0.596   7.609   4.675  0.3852 -0.5723 -2.1962
26533SOL     OW82230   9.686   0.630   2.381 -0.2534  0.3145 -0.0153
26533SOL    HW182231   9.698   0.580   2.462  0.7599  0.5194 -0.0260
26533SOL    HW282232   9.724   0.715   2.400  0.8944  0.0541 -1.0215
26534SOL     OW82233   9.858   1.934   1.483 -0.2374  0.2319 -0.5635
26534SOL    HW182234   9.815   1.988   1.417 -2.1108 -1.4931 -0.8280
26534SOL    HW282235   9.888   1.856   1.436  1.2486  0.3856  0.0575
26535SOL     OW82236   1.966   4.501   1.845  0.2606 -1.2277  0.0061
26535SOL    HW182237   1.874   4.529   1.845 -0.1539 -2.5525 -0.4348
26535SOL    HW282238   2.014   4.580   1.872 -0.8956 -0.2015 -0.7998
26536SOL     OW82239   2.058   4.942   3.412 -0.2331 -0.1116 -0.0895
26536SOL    HW182240   2.131   5.002   3.427  0.0389 -0.5585  0.4068
26536SOL    HW282241   2.056   4.931   3.317 -0.2774  0.6693 -0.1821
26537SOL     OW82242   3.904   8.819   7.135 -0.3721  0.4569 -0.9741
26537SOL    HW182243   3.902   8.752   7.067  2.6080 -0.7308 -0.0483
26537SOL    HW282244   3.961   8.887   7.099  0.8898  0.0102  0.1014
26538SOL     OW82245   0.352   3.620   0.625 -0.3725 -0.0170 -0.1878
26538SOL    HW182246   0.312   3.592   0.543 -2.0615  0.6909  0.3374
26538SOL    HW282247   0.278   3.652   0.677  0.5875 -0.7764  1.7516
26539SOL     OW82248  10.113   7.596   5.422 -0.2267 -0.3399  0.1077
26539SOL    HW182249  10.036   7.651   5.406  1.1616  1.2585 -1.5082
26539SOL    HW282250  10.166   7.645   5.484 -0.6743 -1.6513  1.5790
26540SOL     OW82251   5.410   9.209   5.941  0.1018  0.4386  0.7346
26540SOL    HW182252   5.377   9.146   6.006 -0.9340 -0.6682 -0.7986
26540SOL    HW282253   5.351   9.198   5.866  1.1599  1.8142 -0.3308
26541SOL     OW82254   9.707   3.651   5.621  0.1527 -0.3327 -0.3793
26541SOL    HW182255   9.649   3.667   5.546  0.8487 -1.0371 -1.1033
26541SOL    HW282256   9.691   3.723   5.681 -2.4104 -1.1502  0.0558
26542SOL     OW82257   7.760   9.214   7.699 -0.0382  0.2849  1.0131
26542SOL    HW182258   7.755   9.309   7.700  2.7398  0.5446 -0.3753
26542SOL    HW282259   7.723   9.189   7.614  2.1676  0.4651 -0.0597
26543SOL     OW82260   2.131   8.397  10.041  0.5033  0.2561  0.0587
26543SOL    HW182261   2.213   8.356  10.070  0.8680  0.7778 -0.2324
26543SOL    HW282262   2.147   8.421   9.950  0.1836  0.7667  0.1343
26544SOL     OW82263   0.864   0.135   7.928  0.1063 -0.1878  0.5327
26544SOL    HW182264   0.787   0.109   7.878  0.8828 -0.4191 -0.5863
26544SOL    HW282265   0.836   0.132   8.020 -0.8391 -1.5173  0.2207
26545SOL     OW82266   9.035   6.597   9.096  0.0379  0.3678 -0.5651
26545SOL    HW182267   9.013   6.687   9.074 -1.0492  0.3680  0.4539
26545SOL    HW282268   9.112   6.604   9.152 -1.8772  0.9691  2.2167
26546SOL     OW82269   7.305   3.625   2.121 -0.6361 -0.3786  0.0773
26546SOL    HW182270   7.370   3.557   2.139 -0.5840 -0.9297 -1.8907
26546SOL    HW282271   7.230   3.603   2.175  1.0157  0.7267  3.0403
26547SOL     OW82272   7.449   4.970   4.302  0.8370 -0.1773  0.2097
26547SOL    HW182273   7.531   4.992   4.347  0.1884  0.0609  1.3084
26547SOL    HW282274   7.383   4.970   4.371 -0.0675 -0.5456 -0.6326
26548SOL     OW82275   4.192   9.330   5.154  0.4929 -0.2397 -0.1959
26548SOL    HW182276   4.228   9.241   5.155  0.6665 -0.1674  0.3609
26548SOL    HW282277   4.260   9.384   5.195 -1.0518 -0.4205  2.8754
26549SOL     OW82278   2.925   3.775   2.481  0.4753  0.3578 -0.7591
26549SOL    HW182279   3.018   3.755   2.487  0.6350  1.0638 -0.7923
26549SOL    HW282280   2.910   3.840   2.550 -0.1258 -0.2250 -0.3360
26550SOL     OW82281   5.101   6.105   1.683 -0.0092  0.2887  0.0677
26550SOL    HW182282   5.010   6.134   1.674 -0.7701 -1.3628  1.6958
26550SOL    HW282283   5.128   6.138   1.768  1.4525  1.9516 -0.9830
26551SOL     OW82284   9.030   7.623   0.674  0.2573  0.4014 -0.5619
26551SOL    HW182285   9.119   7.655   0.666  0.4329  0.0453 -0.1195
26551SOL    HW282286   9.001   7.607   0.585  0.3651  1.2384 -0.7558
26552SOL     OW82287   9.830   4.439   8.698  0.4283  0.2310 -0.5667
26552SOL    HW182288   9.769   4.425   8.626  0.2505  0.7602 -0.5246
26552SOL    HW282289   9.782   4.415   8.776  0.8846 -1.1190 -0.6787
26553SOL     OW82290   8.595   7.099   0.718 -0.1407 -0.1667 -0.3292
26553SOL    HW182291   8.569   7.189   0.697  0.3533 -0.0121 -0.2892
26553SOL    HW282292   8.586   7.052   0.635 -2.7714 -0.6864  0.1427
26554SOL     OW82293   2.809   5.454   5.682 -0.0735 -0.0124  0.0214
26554SOL    HW182294   2.766   5.513   5.621  0.5844  0.5066  0.0530
26554SOL    HW282295   2.788   5.489   5.769  0.6554  0.4155  0.0278
26555SOL     OW82296   7.822   2.569   4.614 -0.2396  0.1719  0.3972
26555SOL    HW182297   7.755   2.527   4.560 -0.4033  3.7637 -2.6417
26555SOL    HW282298   7.773   2.608   4.687 -1.0761  0.4468 -0.2902
26556SOL     OW82299   5.125   0.863   4.727  0.4313 -0.6302  0.0172
26556SOL    HW182300   5.143   0.779   4.685 -0.1686  0.7931 -3.5259
26556SOL    HW282301   5.054   0.845   4.788 -1.7457 -2.3149 -2.7760
26557SOL     OW82302   4.560   6.804   6.290  0.5298  0.2212 -0.2978
26557SOL    HW182303   4.655   6.814   6.279  0.3917 -0.5713 -2.6815
26557SOL    HW282304   4.547   6.709   6.294 -0.1578  0.3340  0.3397
26558SOL     OW82305   3.156   2.168   3.457 -0.1637 -0.4425 -0.1331
26558SOL    HW182306   3.171   2.249   3.407 -0.0154  0.1932  0.9104
26558SOL    HW282307   3.078   2.130   3.417  0.0518 -0.0384 -0.9574
26559SOL     OW82308   7.210   3.796   0.367  0.3824 -0.1651  0.0828
26559SOL    HW182309   7.304   3.818   0.370  0.3686 -0.0150 -0.4171
26559SOL    HW282310   7.206   3.719   0.311  0.1881 -0.0517 -0.0603
26560SOL     OW82311   4.618   8.449   7.751 -0.0848  0.0808 -0.1803
26560SOL    HW182312   4.545   8.510   7.757 -0.4767 -0.2150 -1.6332
26560SOL    HW282313   4.588   8.371   7.798 -2.3931 -1.5630 -3.9304
26561SOL     OW82314   4.279   9.919   6.642 -0.1298  0.4795  0.7438
26561SOL    HW182315   4.253   9.892   6.730  1.7385 -0.4418  1.0548
26561SOL    HW282316   4.259   9.844   6.586  1.5940 -0.2005  0.9684
26562SOL     OW82317   8.041   2.497   8.571  0.3719  0.4559 -0.6516
26562SOL    HW182318   7.963   2.443   8.559  0.4159  0.5936 -1.6782
26562SOL    HW282319   8.056   2.536   8.485  2.7709 -1.1528 -1.0401
26563SOL     OW82320   2.911   1.223   8.658 -0.1679 -0.0692 -0.0146
26563SOL    HW182321   2.844   1.275   8.701 -0.4387 -1.3068  1.1359
26563SOL    HW282322   2.883   1.132   8.671  1.5357 -0.6124  0.2056
26564SOL     OW82323   2.163   1.849   1.096  0.3520 -0.3491  0.0247
26564SOL    HW182324   2.096   1.843   1.165  0.4603  0.8187  0.2610
26564SOL    HW282325   2.224   1.778   1.115  1.6680  1.3139  2.5697
26565SOL     OW82326   4.091  10.105  10.277 -0.3451 -0.6470 -0.0004
26565SOL    HW182327   4.089  10.118  10.372  1.7733  1.8456 -0.1953
26565SOL    HW282328   4.168  10.049  10.262 -0.9578 -1.4462 -0.2490
26566SOL     OW82329   8.394   6.756   5.502  0.2080 -1.3560  0.0483
26566SOL    HW182330   8.411   6.670   5.542  2.2765 -0.7776  0.5877
26566SOL    HW282331   8.434   6.750   5.416 -0.8187 -1.3475 -0.4343
26567SOL     OW82332   1.306   7.325   1.529  0.3765  0.0060  0.5194
26567SOL    HW182333   1.266   7.373   1.457 -0.7779 -0.7991  0.5996
26567SOL    HW282334   1.236   7.270   1.563  1.9651 -2.7845 -0.4380
26568SOL     OW82335   0.625   7.618   1.041 -0.3324 -0.1971 -0.1417
26568SOL    HW182336   0.653   7.692   0.988 -1.2638  0.9037  0.8495
26568SOL    HW282337   0.693   7.610   1.109 -1.7670  1.8456  1.6706
26569SOL     OW82338   9.277   7.932   9.832 -0.0439  0.6643  0.1453
26569SOL    HW182339   9.371   7.921   9.816 -0.4792 -1.4971 -1.3066
26569SOL    HW282340   9.236   7.910   9.748 -1.9374 -0.1300  1.2181
26570SOL     OW82341   5.946   9.879   3.051 -0.6743  0.1537 -0.3987
26570SOL    HW182342   5.885   9.832   2.994  1.1098 -2.3487 -0.3819
26570SOL    HW282343   6.006   9.922   2.990 -0.6862  0.1507 -0.4126
26571SOL     OW82344   6.458   8.852   0.227 -0.0242  0.3117  0.0264
26571SOL    HW182345   6.424   8.801   0.302 -0.7817 -0.4176 -0.7890
26571SOL    HW282346   6.525   8.795   0.188 -2.6177 -1.3038 -2.4218
26572SOL     OW82347   1.713   5.447   7.766 -0.8601 -0.8715 -0.7439
26572SOL    HW182348   1.808   5.456   7.755 -0.9620 -1.4207 -2.3868
26572SOL    HW282349   1.687   5.526   7.813  0.2217  0.0834 -1.6818
26573SOL     OW82350   1.218   2.845   3.509  0.2219  0.1317 -0.0752
26573SOL    HW182351   1.166   2.801   3.442 -0.2164 -2.4723  1.8401
26573SOL    HW282352   1.180   2.932   3.515 -1.5708 -0.5115 -1.2164
26574SOL     OW82353   9.302   8.150   6.148  0.2073  0.8067  0.2524
26574SOL    HW182354   9.314   8.245   6.154 -0.6226  1.0286 -1.1140
26574SOL    HW282355   9.218   8.140   6.104 -0.6203 -0.5964  2.0449
26575SOL     OW82356   0.217   5.546   5.950  0.5927  0.4015  0.2753
26575SOL    HW182357   0.267   5.468   5.924  0.8881 -0.0787  2.1439
26575SOL    HW282358   0.126   5.521   5.934  0.7482  0.0842 -0.1597
26576SOL     OW82359   3.502   3.152  10.199 -0.1964 -0.3144  0.0856
26576SOL    HW182360   3.408   3.160  10.189 -0.1451 -0.1836 -0.2881
26576SOL    HW282361   3.515   3.137  10.293 -0.4849  1.1751  0.3790
26577SOL     OW82362   6.763   3.934   3.208 -0.2376 -0.3010 -0.1713
26577SOL    HW182363   6.822   3.967   3.140 -0.0403 -0.5699 -0.1293
26577SOL    HW282364   6.729   3.852   3.173 -1.8554  0.6146 -0.9163
26578SOL     OW82365   1.275   6.628   5.219 -0.1428  0.0001 -0.4750
26578SOL    HW182366   1.297   6.608   5.310  0.0942 -1.5276 -0.8379
26578SOL    HW282367   1.185   6.600   5.209 -0.4272  0.8972 -0.5228
26579SOL     OW82368   2.244  10.129   7.361 -0.1343 -0.0999  0.1473
26579SOL    HW182369   2.168  10.185   7.375  0.1872  0.6029 -0.7755
26579SOL    HW282370   2.302  10.181   7.305 -0.0548 -1.5459 -1.1762
26580SOL     OW82371   3.536   6.924   0.127 -0.3821  0.2673  0.6282
26580SOL    HW182372   3.539   6.869   0.206 -0.0734 -1.2860 -0.4305
26580SOL    HW282373   3.621   6.911   0.085 -0.3989  1.3780  0.2130
26581SOL     OW82374   8.070   5.652   3.205 -0.4083  0.4309 -0.0051
26581SOL    HW182375   8.054   5.559   3.194 -0.0584  0.6552 -3.0274
26581SOL    HW282376   8.146   5.656   3.263 -1.4845 -1.0213  1.6503
26582SOL     OW82377   1.520   8.685   2.623  0.1444  0.0085  0.2181
26582SOL    HW182378   1.547   8.593   2.614 -0.1228 -0.2255  1.6198
26582SOL    HW282379   1.586   8.724   2.678 -0.7688  0.1590  1.2423
26583SOL     OW82380   9.363   5.451   8.438  0.2461  0.4712 -0.8223
26583SOL    HW182381   9.402   5.452   8.525 -0.3411  1.9787 -0.5568
26583SOL    HW282382   9.366   5.359   8.412  3.0193  0.3694 -0.4052
26584SOL     OW82383   7.871   1.269   6.781  0.8823  0.0538  0.4836
26584SOL    HW182384   7.850   1.279   6.688  1.6726 -0.8036  0.1866
26584SOL    HW282385   7.923   1.346   6.803 -0.9339  1.2428  0.7465
26585SOL     OW82386   6.821   3.217  10.059  0.0795  0.0034  0.3796
26585SOL    HW182387   6.888   3.150  10.045  0.9551  1.1151 -1.2327
26585SOL    HW282388   6.746   3.188  10.007  0.7765  0.6323 -1.0580
26586SOL     OW82389   3.795   7.236   3.607 -0.0409 -0.0015  0.1010
26586SOL    HW182390   3.799   7.144   3.631 -1.2993 -0.9697 -2.8917
26586SOL    HW282391   3.702   7.259   3.612 -0.0530  0.3899 -1.3431
26587SOL     OW82392  10.286   1.934   0.292  0.5793  0.3618  0.3534
26587SOL    HW182393  10.287   1.879   0.214  0.5602 -0.0136  0.6198
26587SOL    HW282394  10.332   1.883   0.358  2.2583  1.4303  0.0724
26588SOL     OW82395  10.250   2.721   2.811  0.0739  0.1297 -0.1269
26588SOL    HW182396  10.195   2.780   2.759 -0.8025 -1.0791 -0.6177
26588SOL    HW282397  10.314   2.687   2.749 -0.8019 -1.1020 -0.3945
26589SOL     OW82398   6.808   7.950   1.953 -0.0518 -0.1209  0.1070
26589SOL    HW182399   6.784   7.978   1.865  1.8991  0.3118 -0.3375
26589SOL    HW282400   6.757   8.007   2.011 -0.6939  0.1891 -0.7373
26590SOL     OW82401   7.844   0.973   8.582  0.1945 -0.0776  0.6980
26590SOL    HW182402   7.856   0.886   8.622  0.4930  0.4304  1.7682
26590SOL    HW282403   7.901   0.973   8.506  0.1817 -0.8268  0.6810
26591SOL     OW82404   4.382   6.085   8.747  0.0919  0.7888  0.3255
26591SOL    HW182405   4.355   6.171   8.715 -1.6475 -0.6827 -2.5705
26591SOL    HW282406   4.348   6.023   8.683 -0.9800 -2.3369  3.5428
26592SOL     OW82407   3.763   5.603   1.541 -0.2057 -0.5284 -0.0860
26592SOL    HW182408   3.795   5.679   1.590 -0.6128 -0.9364  0.8438
26592SOL    HW282409   3.680   5.632   1.504  0.3073 -0.0798 -0.9154
26593SOL     OW82410   2.852   7.008   6.266 -0.0518  0.2115  0.1099
26593SOL    HW182411   2.914   7.010   6.339 -0.9054  0.2680  0.8517
26593SOL    HW282412   2.904   6.979   6.191  0.9735  0.6929  0.6062
26594SOL     OW82413   7.070   4.012   8.233  0.1286 -0.5955 -0.6847
26594SOL    HW182414   7.161   4.000   8.207  0.9026  0.6838  1.1490
26594SOL    HW282415   7.064   3.972   8.320 -0.6566  0.5064 -0.1917
26595SOL     OW82416   9.802   5.813   0.861  0.1697 -0.7324  0.4056
26595SOL    HW182417   9.778   5.893   0.814  0.6317 -0.9620 -0.2338
26595SOL    HW282418   9.799   5.837   0.954  0.6270  0.1166  0.2057
26596SOL     OW82419   2.960  10.020   5.024 -0.9007  0.3383  0.0542
26596SOL    HW182420   2.880  10.036   5.075 -0.5507 -0.5519  0.9326
26596SOL    HW282421   2.967   9.924   5.022 -1.5066  0.2845 -2.6820
26597SOL     OW82422   4.154   3.687   7.682 -0.4646 -0.0273  0.3108
26597SOL    HW182423   4.181   3.697   7.591  0.3902  2.3355  0.7570
26597SOL    HW282424   4.221   3.631   7.721  0.8385  1.3446  0.1311
26598SOL     OW82425   1.885   0.011   0.557 -0.0797  0.4351  0.3690
26598SOL    HW182426   1.875  -0.062   0.618  2.3267  0.5114  0.9592
26598SOL    HW282427   1.861   0.088   0.608 -0.4658  0.2694  0.4404
26599SOL     OW82428   4.707   0.612   7.461  0.2717  0.7386 -0.0668
26599SOL    HW182429   4.790   0.659   7.454  1.5997 -1.1877  1.5917
26599SOL    HW282430   4.682   0.593   7.370  2.1372  0.5623 -0.5802
26600SOL     OW82431   2.379   0.198   2.580 -0.1381 -0.3922  0.3371
26600SOL    HW182432   2.424   0.193   2.495  0.7404 -0.5815  0.7928
26600SOL    HW282433   2.300   0.146   2.568 -0.3460  0.1103 -0.5545
26601SOL     OW82434   0.484   8.224   2.262  0.0436 -0.8475 -0.0048
26601SOL    HW182435   0.522   8.311   2.251 -0.3212 -0.7670 -0.6686
26601SOL    HW282436   0.435   8.208   2.181  0.8706 -2.0568 -0.2990
26602SOL     OW82437   0.624   4.300   4.762  0.2181  0.2355 -0.4316
26602SOL    HW182438   0.612   4.275   4.853 -1.4421 -0.4754 -0.8061
26602SOL    HW282439   0.670   4.226   4.722  0.8379  0.4957 -0.2140
26603SOL     OW82440   7.637   9.798   8.968 -0.1772  0.2141  0.2963
26603SOL    HW182441   7.728   9.826   8.976  0.0513 -0.2677 -0.5421
26603SOL    HW282442   7.617   9.756   9.052  1.0898 -1.7294 -0.3276
26604SOL     OW82443   0.476   1.939   4.003  0.5412  0.0285  0.6207
26604SOL    HW182444   0.383   1.948   3.984  0.4860 -1.9487 -0.3541
26604SOL    HW282445   0.513   1.898   3.924  1.9606 -0.5219  1.5228
26605SOL     OW82446   8.051  10.011   9.614  0.2709 -0.1832  0.5546
26605SOL    HW182447   8.067  10.044   9.526 -0.8404  0.8888  0.7287
26605SOL    HW282448   8.133  10.026   9.661  0.0534  1.6339  0.4037
26606SOL     OW82449   9.401   6.320   2.135  0.1921  0.1939  0.4146
26606SOL    HW182450   9.469   6.324   2.068  0.0070  0.3695  0.2352
26606SOL    HW282451   9.378   6.411   2.152  0.9382  0.2124  1.4441
26607SOL     OW82452   0.581   3.323   1.138  0.4328  0.5281  0.3462
26607SOL    HW182453   0.609   3.408   1.104 -0.1873  0.0144 -1.6104
26607SOL    HW282454   0.652   3.264   1.114  0.1491  0.2141  0.2762
26608SOL     OW82455   9.657   4.472  10.230  0.4504  0.2117  1.0121
26608SOL    HW182456   9.744   4.457  10.194  0.5551  1.6024  0.6274
26608SOL    HW282457   9.671   4.534  10.302 -0.2897  1.0392  0.4600
26609SOL     OW82458   5.352   7.132   1.045 -0.2096  0.0848  0.8848
26609SOL    HW182459   5.446   7.124   1.026 -0.1894  1.2715  0.3441
26609SOL    HW282460   5.348   7.162   1.136  0.0066  1.0648  0.5918
26610SOL     OW82461   1.773   7.652   7.763  0.1670 -0.7369 -0.3864
26610SOL    HW182462   1.684   7.667   7.731  0.0521 -1.0147 -0.2037
26610SOL    HW282463   1.761   7.608   7.847  0.4858 -1.2137 -0.5846
26611SOL     OW82464   9.258   1.401   8.727 -0.2635  0.6141  0.2230
26611SOL    HW182465   9.295   1.316   8.749 -0.1633  1.0866  2.0834
26611SOL    HW282466   9.169   1.381   8.698  0.2557 -0.2258 -0.8745
26612SOL     OW82467   1.088   9.811   2.524  0.4854 -0.2773 -0.2295
26612SOL    HW182468   1.013   9.825   2.465  0.1029  1.3783  0.5779
26612SOL    HW282469   1.049   9.777   2.604  0.3037  1.9645  0.7346
26613SOL     OW82470   5.970   1.319   8.131 -0.4771  0.1908 -0.0788
26613SOL    HW182471   5.900   1.260   8.161 -0.9959  0.4224 -0.7900
26613SOL    HW282472   5.978   1.384   8.201 -1.3878  0.4955 -0.2452
26614SOL     OW82473   4.640   4.005   4.154  0.3922 -0.7684  0.3652
26614SOL    HW182474   4.700   4.047   4.093 -1.8370  0.3788 -1.1591
26614SOL    HW282475   4.602   4.077   4.204 -0.5023 -1.3550  0.5517
26615SOL     OW82476   8.729   5.948   3.554  0.6272 -0.0579 -0.1728
26615SOL    HW182477   8.685   5.976   3.635  0.2206 -1.1010 -0.0157
26615SOL    HW282478   8.657   5.916   3.499  1.1682 -1.8519  0.1098
26616SOL     OW82479   8.407   8.315   7.734  0.8733 -0.2082  0.1395
26616SOL    HW182480   8.436   8.224   7.739  1.2398 -0.0572  1.0900
26616SOL    HW282481   8.461   8.360   7.799  0.0027  0.5008  0.3845
26617SOL     OW82482   4.599   1.647   9.981 -0.2668 -0.2703  0.0097
26617SOL    HW182483   4.569   1.664   9.892 -1.2852  0.9191  0.5513
26617SOL    HW282484   4.693   1.666   9.979 -0.5949  1.4428 -0.4263
26618SOL     OW82485   4.586   2.321   9.292  0.2074 -0.2490  0.6649
26618SOL    HW182486   4.536   2.336   9.373  0.9781  0.3674  1.0386
26618SOL    HW282487   4.537   2.366   9.224 -0.5298 -0.8987  0.7499
26619SOL     OW82488   4.333   5.944   3.477  0.1314 -0.3291 -0.6795
26619SOL    HW182489   4.279   5.978   3.406  1.9222 -0.0924 -1.9986
26619SOL    HW282490   4.277   5.948   3.554 -0.8404  2.4692 -1.4143
26620SOL     OW82491   1.110   2.217   3.495  0.0032 -0.0359  0.5364
26620SOL    HW182492   1.128   2.212   3.401  0.4602  3.7399  0.2736
26620SOL    HW282493   1.015   2.208   3.501 -0.2356  1.3864 -0.5442
26621SOL     OW82494   7.080   7.851   9.335  0.2862  0.0852 -0.5485
26621SOL    HW182495   7.006   7.866   9.276 -0.3933 -4.3770 -1.2003
26621SOL    HW282496   7.146   7.808   9.281  2.4864  1.8130  0.5952
26622SOL     OW82497   6.787   1.983   2.351 -0.3194  0.5071  0.2368
26622SOL    HW182498   6.812   2.044   2.282 -0.4149  0.3927  0.0997
26622SOL    HW282499   6.779   2.036   2.430  2.0661  0.3006  0.6802
26623SOL     OW82500   7.715   5.221   1.825  0.9323  0.1696  0.5341
26623SOL    HW182501   7.773   5.226   1.750  0.0974 -0.2759 -0.1621
26623SOL    HW282502   7.765   5.260   1.897  1.6392  0.8552 -0.3052
26624SOL     OW82503   9.602   1.665   4.479  0.3539 -0.0161 -0.5862
26624SOL    HW182504   9.529   1.728   4.483  0.9583  0.8623 -2.2250
26624SOL    HW282505   9.655   1.685   4.556 -0.1999  0.5484 -0.3405
26625SOL     OW82506   0.421   9.158   7.938 -0.2177 -0.2535 -0.7088
26625SOL    HW182507   0.445   9.247   7.964  1.4716 -1.5640  2.9014
26625SOL    HW282508   0.327   9.163   7.920 -0.4766  1.9936  0.8448
26626SOL     OW82509   4.635   3.010   5.081 -0.0883 -0.4870 -0.4119
26626SOL    HW182510   4.572   3.055   5.138 -0.7267 -2.1804  0.2922
26626SOL    HW282511   4.584   2.988   5.003 -0.0411 -0.7721 -0.3634
26627SOL     OW82512   1.707   1.645   9.532  0.5261  0.5939 -0.0483
26627SOL    HW182513   1.624   1.601   9.552  0.0830  1.4797  0.1427
26627SOL    HW282514   1.772   1.599   9.586  0.5988 -1.5276 -1.8009
26628SOL     OW82515   3.701   3.682  10.081 -0.1826  0.0543  0.1851
26628SOL    HW182516   3.654   3.733  10.015 -0.2140  0.4254  0.4906
26628SOL    HW282517   3.638   3.617  10.112 -0.1452 -0.1670 -0.2004
26629SOL     OW82518   7.249   8.753   2.417 -0.3536 -0.0864 -0.5839
26629SOL    HW182519   7.189   8.701   2.363  0.3124 -1.9562  0.3863
26629SOL    HW282520   7.194   8.789   2.486 -0.5534 -0.8886 -0.3171
26630SOL     OW82521   3.318   0.895   6.056 -0.0512  0.1401  0.3810
26630SOL    HW182522   3.231   0.869   6.028 -0.4070  1.6017  0.0692
26630SOL    HW282523   3.358   0.814   6.087 -1.8846 -0.3726  1.5408
26631SOL     OW82524   9.576   7.842   5.577 -0.5902 -0.2790 -0.4256
26631SOL    HW182525   9.495   7.819   5.623  1.0156 -1.2450  2.1914
26631SOL    HW282526   9.609   7.759   5.544  1.3052 -0.6912  2.1848
26632SOL     OW82527   3.170   5.812   8.201 -0.2354 -0.5918 -0.1542
26632SOL    HW182528   3.175   5.720   8.177 -1.0875 -0.6064 -0.3147
26632SOL    HW282529   3.110   5.815   8.276 -0.7339 -0.1037 -0.5614
26633SOL     OW82530   5.763  10.344   4.857 -0.6857  0.0456 -0.6446
26633SOL    HW182531   5.786  10.250   4.855 -1.6907 -0.2537  0.7785
26633SOL    HW282532   5.821  10.381   4.923 -2.7301 -0.3211  1.4736
26634SOL     OW82533  10.228   2.109   8.076 -0.8109  0.1120  0.4936
26634SOL    HW182534  10.290   2.039   8.098 -1.5262 -0.6180  0.2446
26634SOL    HW282535  10.181   2.077   7.999 -1.2772  0.7898  0.4836
26635SOL     OW82536   5.002   5.753   4.137 -0.0694 -0.3409  0.1708
26635SOL    HW182537   5.006   5.659   4.151  1.2638 -0.3926 -0.4417
26635SOL    HW282538   5.063   5.769   4.065  1.7225  1.3170  1.9659
26636SOL     OW82539   5.291   7.553   7.580  0.1631 -0.5155 -0.1797
26636SOL    HW182540   5.257   7.636   7.612 -2.0018 -1.3170 -0.2157
26636SOL    HW282541   5.328   7.510   7.657 -0.0271 -0.1365  0.1225
26637SOL     OW82542   5.697   5.846   3.584 -0.1640 -0.1834  0.1879
26637SOL    HW182543   5.707   5.921   3.525 -0.1172  1.3519  2.0552
26637SOL    HW282544   5.603   5.842   3.602 -0.4461 -1.8157 -1.3663
26638SOL     OW82545   2.677   8.470   9.415  0.1205 -0.0240  0.6212
26638SOL    HW182546   2.669   8.413   9.339  1.6419  1.3088 -0.6119
26638SOL    HW282547   2.731   8.543   9.385  1.0713  0.3830  3.0936
26639SOL     OW82548   1.529   9.246   5.809  0.2898 -0.1010 -0.1745
26639SOL    HW182549   1.608   9.244   5.863 -0.0674  0.1493  0.3736
26639SOL    HW282550   1.461   9.277   5.868  0.0976  1.2086 -1.0415
26640SOL     OW82551   1.189   8.361  10.106 -0.0810  0.1150  0.3122
26640SOL    HW182552   1.219   8.451  10.120  2.1924 -0.6461  0.7809
26640SOL    HW282553   1.249   8.326  10.040 -1.8519 -0.6458 -0.9403
26641SOL     OW82554   1.774   5.263   1.895 -0.0864  0.0154  0.3583
26641SOL    HW182555   1.829   5.212   1.836 -0.5833 -0.0100 -0.0858
26641SOL    HW282556   1.836   5.313   1.948  0.3447  0.7313 -0.7951
26642SOL     OW82557   5.148   5.220   1.026 -0.7528 -0.0243 -0.2629
26642SOL    HW182558   5.096   5.300   1.019 -0.4530  0.1715 -0.2397
26642SOL    HW282559   5.083   5.149   1.024 -0.9215  0.1498 -1.7615
26643SOL     OW82560   8.142   2.096   5.193  0.0701  0.5044 -0.4363
26643SOL    HW182561   8.111   2.157   5.125  0.6981  1.0872 -0.2027
26643SOL    HW282562   8.211   2.144   5.239 -2.0862  1.1824  2.3626
26644SOL     OW82563   2.642   1.395   4.073  0.2281 -0.2605 -0.0970
26644SOL    HW182564   2.549   1.411   4.091  0.4490 -0.1679  1.0005
26644SOL    HW282565   2.678   1.482   4.056 -0.0447 -0.3761 -1.4298
26645SOL     OW82566   8.781   2.511   0.900 -0.0476  0.4299 -0.5808
26645SOL    HW182567   8.780   2.588   0.844  1.9707  0.6404 -0.4034
26645SOL    HW282568   8.872   2.505   0.931 -0.9306 -0.0778  2.1231
26646SOL     OW82569   8.733   5.521  10.019 -0.0742  0.2148  0.3287
26646SOL    HW182570   8.654   5.573  10.031 -0.0072  0.0891  1.4281
26646SOL    HW282571   8.805   5.579  10.044 -0.0206 -0.4558  1.9056
26647SOL     OW82572  10.343   5.862   9.454  0.0325 -0.0296  0.2067
26647SOL    HW182573  10.283   5.919   9.503 -0.3977  1.2082 -1.6684
26647SOL    HW282574  10.287   5.814   9.393  0.8318  0.7276 -1.1826
26648SOL     OW82575   4.622   7.101   4.424  0.0019 -0.2938  0.0865
26648SOL    HW182576   4.690   7.164   4.449 -1.2256  0.6895  1.0975
26648SOL    HW282577   4.576   7.143   4.351  1.3398 -1.5999 -1.5883
26649SOL     OW82578   6.775   7.489   8.341  0.4041 -0.0044  0.1927
26649SOL    HW182579   6.714   7.449   8.403  0.9396 -0.0270  0.7118
26649SOL    HW282580   6.719   7.530   8.275 -0.1845  0.5998  1.0534
26650SOL     OW82581   5.675   5.139   1.714  0.7748  0.7165 -0.1568
26650SOL    HW182582   5.615   5.191   1.768  2.2552  1.7927  0.5206
26650SOL    HW282583   5.660   5.171   1.625 -0.9314 -0.3273 -0.2949
26651SOL     OW82584   7.374   0.487   0.284 -0.3656  0.1133 -0.0899
26651SOL    HW182585   7.351   0.580   0.282  0.4830  0.3543  0.6982
26651SOL    HW282586   7.418   0.472   0.200  1.7740  1.0688  0.7891
26652SOL     OW82587   4.436   2.998   0.768  0.0126  0.0890 -0.3632
26652SOL    HW182588   4.500   2.964   0.830 -0.5348  2.3090  1.5671
26652SOL    HW282589   4.461   3.090   0.756 -2.4863  0.9133  0.1308
26653SOL     OW82590   1.663   0.923   9.168 -0.6684  0.3277  0.4432
26653SOL    HW182591   1.697   0.961   9.087 -0.2066 -0.6398  0.1787
26653SOL    HW282592   1.572   0.901   9.148 -0.5314  0.0188  0.1596
26654SOL     OW82593   1.576   2.526   9.678  0.6076  0.4198  0.0601
26654SOL    HW182594   1.632   2.599   9.651  2.4824 -1.4428 -1.3948
26654SOL    HW282595   1.548   2.485   9.597  0.1951 -0.8926  0.8212
26655SOL     OW82596   7.870   4.029   1.789 -0.5469  0.0748 -0.5634
26655SOL    HW182597   7.887   4.068   1.874  0.9249 -0.1898 -0.7090
26655SOL    HW282598   7.837   3.941   1.808  0.5803 -0.2871 -0.2704
26656SOL     OW82599   9.711   0.978   5.604 -0.7881 -0.2267 -0.3212
26656SOL    HW182600   9.690   0.894   5.645  0.7241 -0.4054  0.1539
26656SOL    HW282601   9.804   0.990   5.622 -0.7798  1.1205 -1.1820
26657SOL     OW82602   3.787   6.039   9.560  0.0438 -0.0828 -0.7200
26657SOL    HW182603   3.777   5.944   9.557 -1.1546  0.0286 -1.0577
26657SOL    HW282604   3.880   6.054   9.544  0.1243 -1.1721 -1.3901
26658SOL     OW82605   4.539   6.155   1.158 -0.1857  0.1825 -0.4142
26658SOL    HW182606   4.450   6.141   1.191 -0.2724  0.4423 -0.5371
26658SOL    HW282607   4.582   6.204   1.228  0.9754 -3.0109  1.3113
26659SOL     OW82608   3.173   5.065   1.100 -0.3993  0.6089  0.0605
26659SOL    HW182609   3.151   5.116   1.022  0.1060  0.0580 -0.4508
26659SOL    HW282610   3.269   5.062   1.101 -0.4138 -0.1413  0.1985
26660SOL     OW82611   6.932   4.201   6.096 -0.1598  0.2820 -0.7994
26660SOL    HW182612   6.930   4.296   6.106  0.3497  0.5698 -3.0165
26660SOL    HW282613   6.880   4.168   6.170 -0.7681  2.2787 -0.2811
26661SOL     OW82614   4.616   3.207   2.083  0.4815  0.1426  0.3178
26661SOL    HW182615   4.617   3.112   2.083  0.9125  0.1421  0.5175
26661SOL    HW282616   4.688   3.232   2.142  1.0805  0.5939 -0.5795
26662SOL     OW82617   1.012  10.261   8.376  0.4778 -0.1864  0.1222
26662SOL    HW182618   1.064  10.185   8.400  0.3583 -0.2847  0.0731
26662SOL    HW282619   0.984  10.244   8.286  0.0981 -0.2837  0.2562
26663SOL     OW82620   0.621   3.703   1.318 -0.1079 -0.5150  0.1766
26663SOL    HW182621   0.713   3.677   1.313 -0.3694 -1.3698 -0.3494
26663SOL    HW282622   0.620   3.793   1.286  0.5848 -0.3761  0.5121
26664SOL     OW82623   0.971   9.813   7.181 -0.7910  0.3544 -0.0726
26664SOL    HW182624   1.005   9.825   7.092 -1.9210 -1.8641 -0.8797
26664SOL    HW282625   0.878   9.834   7.174 -0.7816  0.6954  0.7300
26665SOL     OW82626   7.786   4.505   0.109 -0.3136  0.2057  0.3096
26665SOL    HW182627   7.692   4.502   0.092 -0.4101  2.6622  0.1615
26665SOL    HW282628   7.827   4.468   0.031 -1.0518  3.0523 -1.5240
26666SOL     OW82629   3.519   8.404   9.230 -0.4602  0.0839 -0.3362
26666SOL    HW182630   3.583   8.352   9.279  0.6132  0.6806 -1.0558
26666SOL    HW282631   3.443   8.347   9.221 -0.3038 -0.4026  1.1353
26667SOL     OW82632   2.074   3.371   8.411  0.0285 -0.0309 -0.3607
26667SOL    HW182633   2.080   3.422   8.331 -1.6009  2.2186  0.8193
26667SOL    HW282634   2.089   3.434   8.481  0.6675 -1.7598  1.1659
26668SOL     OW82635   6.237   3.454   1.181  0.6098  0.1020  0.2416
26668SOL    HW182636   6.213   3.503   1.102 -0.8431 -0.3950  0.3472
26668SOL    HW282637   6.316   3.406   1.156 -0.0436 -0.3501 -1.0484
26669SOL     OW82638   6.767   1.607   6.205 -0.6368 -0.5050  0.4154
26669SOL    HW182639   6.850   1.591   6.249 -0.3927  2.4575  1.2351
26669SOL    HW282640   6.781   1.575   6.115  1.5581  0.3309  0.4052
26670SOL     OW82641   9.775   2.045   2.291 -0.0647  0.7160  0.3813
26670SOL    HW182642   9.865   2.012   2.290 -0.5463 -0.6336  0.3019
26670SOL    HW282643   9.776   2.118   2.229  0.4528 -0.7900 -1.4733
26671SOL     OW82644   8.561   6.246   9.113 -0.1959  0.3808 -0.6933
26671SOL    HW182645   8.646   6.258   9.070  0.7538 -2.5011  0.1482
26671SOL    HW282646   8.583   6.212   9.200 -2.1940  1.7337  0.4132
26672SOL     OW82647   7.196   2.057   0.583 -0.2966  0.0246  0.4349
26672SOL    HW182648   7.236   1.973   0.606 -0.8091 -0.7215 -1.2297
26672SOL    HW282649   7.262   2.103   0.532  0.5005  1.2843  2.4808
26673SOL     OW82650   0.744  10.266   5.737 -0.2522  0.3147  0.1061
26673SOL    HW182651   0.737  10.179   5.775 -0.6900 -0.2094 -1.1374
26673SOL    HW282652   0.828  10.300   5.769  1.1769 -1.5796 -1.4590
26674SOL     OW82653   1.953   2.671   7.094  0.3451 -0.2276 -0.3316
26674SOL    HW182654   1.874   2.638   7.051  0.6616 -1.1484 -0.2150
26674SOL    HW282655   1.975   2.604   7.158  2.5941 -1.2029 -1.9793
26675SOL     OW82656   2.873   6.543  10.340 -0.0186  0.2714 -0.1258
26675SOL    HW182657   2.903   6.516  10.427  1.4697  1.1607 -0.3203
26675SOL    HW282658   2.820   6.621  10.356 -1.9622 -1.0522  0.1804
26676SOL     OW82659   2.856   4.925   9.024 -0.1995 -0.0026 -0.3797
26676SOL    HW182660   2.891   4.866   9.090 -0.4570 -1.0345 -1.1370
26676SOL    HW282661   2.928   4.984   9.004  0.7375 -1.3186 -1.0354
26677SOL     OW82662   2.824   4.735   3.709 -0.8909 -0.2619 -0.1840
26677SOL    HW182663   2.756   4.771   3.652 -0.6672  0.6141  0.0742
26677SOL    HW282664   2.815   4.640   3.702  0.3902 -0.2732 -3.2531
26678SOL     OW82665   4.502   0.941   5.321 -0.5022 -0.1672 -0.3817
26678SOL    HW182666   4.502   0.846   5.312 -0.6198 -0.2132  0.0773
26678SOL    HW282667   4.591   0.962   5.349 -0.5054 -0.1520 -0.3833
26679SOL     OW82668   8.605   0.171   2.449 -0.0461 -0.3588 -0.4024
26679SOL    HW182669   8.650   0.090   2.472  1.1872  0.5393  0.5328
26679SOL    HW282670   8.655   0.206   2.375  0.5583  0.4278  0.3573
26680SOL     OW82671   5.960   1.114   2.868 -0.2651 -0.0033  0.3651
26680SOL    HW182672   5.907   1.037   2.889 -1.5445  0.9518  0.8174
26680SOL    HW282673   5.948   1.127   2.774 -1.9488  0.9274  0.6513
26681SOL     OW82674   5.183   6.034   8.486  0.0258  0.1296  0.5260
26681SOL    HW182675   5.243   6.053   8.558 -0.6883  0.1671  1.1257
26681SOL    HW282676   5.224   6.075   8.409  0.1822  1.1836  1.1495
26682SOL     OW82677   8.303   6.179  10.025  0.2657  0.8117  0.3690
26682SOL    HW182678   8.295   6.112   9.957  1.6441 -0.1700  1.1117
26682SOL    HW282679   8.393   6.172  10.055 -0.1773  1.4969  2.0007
26683SOL     OW82680   2.028   2.421   6.641  0.2570  0.3785  0.4181
26683SOL    HW182681   2.117   2.445   6.669  0.7513 -0.1658 -0.6365
26683SOL    HW282682   2.023   2.451   6.550 -0.6656  0.4497  0.4847
26684SOL     OW82683   2.822   9.034   8.658  0.4163  0.1298 -0.0344
26684SOL    HW182684   2.745   8.997   8.616  0.4025  1.2227 -1.0130
26684SOL    HW282685   2.837   8.977   8.734 -0.5130 -0.9189 -0.6053
26685SOL     OW82686   5.233  10.019   5.999 -0.8145 -0.0802 -0.5024
26685SOL    HW182687   5.299  10.018   5.930 -0.3580 -0.4181 -0.0721
26685SOL    HW282688   5.277   9.981   6.075 -1.1026  0.8615  0.1610
26686SOL     OW82689   3.047   0.479   2.397 -1.0077 -0.9146  0.4885
26686SOL    HW182690   3.014   0.526   2.320  2.4770 -0.4053 -0.8965
26686SOL    HW282691   3.082   0.396   2.362  1.6176 -0.2250  1.1934
26687SOL     OW82692   4.616   6.336   4.253  0.0240 -0.0269 -0.4900
26687SOL    HW182693   4.549   6.401   4.274  1.5862  1.0355  1.5593
26687SOL    HW282694   4.616   6.331   4.157 -2.4371  0.4431 -0.5842
26688SOL     OW82695   2.487   5.778  10.031 -0.0134  0.4687 -0.0903
26688SOL    HW182696   2.498   5.764  10.125  1.2407 -0.9488 -0.4027
26688SOL    HW282697   2.549   5.848  10.010  1.1762 -0.5564 -0.1458
26689SOL     OW82698   8.830   6.037   7.131  0.3793 -0.2567 -0.0804
26689SOL    HW182699   8.811   6.047   7.224  0.9842  1.4853 -0.1094
26689SOL    HW282700   8.746   6.055   7.088  0.8120  2.4979  0.0204
26690SOL     OW82701   6.286   7.364   7.885 -0.1850 -0.4809 -0.0838
26690SOL    HW182702   6.215   7.338   7.944 -0.2510  1.1357  0.6073
26690SOL    HW282703   6.300   7.288   7.829 -2.5166 -0.8405 -0.2876
26691SOL     OW82704   7.371   8.481   9.356 -0.1870  0.1962  0.1174
26691SOL    HW182705   7.458   8.507   9.325 -0.7116  0.0135 -1.6346
26691SOL    HW282706   7.336   8.428   9.285 -2.3589  1.5657  0.0774
26692SOL     OW82707  10.176   6.697   8.907 -0.1996  0.2883  0.4642
26692SOL    HW182708  10.236   6.633   8.944 -0.4179 -0.7390 -0.8695
26692SOL    HW282709  10.225   6.738   8.836 -0.9089 -0.2785 -0.3797
26693SOL     OW82710   3.293   3.347   3.638  0.4436  0.0254  0.3421
26693SOL    HW182711   3.207   3.389   3.647  1.2028  1.7769 -0.0119
26693SOL    HW282712   3.343   3.379   3.713  0.9631 -0.4952  0.2245
26694SOL     OW82713   2.987   5.698   7.609 -0.3585 -0.0463  0.1931
26694SOL    HW182714   3.081   5.681   7.619 -0.5685 -3.1922 -1.8762
26694SOL    HW282715   2.945   5.639   7.672 -0.9472 -1.1173 -1.1379
26695SOL     OW82716   0.568   4.604   0.103 -0.0975 -0.1144 -0.3484
26695SOL    HW182717   0.567   4.653   0.021  2.0842  1.2987  0.3761
26695SOL    HW282718   0.628   4.531   0.087  1.2336  0.8132  0.2945
26696SOL     OW82719   1.515   9.920   4.281 -0.3441 -0.1343  0.6613
26696SOL    HW182720   1.456   9.849   4.258 -0.9620  0.4261  0.4779
26696SOL    HW282721   1.464  10.000   4.266  0.6070  0.3853  0.0307
26697SOL     OW82722   7.078   7.175   8.332 -0.3254 -0.4229  0.1215
26697SOL    HW182723   7.094   7.264   8.365  2.5594 -0.2462 -1.3933
26697SOL    HW282724   6.983   7.164   8.339 -0.6459  2.2323  1.6411
26698SOL     OW82725   8.824   6.345   6.513  0.1708 -0.0656  0.4214
26698SOL    HW182726   8.906   6.350   6.465 -0.1540  1.8474 -0.0381
26698SOL    HW282727   8.756   6.345   6.445 -0.2268 -0.6289  0.8132
26699SOL     OW82728   4.702   0.322   5.800  0.3958 -0.0456 -0.3583
26699SOL    HW182729   4.686   0.229   5.781 -1.2971  0.1538 -0.1217
26699SOL    HW282730   4.708   0.363   5.714  0.0586 -0.2300 -0.4743
26700SOL     OW82731   4.964   2.770   4.999 -0.9474 -0.1928 -0.3156
26700SOL    HW182732   4.945   2.863   5.013 -1.1955 -0.1952 -0.6229
26700SOL    HW282733   4.878   2.730   4.986 -0.8591 -0.5066  0.0532
26701SOL     OW82734   4.679   1.637   7.090 -0.2098  1.0469 -0.1218
26701SOL    HW182735   4.722   1.598   7.014 -0.2523  0.3090  0.2327
26701SOL    HW282736   4.632   1.565   7.132 -0.3779  1.4944  0.4765
26702SOL     OW82737   1.728   3.498   8.212  0.2004  0.3622  0.3186
26702SOL    HW182738   1.679   3.570   8.252 -0.6051 -0.7781  1.4691
26702SOL    HW282739   1.660   3.437   8.183  0.8942 -0.6344  0.7444
26703SOL     OW82740   1.350   4.612   2.908 -0.4245  0.0255 -0.0514
26703SOL    HW182741   1.445   4.612   2.920 -0.0506 -3.2643 -1.9199
26703SOL    HW282742   1.315   4.605   2.997  1.2871 -2.0364  0.5396
26704SOL     OW82743   3.555   4.228   1.989  0.3636  0.1089 -0.0922
26704SOL    HW182744   3.509   4.312   1.997 -2.2247 -1.2526  0.6611
26704SOL    HW282745   3.621   4.230   2.058 -0.9294  0.8143  1.1885
26705SOL     OW82746   2.541   5.599   8.176  0.0331 -0.9748 -0.0707
26705SOL    HW182747   2.478   5.619   8.107  0.0364 -0.7604 -0.0132
26705SOL    HW282748   2.624   5.633   8.142 -0.0361 -0.5259  0.2006
26706SOL     OW82749   0.172   9.668   6.198  0.5798 -0.0874 -0.2543
26706SOL    HW182750   0.162   9.650   6.104  0.5909 -1.0595 -0.0849
26706SOL    HW282751   0.267   9.678   6.210  0.6582 -0.7662 -0.2279
26707SOL     OW82752   9.536   3.567   5.075 -0.2838 -0.0466 -0.0689
26707SOL    HW182753   9.511   3.491   5.128 -1.4087  0.4874  0.2101
26707SOL    HW282754   9.458   3.585   5.022  0.3395  0.2796 -0.8920
26708SOL     OW82755   6.784   4.384   8.760 -0.1693  0.3671  0.0823
26708SOL    HW182756   6.703   4.346   8.794 -0.6316 -1.0066 -2.3033
26708SOL    HW282757   6.762   4.476   8.746 -1.2471  0.0773 -0.2593
26709SOL     OW82758   2.420   4.958   4.695 -0.0578 -0.0728  0.8462
26709SOL    HW182759   2.381   4.979   4.780 -0.8168  0.0612  0.4691
26709SOL    HW282760   2.478   5.032   4.676 -0.4329  0.2419  0.9155
26710SOL     OW82761   3.706   5.908   1.419 -0.1010  1.1326  0.3655
26710SOL    HW182762   3.759   5.988   1.419 -0.4238  1.3491  0.3506
26710SOL    HW282763   3.627   5.932   1.468  0.9667  0.0229  2.7893
26711SOL     OW82764   8.915   2.584   5.218  0.0053  0.0190  0.4702
26711SOL    HW182765   8.878   2.576   5.306  0.2938 -4.2213  0.4024
26711SOL    HW282766   9.009   2.565   5.230 -0.1567 -1.8188 -0.8178
26712SOL     OW82767   0.991   7.427   1.356  0.1084  0.0226 -0.2840
26712SOL    HW182768   0.952   7.472   1.431 -0.1600 -0.8877  0.1356
26712SOL    HW282769   1.011   7.339   1.389  0.1566 -0.3239 -1.2246
26713SOL     OW82770   9.248   2.776   8.299  0.1160 -0.0201  0.3137
26713SOL    HW182771   9.202   2.847   8.255 -2.0958 -0.9229  1.0212
26713SOL    HW282772   9.202   2.767   8.383  0.6158 -2.0015  0.4073
26714SOL     OW82773   8.792   8.657   5.351 -0.1747 -0.1366  0.2437
26714SOL    HW182774   8.861   8.607   5.395  0.3132 -0.8757 -1.3093
26714SOL    HW282775   8.771   8.606   5.273 -0.5192  1.4752 -0.7600
26715SOL     OW82776   2.570   9.906   7.531  0.3307  0.4282  0.0578
26715SOL    HW182777   2.604   9.989   7.498  1.9067 -0.6968 -1.2870
26715SOL    HW282778   2.486   9.895   7.485  0.7823  0.6219 -0.8398
26716SOL     OW82779   1.315   6.472   4.951  0.1891 -0.3940  0.0158
26716SOL    HW182780   1.349   6.506   5.034 -1.0245 -0.1943  0.4469
26716SOL    HW282781   1.220   6.483   4.958  0.1429  0.6203 -1.8380
26717SOL     OW82782   3.313  10.219   2.401  0.1520  0.8350  0.0186
26717SOL    HW182783   3.377  10.177   2.460  0.3355  1.4479  0.2601
26717SOL    HW282784   3.231  10.172   2.418  0.7917 -0.8622 -1.2357
26718SOL     OW82785   1.714   0.711   7.527 -0.1687  0.3678 -0.4986
26718SOL    HW182786   1.719   0.615   7.524  1.4314  0.4573 -3.4184
26718SOL    HW282787   1.740   0.733   7.617  0.4210 -1.8776 -0.0588
26719SOL     OW82788   0.884   9.459   0.689 -0.4497 -0.4924  0.3370
26719SOL    HW182789   0.816   9.392   0.687  0.1258 -1.1991  2.2880
26719SOL    HW282790   0.869   9.505   0.771  1.9584 -1.2690  1.2854
26720SOL     OW82791   5.124   0.743   5.247  0.2931  0.1588  0.0729
26720SOL    HW182792   5.034   0.709   5.248  0.6763 -0.9587 -0.8873
26720SOL    HW282793   5.174   0.675   5.202  2.0932 -0.3623  2.6422
26721SOL     OW82794   1.720   7.984   8.742  0.5741  0.2074 -0.1226
26721SOL    HW182795   1.802   7.945   8.712  0.1446 -0.9435  0.1446
26721SOL    HW282796   1.737   8.078   8.742  0.8269  0.2835 -3.3106
26722SOL     OW82797   9.480   3.117   2.942  0.0997 -0.6125  0.1215
26722SOL    HW182798   9.557   3.101   2.997 -0.2536 -2.3470  0.1719
26722SOL    HW282799   9.420   3.166   2.998  0.4973 -0.6997  0.6351
26723SOL     OW82800   8.878   9.953   2.962 -0.0405  1.0701  0.2450
26723SOL    HW182801   8.916   9.908   3.037  0.6468  0.2516 -0.5615
26723SOL    HW282802   8.954   9.978   2.909 -0.5611 -1.0969 -1.6859
26724SOL     OW82803   0.678   0.492   3.355 -0.0339  0.1348  0.1193
26724SOL    HW182804   0.593   0.526   3.329  0.4544 -0.0831 -1.8828
26724SOL    HW282805   0.663   0.398   3.370  0.1845 -0.3302 -2.1786
26725SOL     OW82806   9.679   1.636   8.232 -0.0139  0.9242 -0.4467
26725SOL    HW182807   9.693   1.541   8.232  1.1750  1.0852 -1.2974
26725SOL    HW282808   9.711   1.665   8.147 -1.3766  1.9577 -0.6393
26726SOL     OW82809   4.812   1.322   2.780 -0.5499 -0.2586  0.2977
26726SOL    HW182810   4.891   1.354   2.735  0.0236 -0.9609  0.7880
26726SOL    HW282811   4.845   1.282   2.860 -1.5538  1.0104  1.3886
26727SOL     OW82812  10.166   0.802   8.709  0.2878 -0.4017 -0.1501
26727SOL    HW182813  10.147   0.847   8.627  1.5810  2.2157  0.8708
26727SOL    HW282814  10.142   0.866   8.777  0.1065 -2.1380  1.4965
26728SOL     OW82815   1.574   2.153   9.954  0.1452  0.0567 -0.5339
26728SOL    HW182816   1.490   2.115   9.928 -0.9930  0.3716  2.3252
26728SOL    HW282817   1.565   2.246   9.935 -0.0976  0.0730 -0.3344
26729SOL     OW82818   0.878   1.930   4.167  0.3145  0.0036 -0.1586
26729SOL    HW182819   0.856   1.856   4.224  0.0680 -0.7350 -1.1891
26729SOL    HW282820   0.944   1.979   4.216  0.8841 -1.2000  0.3183
26730SOL     OW82821   1.927   8.075   5.968 -0.0227 -0.1504 -0.2642
26730SOL    HW182822   1.943   7.982   5.950  0.2459 -0.1855  0.1389
26730SOL    HW282823   2.012   8.108   5.998 -0.1814  0.1691 -0.1680
26731SOL     OW82824   9.189   6.743   3.585  0.6149 -0.3086 -0.0799
26731SOL    HW182825   9.232   6.661   3.607 -0.1585 -0.5946  0.4290
26731SOL    HW282826   9.241   6.810   3.629  1.4718 -0.4752 -0.8146
26732SOL     OW82827   5.278   5.892   5.166  0.3237  0.1385  0.0263
26732SOL    HW182828   5.362   5.853   5.141 -0.5547 -1.2709 -0.8042
26732SOL    HW282829   5.249   5.839   5.241  0.2765  0.7802  0.4694
26733SOL     OW82830  10.257   6.213   9.915  0.3147  0.4854 -0.2769
26733SOL    HW182831  10.175   6.261   9.926  0.3680  0.3935  0.5747
26733SOL    HW282832  10.234   6.121   9.930  0.5307  0.4379 -0.2259
26734SOL     OW82833   6.540   5.021   9.783  0.4883  0.2431  0.9030
26734SOL    HW182834   6.611   5.052   9.840 -0.1002  1.7792  0.8472
26734SOL    HW282835   6.473   5.089   9.791  1.0224  1.4157 -2.8754
26735SOL     OW82836  10.067   6.305   3.119 -0.1295 -0.7862 -0.0040
26735SOL    HW182837  10.059   6.213   3.093 -0.6504 -0.2707 -1.8094
26735SOL    HW282838   9.977   6.338   3.120  0.0053 -0.3836  1.1036
26736SOL     OW82839   9.473   2.654   8.424  0.4877 -0.1519 -0.0637
26736SOL    HW182840   9.393   2.702   8.404  1.2437  1.1568 -0.0212
26736SOL    HW282841   9.507   2.625   8.339  0.3448 -0.0974 -0.1381
26737SOL     OW82842   2.764   9.640   9.891  0.0102 -0.4784  0.1062
26737SOL    HW182843   2.691   9.580   9.903  0.8354 -2.1627 -2.4232
26737SOL    HW282844   2.831   9.588   9.846  1.5914  1.7975 -0.3710
26738SOL     OW82845   0.922   6.599   9.520 -0.6797 -0.4295  0.1429
26738SOL    HW182846   0.848   6.548   9.552 -1.7835  1.0567  0.0694
26738SOL    HW282847   0.923   6.678   9.575  1.7380 -1.0072  1.0810
26739SOL     OW82848   0.708   9.493   9.079  0.3646 -0.2391 -0.3141
26739SOL    HW182849   0.671   9.442   9.151  2.1004 -1.9588 -0.5520
26739SOL    HW282850   0.641   9.559   9.059  0.3523  1.3498  3.8207
26740SOL     OW82851   6.819   5.461   2.351  0.2014 -0.1705 -0.5126
26740SOL    HW182852   6.798   5.530   2.287 -1.4963 -0.8690 -0.7700
26740SOL    HW282853   6.824   5.506   2.435 -2.0321  0.1571 -0.5033
26741SOL     OW82854   0.390   9.126   3.864 -0.2252  0.0133 -0.4169
26741SOL    HW182855   0.318   9.079   3.907  0.9925 -0.6951  0.9551
26741SOL    HW282856   0.408   9.075   3.785  0.0349 -0.9811  0.2476
26742SOL     OW82857   4.048   9.817   2.017 -0.0353  0.1078  0.0894
26742SOL    HW182858   4.137   9.809   1.982  0.3343  0.8917  0.8051
26742SOL    HW282859   4.015   9.727   2.019  0.7779 -0.2053 -0.0991
26743SOL     OW82860   7.975   1.445   0.734  0.5459  0.0090  0.1965
26743SOL    HW182861   7.958   1.536   0.755  2.6048  0.0058  2.3388
26743SOL    HW282862   7.889   1.402   0.738 -0.3397  1.6837 -0.1431
26744SOL     OW82863   5.499   4.449   6.957  0.2157 -0.0574 -0.0907
26744SOL    HW182864   5.488   4.522   7.018  1.3539  0.1141 -0.0567
26744SOL    HW282865   5.508   4.491   6.871 -0.6308 -0.2544 -0.2808
26745SOL     OW82866   5.023   7.018   8.625 -0.2803  0.0819  0.0812
26745SOL    HW182867   4.957   7.084   8.645 -1.3190 -0.5211 -1.1645
26745SOL    HW282868   5.006   6.994   8.534  1.8773  0.1258 -0.3951
26746SOL     OW82869   1.842   3.016   0.443 -0.5916  0.0408 -0.4712
26746SOL    HW182870   1.767   2.971   0.482 -0.1067 -1.5811 -1.2959
26746SOL    HW282871   1.821   3.109   0.449 -2.9267 -0.3928 -1.2285
26747SOL     OW82872   1.063   7.865   5.797  0.1530 -0.4412  0.1758
26747SOL    HW182873   0.971   7.863   5.767  0.5240 -1.1662 -0.9950
26747SOL    HW282874   1.114   7.859   5.716  1.2351 -0.8627  0.8686
26748SOL     OW82875   1.651   8.792   1.732 -0.5431 -0.2136  0.1394
26748SOL    HW182876   1.711   8.867   1.741  0.7917 -1.0628 -1.1484
26748SOL    HW282877   1.665   8.741   1.812  3.0654 -2.1152 -1.4619
26749SOL     OW82878   8.453   8.164   6.011 -0.0374 -0.2347 -0.5249
26749SOL    HW182879   8.429   8.113   6.088 -1.1567  3.2412  1.6426
26749SOL    HW282880   8.412   8.117   5.938 -2.2847 -1.6085  1.4708
26750SOL     OW82881   5.755   5.507   4.123  0.2023  0.5072  0.9666
26750SOL    HW182882   5.722   5.424   4.089 -1.0419  0.9858  0.9095
26750SOL    HW282883   5.746   5.500   4.218 -2.4203  1.4779  0.8859
26751SOL     OW82884   4.301   7.204   5.986  0.4882 -0.0421 -0.3180
26751SOL    HW182885   4.384   7.250   5.982  1.0631 -0.7984  1.8388
26751SOL    HW282886   4.237   7.270   6.012  0.8904  0.0426  0.4838
26752SOL     OW82887   7.421   4.237   7.423  0.0422 -0.6365 -0.1700
26752SOL    HW182888   7.333   4.210   7.449  0.1816 -0.2171  0.7821
26752SOL    HW282889   7.441   4.311   7.481  1.2619 -1.1353  0.0619
26753SOL     OW82890   4.560   2.933   2.056 -0.4713 -0.4547 -0.1830
26753SOL    HW182891   4.492   2.936   1.989 -0.2584  0.3975 -0.3832
26753SOL    HW282892   4.623   2.868   2.024 -0.7603 -0.6146 -0.4244
26754SOL     OW82893   7.239   1.611   4.054  0.0526 -0.2211  0.2125
26754SOL    HW182894   7.158   1.661   4.042  1.2449  1.5858 -0.5693
26754SOL    HW282895   7.238   1.587   4.147 -1.2364 -0.0035  0.2840
26755SOL     OW82896   8.404   7.652   4.392  0.2627 -0.1607 -0.2906
26755SOL    HW182897   8.365   7.588   4.332  2.4256 -0.5420 -1.3543
26755SOL    HW282898   8.429   7.600   4.469 -0.5201 -0.0498  0.0576
26756SOL     OW82899   4.015   5.109   9.720  0.1934 -0.7197 -0.1862
26756SOL    HW182900   3.942   5.124   9.660  1.2360  1.4715 -1.0233
26756SOL    HW282901   4.092   5.106   9.663  1.3688  2.6250  1.0115
26757SOL     OW82902   8.889   2.100   2.812  0.0541  0.5829 -0.0011
26757SOL    HW182903   8.876   2.193   2.827  0.8839  0.6380  0.4204
26757SOL    HW282904   8.922   2.066   2.895  0.6604  0.0969 -0.4250
26758SOL     OW82905   0.219   0.338   6.850  0.0836 -0.4320 -0.6049
26758SOL    HW182906   0.242   0.245   6.848 -1.2222 -0.7826 -0.3508
26758SOL    HW282907   0.131   0.340   6.888 -0.5778  0.7585 -2.0876
26759SOL     OW82908   7.086   3.962   0.173  0.0341  0.8422  0.6185
26759SOL    HW182909   6.991   3.954   0.167  0.0330  1.3324 -0.2616
26759SOL    HW282910   7.108   3.924   0.258 -0.6229 -1.9697 -0.3606
26760SOL     OW82911   4.269   7.415   4.559 -0.4230 -0.0438 -0.4611
26760SOL    HW182912   4.283   7.382   4.471 -1.4110 -0.8148 -0.3518
26760SOL    HW282913   4.342   7.379   4.610  0.4723  0.8691 -1.0479
26761SOL     OW82914   9.981   1.918   2.489  0.2747  0.1267  0.4028
26761SOL    HW182915   9.903   1.943   2.538  0.7286 -1.4871  2.0860
26761SOL    HW282916  10.054   1.932   2.551  0.8100 -2.4913  0.4685
26762SOL     OW82917   6.417   8.851   8.854 -0.6369 -0.2765  0.5615
26762SOL    HW182918   6.402   8.829   8.946 -1.3731 -0.4962  0.3962
26762SOL    HW282919   6.349   8.915   8.833 -0.6558 -0.4421  0.0992
26763SOL     OW82920  10.350   6.731   4.989  0.3530  0.0833 -0.2621
26763SOL    HW182921  10.374   6.640   4.968 -2.3769 -0.7456 -0.1498
26763SOL    HW282922  10.255   6.734   4.977  0.1688  2.5564  1.1860
26764SOL     OW82923   1.103   0.168   0.406  0.1763 -0.0870 -0.3114
26764SOL    HW182924   1.118   0.158   0.500 -0.1173  0.6972 -0.1750
26764SOL    HW282925   1.057   0.088   0.381 -0.5636  0.1038  0.3984
26765SOL     OW82926   8.668   9.331  10.293  0.2176 -0.2649 -0.2356
26765SOL    HW182927   8.731   9.286  10.237  0.3710  1.2257 -1.3269
26765SOL    HW282928   8.592   9.273  10.296  1.1206 -1.4768  0.0205
26766SOL     OW82929   3.841   2.112   4.909  0.1373  0.0899  0.2264
26766SOL    HW182930   3.852   2.200   4.870  0.0175  0.1012  0.2197
26766SOL    HW282931   3.927   2.092   4.946  0.4423 -0.1894 -0.6042
26767SOL     OW82932   0.037   6.368   4.677 -0.4242 -0.0238  0.1544
26767SOL    HW182933  -0.046   6.415   4.672  0.1204  1.1120  1.2228
26767SOL    HW282934   0.093   6.410   4.612  0.1123  0.9420  1.2162
26768SOL     OW82935   3.834   9.317   3.578  0.7783 -0.2192  0.1713
26768SOL    HW182936   3.874   9.321   3.491 -0.5980 -2.6408 -0.6569
26768SOL    HW282937   3.754   9.370   3.570  1.5618  1.0569  0.5442
26769SOL     OW82938   3.948   3.973   9.524 -0.0008 -0.2809  0.3930
26769SOL    HW182939   3.853   3.979   9.510 -0.4939 -2.0205  2.3827
26769SOL    HW282940   3.986   4.004   9.442 -2.3300 -1.0692 -1.1100
26770SOL     OW82941   6.885   4.467   5.239 -0.6423 -0.0208  0.0150
26770SOL    HW182942   6.826   4.456   5.164 -0.3158  0.0702 -0.2637
26770SOL    HW282943   6.831   4.451   5.316 -0.7033 -1.3661 -0.2863
26771SOL     OW82944   6.544   1.705   1.008 -0.6079  0.6540  0.1426
26771SOL    HW182945   6.506   1.675   0.925  1.2807  0.9626 -0.8790
26771SOL    HW282946   6.583   1.790   0.988  2.1413 -0.3921  0.6093
26772SOL     OW82947   0.360   8.102   3.900 -0.0722  0.3332 -0.6980
26772SOL    HW182948   0.455   8.099   3.911 -0.0867  2.0821  0.3624
26772SOL    HW282949   0.329   8.022   3.941  0.8005  1.0053  1.4448
26773SOL     OW82950   1.920   8.797   1.293  0.4379  0.0248 -0.3523
26773SOL    HW182951   1.844   8.792   1.351 -0.8608  0.8083 -1.9331
26773SOL    HW282952   1.905   8.874   1.238  2.1870 -0.0275 -0.9807
26774SOL     OW82953   6.068   9.248   3.213  0.2350 -0.1360 -0.3185
26774SOL    HW182954   6.057   9.174   3.273  0.0231  0.4885  0.4392
26774SOL    HW282955   6.149   9.290   3.242 -1.8623  2.5803  2.3061
26775SOL     OW82956   1.626   4.790   9.099 -0.0287 -0.2848  0.3265
26775SOL    HW182957   1.560   4.859   9.104  0.3516  0.0910  0.2552
26775SOL    HW282958   1.707   4.833   9.128 -0.4929 -1.6843  4.3587
26776SOL     OW82959   1.694   4.206   4.578 -0.4570 -0.1378 -0.0763
26776SOL    HW182960   1.722   4.283   4.528 -0.1685 -0.5047 -0.4849
26776SOL    HW282961   1.708   4.133   4.519 -0.1983 -0.5722  0.5128
26777SOL     OW82962   6.656   6.903   5.594  0.1544 -0.5412 -0.0039
26777SOL    HW182963   6.662   6.823   5.646 -1.4413  0.2883  1.5600
26777SOL    HW282964   6.610   6.965   5.650 -1.6650  0.4258 -2.3640
26778SOL     OW82965   6.976   5.448   4.756 -0.2120 -0.2422  0.4311
26778SOL    HW182966   6.928   5.513   4.807  0.9432 -0.4030  1.7927
26778SOL    HW282967   7.039   5.498   4.706  1.9939 -0.3279  2.9193
26779SOL     OW82968   9.573   7.941   1.889  0.0832  0.4482 -0.2244
26779SOL    HW182969   9.513   7.969   1.958  0.3336 -0.5188  0.3949
26779SOL    HW282970   9.652   7.993   1.904 -0.4106  1.3912 -0.7649
26780SOL     OW82971   7.588   4.622   2.944 -0.0329 -0.2339  0.3130
26780SOL    HW182972   7.632   4.707   2.947 -2.1666  0.9107  0.4234
26780SOL    HW282973   7.640   4.567   3.003  1.9699  0.6508 -0.5252
26781SOL     OW82974   1.899   4.257   6.256 -0.3732 -0.4972 -0.2208
26781SOL    HW182975   1.982   4.305   6.250 -0.7192 -0.0018 -1.3306
26781SOL    HW282976   1.909   4.200   6.332 -0.1430  1.7287  1.5298
26782SOL     OW82977   0.272  10.194  10.021 -0.1739  0.1623 -0.1732
26782SOL    HW182978   0.265  10.289  10.020 -1.5066  0.1275  1.1120
26782SOL    HW282979   0.364  10.176  10.005  0.0457  1.6403 -0.7658
26783SOL     OW82980   5.422   2.183   5.146  0.5062  0.7735  0.7425
26783SOL    HW182981   5.477   2.211   5.072  1.2549  0.5300  1.1908
26783SOL    HW282982   5.333   2.186   5.112  0.8749  0.1127 -0.3548
26784SOL     OW82983   0.326   2.240   4.765 -0.1183 -0.0735  0.5612
26784SOL    HW182984   0.340   2.326   4.804 -1.7596  0.6318 -0.2950
26784SOL    HW282985   0.262   2.255   4.696  1.0587 -1.6436 -0.9810
26785SOL     OW82986   4.446   5.272   3.691 -0.3481 -0.5813  0.4038
26785SOL    HW182987   4.404   5.275   3.605 -1.3750 -1.4197  0.8467
26785SOL    HW282988   4.380   5.309   3.750  0.0520 -0.7232  0.9412
26786SOL     OW82989   2.589   6.674   4.893 -0.5406 -0.5975 -0.3701
26786SOL    HW182990   2.502   6.715   4.890 -1.3571 -2.2431 -0.2615
26786SOL    HW282991   2.622   6.680   4.803 -1.0178 -0.4587 -0.5357
26787SOL     OW82992   1.118   7.635   0.392  0.2235 -0.2497  1.0637
26787SOL    HW182993   1.125   7.730   0.380 -0.3783 -0.3079  0.1119
26787SOL    HW282994   1.086   7.624   0.481  0.4418  0.4318  1.2334
26788SOL     OW82995   1.834   3.544   8.574 -0.1359 -0.0080 -0.5711
26788SOL    HW182996   1.920   3.566   8.611 -1.5544  2.4809  1.5766
26788SOL    HW282997   1.847   3.549   8.479  2.0811  0.2291 -0.3122
26789SOL     OW82998   2.934   4.583   2.009 -0.1422  0.1365 -0.6943
26789SOL    HW182999   2.852   4.535   2.010 -0.8967  1.3195  1.5398
26789SOL    HW283000   2.998   4.521   2.044 -0.8608  0.3115  1.0148
26790SOL     OW83001   4.922   1.883   3.126  0.3341  0.3724 -0.0117
26790SOL    HW183002   4.832   1.864   3.155  0.3947  1.5218  1.0186
26790SOL    HW283003   4.913   1.905   3.033 -0.5050  0.7460  0.1486
26791SOL     OW83004   1.559   3.484   4.415 -0.2506  0.1942 -0.7116
26791SOL    HW183005   1.566   3.515   4.505 -1.4151  0.2421 -0.6307
26791SOL    HW283006   1.533   3.392   4.423  0.0743  0.0721 -1.0042
26792SOL     OW83007   2.331   3.688   7.026 -0.1458  0.1324 -0.0873
26792SOL    HW183008   2.285   3.758   6.979  0.9490 -0.6201 -2.4412
26792SOL    HW283009   2.271   3.614   7.023  0.5797 -0.4402 -1.9614
26793SOL     OW83010   8.716   2.511   0.513  0.0559 -0.4573 -0.5399
26793SOL    HW183011   8.669   2.595   0.516  1.1620  0.2716 -2.1138
26793SOL    HW283012   8.648   2.446   0.493 -0.7216  0.1450  0.0796
26794SOL     OW83013   2.941   5.058   2.352  0.1845 -0.5093  0.2826
26794SOL    HW183014   3.027   5.086   2.322 -0.3629  1.4099  0.3421
26794SOL    HW283015   2.902   5.012   2.277  0.3649  0.7043 -0.5765
26795SOL     OW83016   8.755   3.339   7.332 -0.8572 -0.2425 -0.6384
26795SOL    HW183017   8.834   3.286   7.336 -1.0948 -0.6760 -1.4288
26795SOL    HW283018   8.766   3.392   7.253 -1.6629 -0.8157 -1.1470
26796SOL     OW83019   6.094   0.593   1.570 -0.2993  0.9652 -0.3114
26796SOL    HW183020   6.153   0.608   1.644  0.7451  1.7859 -1.2860
26796SOL    HW283021   6.123   0.510   1.532 -0.1730  1.0678 -0.4352
26797SOL     OW83022   5.424   6.111   2.858 -0.3376 -0.0964  0.2989
26797SOL    HW183023   5.479   6.090   2.782  1.4603  0.6953  1.3325
26797SOL    HW283024   5.370   6.184   2.828 -1.1393 -1.1282 -0.8538
26798SOL     OW83025   7.951   3.782   3.681 -0.3225 -0.9168  0.1814
26798SOL    HW183026   7.930   3.746   3.594 -1.2996 -1.4004  0.5985
26798SOL    HW283027   7.893   3.735   3.741  0.0486 -0.2938  1.0489
26799SOL     OW83028   3.397   3.434   7.346  0.3929  0.1918  0.0565
26799SOL    HW183029   3.354   3.353   7.319  1.1581 -0.3623  0.4564
26799SOL    HW283030   3.326   3.498   7.352 -0.3610 -0.6722  0.6260
26800SOL     OW83031   5.298   5.378   6.096  0.1632  0.3950 -0.8285
26800SOL    HW183032   5.239   5.445   6.062 -0.2108 -0.5420 -2.1140
26800SOL    HW283033   5.275   5.299   6.048  0.3775 -0.7618  0.8708
26801SOL     OW83034   3.650   0.568   7.131  0.9316  0.5956  0.9153
26801SOL    HW183035   3.573   0.574   7.074  1.3378  0.3557  0.3307
26801SOL    HW283036   3.710   0.634   7.098  2.3979 -1.5102 -0.8792
26802SOL     OW83037   9.981   6.354   6.330  0.0932  0.0556  0.0995
26802SOL    HW183038  10.009   6.265   6.308  0.6885  0.3837 -0.5098
26802SOL    HW283039   9.965   6.396   6.245 -1.8226  0.0259  0.4157
26803SOL     OW83040   0.426   3.898   0.784  0.0079  0.1419 -0.0214
26803SOL    HW183041   0.344   3.850   0.798  1.1701 -1.7480  0.7511
26803SOL    HW283042   0.455   3.871   0.697 -1.8730  3.6214 -1.9499
26804SOL     OW83043   4.090   5.917  10.281  0.0280 -0.2191  0.8589
26804SOL    HW183044   4.024   5.983  10.299  0.0387 -0.8154  3.4058
26804SOL    HW283045   4.073   5.889  10.191 -1.3774  1.6206  0.5116
26805SOL     OW83046   7.419   9.794   0.151  0.4285 -0.0787 -0.1227
26805SOL    HW183047   7.397   9.816   0.241  1.3051 -0.0182  0.0892
26805SOL    HW283048   7.373   9.859   0.098 -1.9364 -1.4525  0.1050
26806SOL     OW83049   6.789   8.482   4.202  0.1170 -0.4195  0.4596
26806SOL    HW183050   6.844   8.522   4.134  0.2544 -1.0388  0.1968
26806SOL    HW283051   6.848   8.424   4.249 -0.0040 -0.0661  1.0514
26807SOL     OW83052   5.361   1.822   9.826 -0.0434  0.0218 -0.1064
26807SOL    HW183053   5.342   1.731   9.803 -0.0939 -0.0190  0.0969
26807SOL    HW283054   5.448   1.838   9.789 -0.3261  0.1054 -0.7476
26808SOL     OW83055   1.176   0.302   2.022 -0.4774 -0.3214 -0.2413
26808SOL    HW183056   1.125   0.293   2.102 -0.9004 -1.1243 -0.5951
26808SOL    HW283057   1.264   0.271   2.046 -0.4889 -0.1547  0.0207
26809SOL     OW83058   3.819   8.465   0.327  0.2584  0.5940  0.1048
26809SOL    HW183059   3.841   8.534   0.263 -0.0642  1.0713  0.5034
26809SOL    HW283060   3.802   8.513   0.408 -1.4638  0.1708  0.0188
26810SOL     OW83061   9.624   6.423   7.661 -0.0492 -0.8672 -0.2543
26810SOL    HW183062   9.672   6.453   7.738  0.2590  0.0691 -0.8000
26810SOL    HW283063   9.624   6.497   7.601  0.4017 -1.8147 -1.4910
26811SOL     OW83064   3.238   7.700   4.539  0.4188  0.1689  0.1574
26811SOL    HW183065   3.154   7.744   4.532  0.8610  0.8115 -1.5848
26811SOL    HW283066   3.288   7.730   4.462  1.9229 -0.8497  0.6822
26812SOL     OW83067   6.646  10.121   8.543 -0.0206 -0.4347 -0.1636
26812SOL    HW183068   6.635  10.213   8.521  1.1378 -0.7563 -2.3427
26812SOL    HW283069   6.593  10.073   8.480 -0.0586 -1.3036  0.4925
26813SOL     OW83070   2.738   8.388   2.669 -0.2146  0.1566 -0.6531
26813SOL    HW183071   2.816   8.352   2.627 -1.1874 -2.5793 -0.3344
26813SOL    HW283072   2.772   8.432   2.747  1.2281  1.6506 -2.0484
26814SOL     OW83073   8.710   7.702   0.206  0.3439 -0.1587  0.5123
26814SOL    HW183074   8.689   7.654   0.127  0.7593 -0.8787  0.8275
26814SOL    HW283075   8.734   7.790   0.176 -1.5924  0.2537  0.0282
26815SOL     OW83076   3.328   2.055   0.929 -0.7248 -0.7488 -0.4017
26815SOL    HW183077   3.256   2.008   0.970 -0.2135 -0.8308  0.4092
26815SOL    HW283078   3.405   2.034   0.982 -0.6289  1.7481  0.6137
26816SOL     OW83079   8.542   4.231   5.777 -0.5784 -0.3987  0.5091
26816SOL    HW183080   8.452   4.261   5.761  0.0407  0.6339 -1.2434
26816SOL    HW283081   8.597   4.305   5.753  0.7710 -0.9085  1.8659
26817SOL     OW83082   0.708   2.164  10.042  0.3095  0.0540 -0.3729
26817SOL    HW183083   0.774   2.138  10.106  0.9324  0.2512 -0.9233
26817SOL    HW283084   0.752   2.156   9.957 -0.3631  0.2280 -0.7466
26818SOL     OW83085   0.249   4.942   3.665 -0.5086  0.7579 -0.3303
26818SOL    HW183086   0.303   4.965   3.590  2.6902 -0.6048  1.3473
26818SOL    HW283087   0.270   5.008   3.731  1.1462 -1.1106  1.1613
26819SOL     OW83088   6.827   0.884   1.087  0.1512  0.1282 -0.0925
26819SOL    HW183089   6.866   0.966   1.056  0.9396  0.2829  1.2097
26819SOL    HW283090   6.855   0.818   1.023  0.0584  0.7554 -0.7940
26820SOL     OW83091   3.477   9.952   3.014  0.0623 -0.1035 -0.0733
26820SOL    HW183092   3.437  10.031   3.051  0.2188 -0.8759  1.8719
26820SOL    HW283093   3.402   9.899   2.987 -0.3686 -1.2905  3.0228
26821SOL     OW83094   4.270   9.310   9.744  0.0544 -0.5009  0.4660
26821SOL    HW183095   4.231   9.257   9.813  0.9966 -1.0712  0.5829
26821SOL    HW283096   4.230   9.396   9.754 -1.1491 -1.0581  0.5717
26822SOL     OW83097   0.945   7.057   5.790  0.0306  0.2306 -0.4296
26822SOL    HW183098   0.943   6.963   5.772  1.1388 -0.2612  1.6798
26822SOL    HW283099   0.882   7.095   5.728 -1.2714 -2.0052 -0.5835
26823SOL     OW83100   7.825   2.835   2.732  0.4191  0.0149 -0.2949
26823SOL    HW183101   7.908   2.879   2.717 -1.3601  3.3850 -1.3457
26823SOL    HW283102   7.780   2.890   2.796 -2.0300 -0.0731 -1.8041
26824SOL     OW83103   0.344   4.067   3.831  0.2154  0.0124 -0.0174
26824SOL    HW183104   0.329   3.976   3.855  0.8983 -0.1955 -0.3592
26824SOL    HW283105   0.404   4.100   3.897  0.9463 -0.1485 -0.5834
26825SOL     OW83106   0.978   0.383   5.123  0.6464  0.2611 -0.1851
26825SOL    HW183107   0.999   0.380   5.030 -0.3988  2.8362 -0.5874
26825SOL    HW283108   0.890   0.345   5.129 -0.1684  1.9917 -0.6219
26826SOL     OW83109   9.165   3.645   5.037 -0.2885  0.1670 -0.1216
26826SOL    HW183110   9.122   3.683   5.114 -0.7849 -1.2886  0.3523
26826SOL    HW283111   9.093   3.607   4.986  0.0446  1.0176 -1.2853
26827SOL     OW83112  10.243   1.403   0.542 -0.8039 -0.1846 -0.1039
26827SOL    HW183113  10.320   1.357   0.510 -2.1365 -1.8358 -1.0492
26827SOL    HW283114  10.227   1.366   0.629 -1.6347 -1.2282 -0.6945
26828SOL     OW83115   2.475   2.812   4.751 -0.0543 -0.1107  0.1845
26828SOL    HW183116   2.526   2.822   4.671  0.6699 -1.9738  0.3728
26828SOL    HW283117   2.539   2.790   4.818 -0.5196  2.3205  1.5454
26829SOL     OW83118   3.498   8.112   7.261  0.1127 -0.6175 -0.3986
26829SOL    HW183119   3.502   8.152   7.174 -1.2274  0.0472 -0.1773
26829SOL    HW283120   3.414   8.067   7.263  0.2035 -0.7642  0.5007
26830SOL     OW83121   7.132   9.988   5.381 -0.2646  0.1067  0.2529
26830SOL    HW183122   7.190  10.034   5.442  0.5302  0.6071 -0.8427
26830SOL    HW283123   7.049  10.035   5.387 -0.4839 -0.3963  1.5775
26831SOL     OW83124  10.148   2.390   3.136 -0.0907 -0.5529 -0.8867
26831SOL    HW183125  10.167   2.414   3.045  1.0212  3.3764  0.1999
26831SOL    HW283126  10.054   2.403   3.145 -0.4106 -2.0665 -1.6792
26832SOL     OW83127   1.270   9.334   0.555  0.0618 -0.0569 -0.1732
26832SOL    HW183128   1.252   9.267   0.489 -0.4741  0.7397 -0.8713
26832SOL    HW283129   1.355   9.311   0.592  1.1980  0.4208 -2.3614
26833SOL     OW83130   4.379   7.696   2.594 -0.0602 -0.0666 -0.5161
26833SOL    HW183131   4.472   7.703   2.613 -0.3995  3.0532  0.4727
26833SOL    HW283132   4.337   7.691   2.681 -0.8906 -0.3216 -0.9193
26834SOL     OW83133   6.867   3.464   2.448 -0.5309  0.1781 -0.1848
26834SOL    HW183134   6.907   3.377   2.452  1.4299  1.0800  1.7443
26834SOL    HW283135   6.811   3.469   2.525 -0.1943  0.7738  0.0379
26835SOL     OW83136   2.178   9.207   7.050 -0.2327  0.6319 -0.4056
26835SOL    HW183137   2.180   9.277   6.985 -1.2182 -0.0561 -1.2123
26835SOL    HW283138   2.187   9.252   7.134 -2.1267  1.8739 -0.8087
26836SOL     OW83139   5.366   3.346   4.838 -0.0491  0.0719  0.1649
26836SOL    HW183140   5.315   3.424   4.860  2.1270  1.4785  0.5824
26836SOL    HW283141   5.304   3.287   4.795 -2.0295  1.5546  0.8595
26837SOL     OW83142   6.715   5.828   4.347 -0.4922 -0.5446  0.2788
26837SOL    HW183143   6.728   5.733   4.335 -2.8004 -0.9784  0.7388
26837SOL    HW283144   6.630   5.835   4.391  0.4375  1.6875  1.8921
26838SOL     OW83145   7.751   9.745   3.292  0.1520  0.0252  0.5055
26838SOL    HW183146   7.841   9.715   3.289  0.1782  0.1833 -0.3675
26838SOL    HW283147   7.731   9.772   3.203  0.2513  2.9279  1.2504
26839SOL     OW83148   4.065   1.049   7.758  0.5835  0.1276 -0.5040
26839SOL    HW183149   4.033   1.140   7.753 -0.9623 -0.3029  0.6884
26839SOL    HW283150   4.039   1.010   7.675  0.0029  0.4154 -0.4622
26840SOL     OW83151   4.938   5.773   2.565  0.2532 -0.3337  0.0380
26840SOL    HW183152   4.880   5.842   2.532 -1.3743 -0.8960  1.5615
26840SOL    HW283153   5.021   5.817   2.580 -0.5249  1.1522  0.2715
26841SOL     OW83154   6.214   7.049   2.485  0.2812  0.1066 -0.6202
26841SOL    HW183155   6.181   7.132   2.452 -0.8948 -0.1406 -0.0997
26841SOL    HW283156   6.167   6.983   2.435  0.9013 -0.2533 -0.7363
26842SOL     OW83157   1.284   7.786   9.962 -0.3317  0.0909 -0.5045
26842SOL    HW183158   1.236   7.704   9.966 -0.2390  0.0624  0.2343
26842SOL    HW283159   1.224   7.851  10.000  0.1670  0.0664  0.3569
26843SOL     OW83160   1.981   2.265   0.909 -0.2324  0.7871  0.1504
26843SOL    HW183161   2.054   2.239   0.966  1.0186  0.6799 -1.4207
26843SOL    HW283162   2.010   2.347   0.869 -0.5075  0.2480 -1.2406
26844SOL     OW83163   6.800   2.753   7.328  0.5075 -0.3188 -0.3163
26844SOL    HW183164   6.753   2.673   7.306  1.8050 -1.2177  0.1228
26844SOL    HW283165   6.871   2.725   7.385  0.8630  1.1719  0.0144
26845SOL     OW83166   7.358   7.843   3.517  0.1725 -0.2358 -0.1840
26845SOL    HW183167   7.362   7.825   3.610  0.9905  0.0884 -0.1481
26845SOL    HW283168   7.427   7.907   3.501 -2.1320  2.4186 -0.4205
26846SOL     OW83169   3.002   6.363   2.853 -0.0703 -0.1078  0.2126
26846SOL    HW183170   2.953   6.408   2.921  0.4954  0.7483  0.0689
26846SOL    HW283171   3.047   6.432   2.806 -0.1071 -0.7294 -0.7635
26847SOL     OW83172   8.775   6.106   7.421  0.0155 -0.2296 -0.1763
26847SOL    HW183173   8.765   6.200   7.402 -0.4118 -0.7500 -2.8846
26847SOL    HW283174   8.781   6.102   7.517  0.9514  2.6330 -0.0051
26848SOL     OW83175   8.222   5.771   1.955  0.1321  0.0056  0.6982
26848SOL    HW183176   8.133   5.793   1.930  0.7148  2.5899  0.5708
26848SOL    HW283177   8.256   5.851   1.995  2.7604 -0.4833 -0.3334
26849SOL     OW83178   6.516   0.479   1.756  0.3837  0.0007 -0.1791
26849SOL    HW183179   6.585   0.483   1.822  0.2492 -0.3005 -0.0169
26849SOL    HW283180   6.560   0.500   1.673  0.0122  3.4619  0.3499
26850SOL     OW83181   5.833   1.959   1.050  0.0169  0.2433 -0.9616
26850SOL    HW183182   5.883   2.022   1.101  0.3016 -0.7167 -0.0204
26850SOL    HW283183   5.833   1.879   1.103 -1.1060 -0.2772 -1.7033
26851SOL     OW83184   4.424   5.794   6.273  0.1046 -0.4462  0.2409
26851SOL    HW183185   4.385   5.872   6.313  1.1256  0.7768 -1.0238
26851SOL    HW283186   4.497   5.772   6.330  1.3625  1.1029 -0.6738
26852SOL     OW83187   5.625   3.824   1.610 -0.4845 -0.0478 -0.7713
26852SOL    HW183188   5.697   3.761   1.617  0.3341  0.7798 -1.4130
26852SOL    HW283189   5.546   3.770   1.613  0.1770 -1.0623 -0.8226
26853SOL     OW83190   0.239   7.342   4.816 -0.0023  0.3495  0.0278
26853SOL    HW183191   0.286   7.276   4.866 -0.1205  0.2272 -0.0197
26853SOL    HW283192   0.264   7.326   4.725 -0.2275  0.2065 -0.0106
26854SOL     OW83193   8.932   7.240   5.579  0.3732  0.2906  0.2444
26854SOL    HW183194   8.956   7.294   5.504 -1.4145  0.3680 -0.3264
26854SOL    HW283195   8.970   7.285   5.655  0.2343  1.4982 -0.3840
26855SOL     OW83196   6.934   0.330   2.278  0.5347 -0.3305 -0.1318
26855SOL    HW183197   6.902   0.241   2.264 -1.9272 -0.0703  2.8481
26855SOL    HW283198   6.866   0.386   2.241  1.3120  0.3424 -0.5728
26856SOL     OW83199   2.436   9.355   9.069 -0.0363  0.6875 -0.0742
26856SOL    HW183200   2.391   9.382   8.989  1.3844 -2.0028 -1.9107
26856SOL    HW283201   2.522   9.324   9.040  0.5522 -0.3806  2.4922
26857SOL     OW83202   1.539   3.107   7.723 -0.2146  0.3483  0.5878
26857SOL    HW183203   1.585   3.025   7.739  0.1231  0.4802  0.3143
26857SOL    HW283204   1.600   3.175   7.752 -0.0223  0.5468 -0.2523
26858SOL     OW83205  10.351   2.863   7.485  0.6733 -0.3623 -0.4465
26858SOL    HW183206  10.262   2.831   7.468  0.4976 -0.7982  1.1134
26858SOL    HW283207  10.351   2.953   7.453 -0.4458 -0.2465 -0.1623
26859SOL     OW83208   9.161   7.024   7.724  0.4345  0.7782  0.1846
26859SOL    HW183209   9.089   6.964   7.745  0.2737  1.3428  1.3049
26859SOL    HW283210   9.182   7.005   7.633 -0.5978  0.0481  0.0845
26860SOL     OW83211   7.280   3.582   0.110  0.3673 -0.2973 -0.2310
26860SOL    HW183212   7.344   3.530   0.060  2.6056  0.6136  1.4992
26860SOL    HW283213   7.235   3.518   0.165 -0.4423 -0.9919 -1.6512
26861SOL     OW83214   9.599   7.271   8.309 -0.0030  0.8436  0.3326
26861SOL    HW183215   9.628   7.202   8.249  0.9177  1.4962  0.0081
26861SOL    HW283216   9.591   7.227   8.394 -0.8643  0.0175 -0.1448
26862SOL     OW83217   9.893   7.139   8.532  0.1863  0.1746  0.3080
26862SOL    HW183218   9.959   7.141   8.602 -0.9920  0.3483  1.4570
26862SOL    HW283219   9.872   7.231   8.516 -1.8159  0.1143  2.0260
26863SOL     OW83220   9.914   8.911   4.476  0.6871  0.2446  0.0649
26863SOL    HW183221  10.008   8.899   4.461  1.0971  2.1931  0.7359
26863SOL    HW283222   9.885   8.965   4.403 -0.1679 -1.1772 -0.6880
26864SOL     OW83223   3.968   5.553   8.380 -0.0483 -0.1247  0.1007
26864SOL    HW183224   3.901   5.614   8.412  0.6512  0.6389  0.1360
26864SOL    HW283225   3.958   5.476   8.436 -0.9450 -0.0448  0.0597
26865SOL     OW83226   5.975   5.569  10.312 -0.0946  0.0080 -0.2475
26865SOL    HW183227   5.964   5.650  10.262  0.1584  0.8256  0.9610
26865SOL    HW283228   5.944   5.591  10.400 -0.3650 -1.3299  0.0144
26866SOL     OW83229   3.168   4.415   7.793 -0.1444  0.4083 -0.2004
26866SOL    HW183230   3.136   4.350   7.857 -2.1816 -0.2092 -1.7499
26866SOL    HW283231   3.263   4.402   7.792 -0.4981 -3.4266 -1.2293
26867SOL     OW83232   5.843   9.697   4.659  0.4160  0.0313 -0.5939
26867SOL    HW183233   5.752   9.725   4.671  0.3052 -0.3751 -0.4787
26867SOL    HW283234   5.871   9.742   4.579  0.2642  0.5262 -0.3703
26868SOL     OW83235   2.669   8.343   3.986  0.2684 -0.3379  0.3269
26868SOL    HW183236   2.656   8.427   3.943 -0.9288 -0.1155  1.0837
26868SOL    HW283237   2.617   8.348   4.067 -0.3887 -2.0223  0.0690
26869SOL     OW83238   9.056   7.852   7.824  0.2966  0.5499  0.1537
26869SOL    HW183239   8.976   7.804   7.848  0.7852 -0.0246  0.6430
26869SOL    HW283240   9.119   7.784   7.800  0.7447  0.9845  0.0829
26870SOL     OW83241   0.567  10.303   7.547  0.4616  0.4376 -0.5102
26870SOL    HW183242   0.578  10.397   7.561 -1.2515  0.5117  0.4824
26870SOL    HW283243   0.578  10.264   7.634 -0.6592 -0.0837 -0.5864
26871SOL     OW83244   8.967   3.474  10.162 -0.3149  0.2680 -0.3525
26871SOL    HW183245   9.056   3.469  10.127 -0.2090  0.0248 -0.0487
26871SOL    HW283246   8.953   3.389  10.204 -0.7571  0.2363 -0.5609
26872SOL     OW83247   4.470   2.713   9.512 -0.4340  0.0261  0.1621
26872SOL    HW183248   4.381   2.679   9.511 -0.6316  0.5510 -0.7067
26872SOL    HW283249   4.525   2.636   9.496 -0.8081 -0.0804 -0.6432
26873SOL     OW83250   5.554   3.739   8.413 -0.6721 -0.7067 -0.2974
26873SOL    HW183251   5.504   3.802   8.465  1.5168  0.0294  1.0709
26873SOL    HW283252   5.619   3.793   8.367  0.0297 -1.7659 -0.5858
26874SOL     OW83253   6.277   2.704   5.759 -0.1813  0.3099  0.1471
26874SOL    HW183254   6.236   2.790   5.753  0.7923  0.8414  0.9235
26874SOL    HW283255   6.231   2.660   5.830 -0.0348  0.5534  0.3939
26875SOL     OW83256   0.336   2.298   3.456  0.1575  1.0221 -0.6634
26875SOL    HW183257   0.285   2.377   3.476 -2.5146 -0.8333  0.5138
26875SOL    HW283258   0.324   2.285   3.362 -1.1716  0.9329 -0.5095
26876SOL     OW83259   8.446   8.834   1.533  0.1864  0.0688  0.1382
26876SOL    HW183260   8.498   8.754   1.534 -0.6244 -0.4874 -0.5628
26876SOL    HW283261   8.459   8.873   1.619  2.2177  0.2576 -0.2030
26877SOL     OW83262   0.556   8.681   0.610 -0.3211  0.2470 -0.3314
26877SOL    HW183263   0.501   8.605   0.591 -1.8090  0.6478  2.0050
26877SOL    HW283264   0.608   8.693   0.530 -0.4324 -2.8359 -0.9920
26878SOL     OW83265   9.177   6.308   4.495 -0.2465 -0.2035  0.3129
26878SOL    HW183266   9.119   6.375   4.534  0.6410  0.2150  0.9566
26878SOL    HW283267   9.248   6.299   4.559  0.8158 -0.1215 -0.8321
26879SOL     OW83268   8.826   0.414   2.554  0.0892  0.3207 -0.1993
26879SOL    HW183269   8.899   0.468   2.523  0.6825 -1.0747 -1.3127
26879SOL    HW283270   8.828   0.337   2.498 -1.2532 -0.4878  0.8257
26880SOL     OW83271   9.283   3.255   9.019 -0.4274  0.3837  0.5128
26880SOL    HW183272   9.312   3.164   9.008 -0.4457  0.3542  0.7016
26880SOL    HW283273   9.188   3.249   9.023 -0.4209  0.3951  0.6752
26881SOL     OW83274   6.324   8.245   4.106 -0.7214  0.6714 -0.0465
26881SOL    HW183275   6.381   8.322   4.098 -0.4278  0.5138  0.4597
26881SOL    HW283276   6.292   8.230   4.017  0.7600  0.2181 -0.5332
26882SOL     OW83277   3.395   8.273   9.520 -0.0274 -0.3985 -0.0313
26882SOL    HW183278   3.387   8.227   9.436  2.2564 -1.2746  0.1712
26882SOL    HW283279   3.478   8.320   9.515 -1.0575  1.6270  0.8049
26883SOL     OW83280   0.293   5.367   8.069  0.1739 -0.8337  0.2959
26883SOL    HW183281   0.281   5.450   8.116  0.5697  0.2512 -1.4135
26883SOL    HW283282   0.371   5.328   8.108  2.1951  1.4204 -1.2602
26884SOL     OW83283   8.947   2.063   7.945 -0.1730 -0.2400 -0.1041
26884SOL    HW183284   8.994   2.098   8.021 -0.2665  1.3300 -0.7327
26884SOL    HW283285   8.983   2.111   7.871 -1.3672 -0.4270 -0.8255
26885SOL     OW83286   9.083   0.217   4.277  0.0461  0.2289 -0.2948
26885SOL    HW183287   9.103   0.126   4.257  2.7722  0.2710  1.6761
26885SOL    HW283288   9.166   0.263   4.267 -0.2578  1.6889  2.6416
26886SOL     OW83289   1.168   9.862   0.945 -0.7348 -0.3355  0.1363
26886SOL    HW183290   1.243   9.804   0.954  1.4121  2.3756  1.2900
26886SOL    HW283291   1.127   9.836   0.863  2.3552 -1.0540 -1.3465
26887SOL     OW83292   8.610   9.234   4.377 -0.1991  0.7478  0.6600
26887SOL    HW183293   8.567   9.223   4.293  0.4835  1.4231  0.2077
26887SOL    HW283294   8.703   9.218   4.359 -0.2282 -0.7414  1.6244
26888SOL     OW83295   7.563   1.481   4.314  0.1238 -0.1729 -0.3665
26888SOL    HW183296   7.525   1.409   4.264  0.7631 -0.2159 -0.8087
26888SOL    HW283297   7.552   1.558   4.258  0.1276 -0.0732 -0.2299
26889SOL     OW83298   4.389  10.023   3.728 -0.4726 -0.0322  0.0979
26889SOL    HW183299   4.393  10.050   3.820  2.2614 -0.7145  0.2613
26889SOL    HW283300   4.429  10.096   3.681  1.2758 -1.0617 -0.1137
26890SOL     OW83301   3.959   5.972   0.770 -0.3451  0.4668  0.0246
26890SOL    HW183302   4.008   6.054   0.782  0.2262  0.2502 -0.7424
26890SOL    HW283303   3.963   5.930   0.856  1.0279  0.3572 -0.0595
26891SOL     OW83304   7.130   8.770   2.662  0.0053 -0.0816  0.2345
26891SOL    HW183305   7.067   8.702   2.686  1.5671 -1.6927 -0.0397
26891SOL    HW283306   7.166   8.800   2.745 -1.0911  0.8587  0.3937
26892SOL     OW83307   3.922   9.277  10.295  0.1636 -0.1085 -0.2773
26892SOL    HW183308   3.918   9.317  10.208 -0.2968  2.5235  0.8424
26892SOL    HW283309   3.844   9.222  10.300 -1.0990  1.5557 -0.7465
26893SOL     OW83310   0.610   3.462   9.716  0.4268 -0.4273  0.4818
26893SOL    HW183311   0.539   3.485   9.777 -0.3548  0.5484 -0.7399
26893SOL    HW283312   0.648   3.383   9.752 -1.0359 -0.7479  1.4023
26894SOL     OW83313  10.111   8.668   3.831  0.5522  0.3538 -0.0429
26894SOL    HW183314  10.167   8.746   3.832  0.0130  0.7479 -0.0089
26894SOL    HW283315  10.163   8.601   3.874  0.2582  1.2213  1.7379
26895SOL     OW83316   3.510   8.709   6.576  0.1586  0.1591  0.0020
26895SOL    HW183317   3.438   8.652   6.549  1.0908 -0.7017 -0.6905
26895SOL    HW283318   3.502   8.714   6.671 -0.9113  0.2133 -0.0772
26896SOL     OW83319   6.792   6.786   5.923 -0.0503 -0.2995 -0.0172
26896SOL    HW183320   6.787   6.791   6.018 -1.3424 -0.5825 -0.0381
26896SOL    HW283321   6.712   6.829   5.893 -0.1361 -1.0515 -0.9323
26897SOL     OW83322   1.480   6.193   1.652 -0.5504  0.4328 -0.3231
26897SOL    HW183323   1.566   6.151   1.654 -1.4638 -1.6258 -1.2030
26897SOL    HW283324   1.480   6.242   1.570 -0.4381 -0.0997 -0.6472
26898SOL     OW83325   8.061   9.341  10.343 -0.3748  0.1816  0.2732
26898SOL    HW183326   8.074   9.319  10.435 -0.9903 -0.8839  0.1235
26898SOL    HW283327   8.052   9.436  10.342 -0.6106  0.1833  1.3461
26899SOL     OW83328   0.924   6.222   6.954 -0.0148  0.0098 -0.0269
26899SOL    HW183329   1.018   6.221   6.969  0.2749 -1.4840 -1.6752
26899SOL    HW283330   0.910   6.293   6.892 -0.1453  0.8945  0.9817
26900SOL     OW83331   4.781   8.406   4.801 -0.5890  0.0357  0.0655
26900SOL    HW183332   4.691   8.416   4.832 -0.2465 -0.2205  1.2242
26900SOL    HW283333   4.822   8.491   4.817 -0.9427  0.5758 -1.6810
26901SOL     OW83334   1.691  10.005   6.974  0.1262 -0.5142  0.2851
26901SOL    HW183335   1.755   9.951   6.927  0.9470  0.0123  0.7833
26901SOL    HW283336   1.721  10.006   7.064  0.4771  1.2567  0.1883
26902SOL     OW83337   1.430   5.022   1.811 -0.0721 -0.1553  0.0120
26902SOL    HW183338   1.497   4.981   1.756  0.0286  0.5600 -0.4183
26902SOL    HW283339   1.475   5.040   1.894  0.1863  0.0603 -0.1727
26903SOL     OW83340   0.435   9.878   9.839  0.0739  0.3988  0.3852
26903SOL    HW183341   0.446   9.956   9.785 -3.1042  0.4705 -0.3284
26903SOL    HW283342   0.501   9.817   9.807  0.3163  1.5496 -1.4233
26904SOL     OW83343   0.851   7.939   3.682  0.0823 -0.5287 -0.1066
26904SOL    HW183344   0.904   7.865   3.653 -1.6373 -1.0700 -2.2295
26904SOL    HW283345   0.798   7.905   3.754  0.3051 -0.9615 -0.1475
26905SOL     OW83346   7.900   2.131   4.446  0.0685 -0.1661 -0.3648
26905SOL    HW183347   7.843   2.061   4.413 -0.7324  0.5819 -0.5990
26905SOL    HW283348   7.904   2.194   4.374 -0.8503  0.9833  0.5387
26906SOL     OW83349   2.789   5.178   2.051  0.1901  0.0515 -0.4685
26906SOL    HW183350   2.759   5.223   2.130 -0.9927 -0.2644 -0.7206
26906SOL    HW283351   2.716   5.122   2.025  0.7490 -0.2426 -1.4984
26907SOL     OW83352   6.444   4.258   2.286  0.6594 -0.4545  0.0413
26907SOL    HW183353   6.532   4.261   2.323  0.6268  1.1931  0.0574
26907SOL    HW283354   6.438   4.336   2.231 -0.2661 -1.3672 -1.2085
26908SOL     OW83355  10.157   6.145   1.179 -0.5072 -0.2247  0.1705
26908SOL    HW183356  10.065   6.151   1.155 -0.3597 -0.9949 -0.6355
26908SOL    HW283357  10.176   6.051   1.179  0.3712 -0.0577 -0.0469
26909SOL     OW83358   4.886   6.296   9.223  0.4481 -0.2282 -0.3214
26909SOL    HW183359   4.872   6.239   9.299  0.8938 -0.1311 -0.1627
26909SOL    HW283360   4.981   6.302   9.215  0.4068 -0.2953 -0.9309
26910SOL     OW83361   1.618   9.418   2.053 -0.2144 -0.6781  0.1883
26910SOL    HW183362   1.679   9.411   1.979  1.3836  1.2479  1.2445
26910SOL    HW283363   1.567   9.496   2.034  0.6687  0.2303  1.3893
26911SOL     OW83364   5.996   8.622   5.127 -0.2476  0.3774  0.0475
26911SOL    HW183365   6.090   8.630   5.141 -0.4659 -0.4400  2.4717
26911SOL    HW283366   5.986   8.614   5.032  2.1255  0.3669 -0.2491
26912SOL     OW83367   5.368   1.573   2.294 -0.2413 -0.0483  0.3329
26912SOL    HW183368   5.365   1.579   2.198  0.5320 -0.3476  0.2854
26912SOL    HW283369   5.281   1.602   2.322 -1.6826 -3.0618 -0.6204
26913SOL     OW83370   9.653   3.620   4.506 -0.4167 -0.5586  0.1543
26913SOL    HW183371   9.641   3.536   4.550 -3.3433  0.4029  1.4030
26913SOL    HW283372   9.652   3.597   4.412  1.8846 -2.1593  0.4144
26914SOL     OW83373   2.077   2.173   1.889  0.8004 -0.0777  0.4948
26914SOL    HW183374   2.057   2.236   1.819  0.8968 -1.3391 -0.7219
26914SOL    HW283375   1.995   2.162   1.936  0.2404 -0.5157 -0.5424
26915SOL     OW83376   8.736   5.204   0.617 -0.2864 -0.1190  0.6392
26915SOL    HW183377   8.821   5.159   0.623 -0.3626 -0.1271  1.7747
26915SOL    HW283378   8.706   5.210   0.707 -1.7466 -0.5655  0.2017
26916SOL     OW83379   4.671   7.643   2.644 -0.1447 -0.0861 -0.4199
26916SOL    HW183380   4.610   7.579   2.682 -0.5887  1.3929  1.5253
26916SOL    HW283381   4.757   7.602   2.651 -0.1463  0.1944  2.6664
26917SOL     OW83382   0.105   1.633   5.714 -0.4538  0.2349 -0.6652
26917SOL    HW183383   0.060   1.657   5.633  0.5309 -1.0463 -1.6469
26917SOL    HW283384   0.133   1.716   5.752 -0.6756  0.8495 -1.7966
26918SOL     OW83385  10.328   6.911   9.638 -0.1525  0.4328 -0.0467
26918SOL    HW183386  10.245   6.864   9.643 -0.4296  0.7983 -0.9966
26918SOL    HW283387  10.374   6.871   9.564  1.7027 -1.5805  2.0158
26919SOL     OW83388   0.478   6.624   7.934 -0.2993 -0.0269 -0.4967
26919SOL    HW183389   0.544   6.617   7.865  0.2823 -2.9954  0.2138
26919SOL    HW283390   0.409   6.564   7.907 -1.9839  1.7753 -0.3854
26920SOL     OW83391   2.673   4.864   9.749  0.3255 -0.0712 -0.0265
26920SOL    HW183392   2.664   4.780   9.796  3.3855 -0.3861  0.2089
26920SOL    HW283393   2.747   4.850   9.690 -0.0004  2.0706 -1.0262
26921SOL     OW83394  10.140   6.549   1.760 -0.2251  0.1499 -0.0129
26921SOL    HW183395  10.061   6.495   1.767  0.3871 -0.8292 -0.4992
26921SOL    HW283396  10.150   6.588   1.847  0.1343 -1.6975  0.8270
26922SOL     OW83397   8.952   0.322   8.783  0.4975 -0.1809 -0.3323
26922SOL    HW183398   8.978   0.260   8.851 -0.3051 -0.6279 -0.4156
26922SOL    HW283399   8.943   0.268   8.704  1.2420  0.3029 -0.7570
26923SOL     OW83400   9.442   8.150   3.037  0.4205 -0.1560  0.8057
26923SOL    HW183401   9.483   8.143   2.951  0.9056  0.0989  1.0170
26923SOL    HW283402   9.451   8.242   3.061  0.8571 -0.3480  1.4079
26924SOL     OW83403   9.755   2.941   5.587  0.3645  0.1622 -0.1321
26924SOL    HW183404   9.809   3.004   5.540  1.0669 -0.8958 -0.7612
26924SOL    HW283405   9.773   2.857   5.546 -0.2186 -0.5384  0.9793
26925SOL     OW83406   7.832   2.419   9.790 -0.1530  0.0162  0.0984
26925SOL    HW183407   7.902   2.483   9.782 -0.1243 -0.0029  0.1915
26925SOL    HW283408   7.860   2.361   9.861 -1.1534  1.1516  1.4837
26926SOL     OW83409   5.364   3.045   4.507  0.0135  0.2415 -0.0113
26926SOL    HW183410   5.404   3.118   4.460  0.0783  0.4558  0.3759
26926SOL    HW283411   5.289   3.084   4.552  0.1899  0.1133  0.3884
26927SOL     OW83412   2.744   6.088   4.635 -0.2060  0.1051 -0.3218
26927SOL    HW183413   2.733   6.036   4.714  0.3156 -1.4528 -1.2365
26927SOL    HW283414   2.692   6.043   4.568  1.0109  0.1926 -1.3742
26928SOL     OW83415   0.890   8.969  10.288 -0.8592  0.1710 -0.3876
26928SOL    HW183416   0.916   8.881  10.262 -0.6140  0.3980 -0.9241
26928SOL    HW283417   0.823   8.956  10.355  1.1241 -0.4730  1.6124
26929SOL     OW83418   0.615   6.127   8.956 -0.1509  0.2408 -0.2926
26929SOL    HW183419   0.662   6.044   8.942  0.1026  0.3994 -0.3833
26929SOL    HW283420   0.644   6.184   8.885 -2.7465 -0.6000 -2.1796
26930SOL     OW83421   1.210   0.758   0.906 -0.1633  0.5614 -0.6598
26930SOL    HW183422   1.170   0.694   0.846 -0.8465  1.5480 -1.2910
26930SOL    HW283423   1.214   0.839   0.855  0.0037  1.2132  0.3653
26931SOL     OW83424   0.337   1.194   5.489 -0.3511  0.4274  0.0483
26931SOL    HW183425   0.347   1.289   5.488  0.0471  0.3814 -0.4070
26931SOL    HW283426   0.358   1.169   5.579 -0.0494  0.7302  0.0644
26932SOL     OW83427   0.504   0.076   8.763  0.4186  0.1702  0.6814
26932SOL    HW183428   0.494   0.169   8.744  0.5730  0.5471  2.2821
26932SOL    HW283429   0.470   0.066   8.852 -2.4264 -1.8552 -0.4715
26933SOL     OW83430   3.662   4.791   2.622  0.2663 -0.2750  0.4215
26933SOL    HW183431   3.582   4.839   2.603  0.4569 -0.0476  0.1733
26933SOL    HW283432   3.661   4.717   2.561  0.0034 -0.5513  0.7600
26934SOL     OW83433  10.018   5.540  10.210 -0.0055  0.2755  0.8267
26934SOL    HW183434  10.112   5.554  10.224 -0.0114 -0.2580  1.4849
26934SOL    HW283435   9.992   5.482  10.281 -0.9178  0.7046  0.8547
26935SOL     OW83436   8.682   2.383   9.880  0.3916 -0.0495 -0.1142
26935SOL    HW183437   8.675   2.423   9.967  1.4586  1.4386 -0.6671
26935SOL    HW283438   8.666   2.456   9.820  2.8297 -0.3193 -1.1811
26936SOL     OW83439   5.044   6.424   6.199 -0.5642  0.4701  0.2137
26936SOL    HW183440   5.032   6.482   6.273  0.9003  0.3055  0.6104
26936SOL    HW283441   5.099   6.473   6.138 -0.5156  0.0395 -0.0993
26937SOL     OW83442   9.078   8.341   0.291 -0.1001 -0.1405  0.2170
26937SOL    HW183443   9.047   8.364   0.379  0.2574  0.1840  0.2598
26937SOL    HW283444   9.021   8.269   0.264 -0.4457 -0.0020  0.5677
26938SOL     OW83445  10.034   3.771   7.683  0.1939 -0.3729  0.0126
26938SOL    HW183446  10.069   3.727   7.761 -1.6571 -1.0892  0.4872
26938SOL    HW283447  10.081   3.730   7.610  1.6414  0.0015  0.6992
26939SOL     OW83448   1.400   5.343   9.188 -0.8034  0.1730  0.0909
26939SOL    HW183449   1.334   5.402   9.151  0.2826  1.3894  0.0056
26939SOL    HW283450   1.401   5.363   9.281 -0.0126  0.7491 -0.0291
26940SOL     OW83451   7.927   1.803   4.947 -0.0402 -0.5578 -0.2964
26940SOL    HW183452   7.861   1.749   4.904 -0.7392 -1.8975  2.2722
26940SOL    HW283453   7.894   1.893   4.938 -1.2865 -1.0283 -0.6438
26941SOL     OW83454   7.988   2.534   7.703  0.0168 -0.1814 -0.4381
26941SOL    HW183455   8.049   2.505   7.770  0.2993  0.0672 -0.5846
26941SOL    HW283456   7.928   2.593   7.748 -0.5679 -0.9920 -0.1376
26942SOL     OW83457   7.243   8.933   2.928  0.3296  0.4243  0.3093
26942SOL    HW183458   7.255   8.986   2.849 -2.5584  1.5375  0.4827
26942SOL    HW283459   7.273   8.990   2.999  2.5088 -0.4072  0.1101
26943SOL     OW83460   6.220   0.212   6.024  0.5327  0.1827  0.2528
26943SOL    HW183461   6.283   0.156   6.069  0.3146  0.2530  0.6510
26943SOL    HW283462   6.228   0.297   6.068  0.5577  0.3456 -0.0643
26944SOL     OW83463   0.489   3.525   2.214  0.1254  0.6228  0.0014
26944SOL    HW183464   0.467   3.469   2.288  0.2816  1.2969  0.5748
26944SOL    HW283465   0.578   3.555   2.232  0.7183 -0.3407 -1.1903
26945SOL     OW83466   4.089   4.877   4.101  0.1375 -0.0304  0.0373
26945SOL    HW183467   4.129   4.811   4.045  0.1318 -0.0072  0.0053
26945SOL    HW283468   4.148   4.952   4.097  0.1894 -0.0661  0.1451
26946SOL     OW83469   0.008   9.443   3.744  0.4198  0.0088 -0.0173
26946SOL    HW183470  -0.084   9.421   3.756 -0.2399  1.3355 -1.9971
26946SOL    HW283471   0.047   9.365   3.705 -0.5755  0.3415 -1.7842
26947SOL     OW83472   0.679   6.275   2.116  0.2331 -0.1506 -0.0219
26947SOL    HW183473   0.618   6.349   2.122  0.6711  0.1246  1.6005
26947SOL    HW283474   0.629   6.206   2.071 -1.0004  0.3468  0.5367
26948SOL     OW83475   9.978   3.919   9.791 -0.6661  0.5654  0.1745
26948SOL    HW183476  10.013   3.898   9.877  1.3352 -0.2468 -0.7702
26948SOL    HW283477  10.053   3.957   9.743 -1.7472  1.1050 -1.1777
26949SOL     OW83478   5.434   3.833   3.178 -0.3196 -0.2219  0.3494
26949SOL    HW183479   5.513   3.808   3.226  0.8451  0.7821 -0.9527
26949SOL    HW283480   5.402   3.912   3.221  1.5014  1.4706 -1.2578
26950SOL     OW83481   8.988   2.118   0.369  0.7241 -0.0360  0.3169
26950SOL    HW183482   9.023   2.204   0.343  0.7286 -1.2190 -4.6237
26950SOL    HW283483   9.054   2.083   0.428  2.3867  2.1148 -0.1193
26951SOL     OW83484   5.020   8.370   4.243 -0.6573 -0.3281 -0.2901
26951SOL    HW183485   4.975   8.350   4.325 -1.2448 -2.1655 -0.9941
26951SOL    HW283486   4.974   8.447   4.209  0.2842  1.1311  1.5575
26952SOL     OW83487  10.023   2.692  10.132  1.2023  0.4645  0.0784
26952SOL    HW183488  10.077   2.655  10.201  0.2785 -0.2430  0.4370
26952SOL    HW283489   9.966   2.754  10.177  0.1429 -0.4797  0.0782
26953SOL     OW83490   8.213   1.487   5.115 -0.3149 -0.1781 -0.1863
26953SOL    HW183491   8.214   1.463   5.022  1.3591  2.2168 -0.8779
26953SOL    HW283492   8.120   1.493   5.137 -0.8134  1.0629 -2.2687
26954SOL     OW83493   3.325  10.356   8.261 -0.2363 -0.7685  0.0538
26954SOL    HW183494   3.355  10.447   8.257 -1.7272 -0.2175  0.4564
26954SOL    HW283495   3.286  10.340   8.175  1.0993 -1.4623 -0.4530
26955SOL     OW83496   5.308   2.152   8.833  0.0121  0.3941 -0.2400
26955SOL    HW183497   5.355   2.108   8.904  0.9473 -0.1976 -1.1974
26955SOL    HW283498   5.218   2.159   8.865 -0.0038 -1.5632  0.2757
26956SOL     OW83499   7.270   2.494   7.845  0.1490  0.0670  0.1138
26956SOL    HW183500   7.203   2.562   7.852  0.5775  0.3794  1.3536
26956SOL    HW283501   7.284   2.484   7.751 -0.1460  1.4706 -0.0975
26957SOL     OW83502   8.420   5.718   8.523  0.2971  0.1431  0.0234
26957SOL    HW183503   8.408   5.646   8.461  1.2105 -0.6599  0.7381
26957SOL    HW283504   8.338   5.722   8.572  0.7881 -1.5412  1.0870
26958SOL     OW83505   5.623   8.036   2.222 -0.1041  0.4969 -0.0258
26958SOL    HW183506   5.689   8.088   2.266  1.1171 -1.0620  0.0736
26958SOL    HW283507   5.595   7.971   2.288  0.1375 -0.4579 -0.8347
26959SOL     OW83508   3.857   5.945   2.447  0.1688 -0.0058 -0.3983
26959SOL    HW183509   3.834   6.006   2.518  1.5707 -0.9787  0.9564
26959SOL    HW283510   3.908   5.998   2.386  0.4346  0.4613  0.2091
26960SOL     OW83511   5.170   7.541   2.397 -0.4107  0.1512  0.1513
26960SOL    HW183512   5.163   7.628   2.437  0.4736 -0.8205  2.5673
26960SOL    HW283513   5.164   7.480   2.470  0.6261 -1.7882 -1.2865
26961SOL     OW83514   4.137   9.146   9.129 -0.4170  0.3819  0.0368
26961SOL    HW183515   4.208   9.110   9.182  0.6822  0.1835 -1.4986
26961SOL    HW283516   4.058   9.105   9.164  0.4833 -1.2561  0.2458
26962SOL     OW83517  10.099   9.021   4.943  0.4374 -0.3555  0.2819
26962SOL    HW183518  10.091   8.929   4.966 -0.4530 -0.3941 -0.1498
26962SOL    HW283519  10.080   9.068   5.024 -2.7625 -0.4898 -0.2794
26963SOL     OW83520   8.867   7.656   3.198  0.0279 -0.0266 -0.3088
26963SOL    HW183521   8.850   7.651   3.104 -0.0707  0.5317 -0.3295
26963SOL    HW283522   8.935   7.591   3.215  0.7641  0.5697 -0.9472
26964SOL     OW83523   0.949   6.969   1.629  0.2548 -0.4129 -0.0585
26964SOL    HW183524   0.855   6.982   1.642  0.2674  0.8105 -1.0482
26964SOL    HW283525   0.985   6.963   1.717 -0.7417 -0.8429  0.3300
26965SOL     OW83526   8.328   1.769   5.883 -0.4543 -0.1888  0.4739
26965SOL    HW183527   8.327   1.843   5.823 -0.2705  0.0588  0.7731
26965SOL    HW283528   8.381   1.703   5.839  0.6572  0.4224  0.8684
26966SOL     OW83529  10.038   4.399   9.892  0.8734  0.5042 -0.6524
26966SOL    HW183530   9.999   4.451   9.962 -0.2214 -0.5536 -0.4221
26966SOL    HW283531  10.043   4.311   9.929 -1.2193 -0.4391 -2.3671
26967SOL     OW83532   3.651   6.397   8.079  0.5940 -0.5495 -0.4156
26967SOL    HW183533   3.564   6.425   8.051  0.1983 -0.8813  0.4313
26967SOL    HW283534   3.656   6.425   8.170  1.0454 -1.2699 -0.2132
26968SOL     OW83535   6.542   4.330   6.459 -0.6663 -0.4630 -0.0680
26968SOL    HW183536   6.545   4.239   6.427  0.0174 -0.2216 -0.7271
26968SOL    HW283537   6.529   4.382   6.380 -0.0214  0.0770  0.1741
26969SOL     OW83538   4.550   6.363   6.899 -0.4482 -0.0724 -0.2666
26969SOL    HW183539   4.475   6.420   6.880  0.3358  0.8709 -0.6024
26969SOL    HW283540   4.581   6.335   6.813 -0.0627  0.0120 -0.1557
26970SOL     OW83541  10.188  10.102   4.653 -0.1399 -0.2901 -0.0887
26970SOL    HW183542  10.195  10.050   4.573  1.5363 -0.9058  0.4221
26970SOL    HW283543  10.279  10.122   4.676 -0.6269  0.3279  1.3810
26971SOL     OW83544  10.335   5.404   6.737  0.0261  0.3393  0.0752
26971SOL    HW183545  10.343   5.365   6.824 -1.3368 -0.6386 -0.1918
26971SOL    HW283546  10.261   5.465   6.745 -1.1642 -0.9195 -0.7315
26972SOL     OW83547   8.524   2.716   7.137 -0.1612  0.0548  0.3814
26972SOL    HW183548   8.452   2.779   7.133  0.2089  0.4372 -0.4773
26972SOL    HW283549   8.565   2.732   7.222 -2.2387 -1.4900  1.7781
26973SOL     OW83550   0.811   4.037   3.541  0.7235 -0.2899  0.6759
26973SOL    HW183551   0.841   3.988   3.618 -0.1132  0.6300  1.6227
26973SOL    HW283552   0.716   4.032   3.545  0.6068  1.4054  0.8315
26974SOL     OW83553   6.816   4.627   1.534  0.6746 -0.0367  0.2285
26974SOL    HW183554   6.887   4.675   1.576  1.6917 -1.4709  0.2192
26974SOL    HW283555   6.860   4.562   1.479 -0.6456 -0.2326 -0.6387
26975SOL     OW83556   1.703   2.428   6.916  0.1643  0.4737 -0.1669
26975SOL    HW183557   1.647   2.454   6.988  0.6198 -2.9206  1.6239
26975SOL    HW283558   1.790   2.420   6.955  0.8967  0.7049 -1.6717
26976SOL     OW83559   8.855   6.381   3.936 -0.6107 -0.4113  0.1026
26976SOL    HW183560   8.779   6.361   3.991 -0.9320  0.6394  0.0580
26976SOL    HW283561   8.819   6.392   3.848 -0.2684 -0.8754 -0.0974
26977SOL     OW83562   4.849   5.368   5.780 -0.3843  0.4109  0.0251
26977SOL    HW183563   4.771   5.424   5.786 -0.0599  0.8890 -0.1341
26977SOL    HW283564   4.886   5.387   5.694  1.0250  1.7181  0.8579
26978SOL     OW83565   0.190   5.109   2.655 -0.2706  0.2229  0.6295
26978SOL    HW183566   0.224   5.195   2.679  1.3305 -0.6082  1.4220
26978SOL    HW283567   0.265   5.063   2.618 -1.1874 -0.7409 -0.0852
26979SOL     OW83568   7.169   8.088   8.655 -0.3420 -0.1455  0.3147
26979SOL    HW183569   7.163   8.157   8.721  1.1638  0.3223  0.0050
26979SOL    HW283570   7.243   8.034   8.683  0.1537 -0.0947 -0.8291
26980SOL     OW83571   5.131   1.866   1.863  0.3827 -0.0234 -0.4736
26980SOL    HW183572   5.038   1.846   1.873  0.0702  1.5756  0.0158
26980SOL    HW283573   5.133   1.943   1.806  1.2102  1.7025  1.7462
26981SOL     OW83574   6.147   8.376   1.808  0.2298 -0.8946 -0.2790
26981SOL    HW183575   6.137   8.292   1.764  1.7273 -0.8570 -0.7581
26981SOL    HW283576   6.136   8.441   1.738 -0.3319 -0.7126 -0.0239
26982SOL     OW83577   1.248   1.186   1.054  0.2178 -0.0501 -0.4327
26982SOL    HW183578   1.310   1.114   1.065  0.3738  0.0380 -0.7223
26982SOL    HW283579   1.301   1.265   1.055  0.0747  0.0455 -0.3630
26983SOL     OW83580   2.106   1.121   1.851  0.1898 -0.1726 -0.1807
26983SOL    HW183581   2.114   1.162   1.938 -3.2182 -1.5622  0.9334
26983SOL    HW283582   2.143   1.033   1.863  0.3186 -0.1395 -0.3348
26984SOL     OW83583   6.083   6.264   7.302  0.4629 -0.0504  0.3355
26984SOL    HW183584   6.136   6.219   7.368  0.5026 -1.9914 -0.9569
26984SOL    HW283585   6.082   6.355   7.331 -0.0739 -0.9245  3.3590
26985SOL     OW83586   6.673   8.421   7.686 -0.4420  0.0406 -0.2508
26985SOL    HW183587   6.675   8.329   7.658  0.9257  0.6734 -2.5329
26985SOL    HW283588   6.581   8.447   7.678 -0.8435 -1.1076  0.4533
26986SOL     OW83589   9.485   5.676   1.652 -0.4861 -0.1078 -0.4601
26986SOL    HW183590   9.440   5.673   1.736 -0.5690  2.2097 -0.3605
26986SOL    HW283591   9.418   5.704   1.590 -0.4281 -1.7854 -1.3507
26987SOL     OW83592   3.968   6.823   4.968  0.0942  0.3214  0.2889
26987SOL    HW183593   4.055   6.792   4.993 -0.3235 -0.6665  0.5641
26987SOL    HW283594   3.907   6.766   5.016 -0.7224 -0.1468 -1.2379
26988SOL     OW83595   8.846   5.893   8.352 -0.0382  0.0749 -0.6541
26988SOL    HW183596   8.804   5.809   8.372 -0.9537  0.7336  0.3600
26988SOL    HW283597   8.929   5.870   8.312 -0.3946 -1.3127 -0.6487
26989SOL     OW83598   9.037   3.472   1.173  0.3652  0.1221  0.3731
26989SOL    HW183599   9.031   3.556   1.218  2.3961  1.2675 -1.2742
26989SOL    HW283600   9.080   3.493   1.089  1.8495 -2.6599  0.3149
26990SOL     OW83601   7.012   4.685   6.797  0.1964  0.4599 -0.7017
26990SOL    HW183602   7.079   4.621   6.823  0.0074  0.8065  0.7077
26990SOL    HW283603   6.954   4.691   6.873 -0.7616  1.0577 -1.4583
26991SOL     OW83604   5.773   6.938   8.957 -0.0386  0.5739 -0.1260
26991SOL    HW183605   5.815   7.013   8.916 -0.2410  0.7037 -0.1003
26991SOL    HW283606   5.841   6.870   8.961 -0.0361  0.5435 -0.7170
26992SOL     OW83607   0.308   5.653   7.517  0.0456  0.3390  0.3772
26992SOL    HW183608   0.214   5.673   7.516 -0.1932 -0.7287 -0.1499
26992SOL    HW283609   0.319   5.590   7.446  1.2562  0.8097  0.1311
26993SOL     OW83610   0.757   5.727   1.458 -0.2499 -0.8044  0.0935
26993SOL    HW183611   0.800   5.778   1.527 -1.8316  1.0985 -0.2347
26993SOL    HW283612   0.808   5.746   1.379  1.3654 -2.7264  0.5932
26994SOL     OW83613   1.521   4.605   2.575  0.0964 -0.2049  0.2999
26994SOL    HW183614   1.602   4.557   2.559 -0.3752 -1.7116  2.1264
26994SOL    HW283615   1.473   4.599   2.492  1.7003  0.5065 -0.7259
26995SOL     OW83616   0.043   8.787   4.011  0.5561 -0.6020 -0.3651
26995SOL    HW183617  -0.011   8.850   3.964 -0.6594 -0.9138  0.5560
26995SOL    HW283618   0.106   8.840   4.060 -0.3136 -0.1006  0.2274
26996SOL     OW83619   3.779   4.215   8.074 -0.1202  0.5188 -0.3462
26996SOL    HW183620   3.845   4.283   8.060  0.1790  0.1121 -0.9461
26996SOL    HW283621   3.780   4.164   7.993 -0.3852 -0.1708  0.0810
26997SOL     OW83622   8.248   7.815   8.228  0.0282 -0.2384  0.6880
26997SOL    HW183623   8.332   7.772   8.246  0.8288  1.6689  1.7609
26997SOL    HW283624   8.228   7.863   8.308 -2.5796 -1.3319  0.7845
26998SOL     OW83625   9.094   9.106   3.766 -0.2359  0.0825  0.1253
26998SOL    HW183626   9.021   9.167   3.781 -1.5513 -1.1966 -0.7706
26998SOL    HW283627   9.100   9.099   3.671  0.1422 -0.8728  0.2068
26999SOL     OW83628   1.785   4.218   4.974  0.1893 -0.0780 -0.3975
26999SOL    HW183629   1.842   4.205   4.898  0.0613  1.6751 -0.8351
26999SOL    HW283630   1.696   4.209   4.939  0.1266  0.8827 -0.5094
27000SOL     OW83631   1.156   7.844   9.304 -0.0665 -0.2086  0.1095
27000SOL    HW183632   1.202   7.768   9.269 -0.2809  0.4155 -1.6526
27000SOL    HW283633   1.064   7.825   9.289 -0.0595  1.3438 -2.6754
27001SOL     OW83634   7.864   8.044   3.985 -0.1607  0.7194 -0.0317
27001SOL    HW183635   7.897   7.965   4.027 -0.9018  1.0309  1.1997
27001SOL    HW283636   7.928   8.065   3.917 -0.4287 -1.4423 -1.0205
27002SOL     OW83637   9.158   3.859   4.776 -0.3336  0.4497 -0.1461
27002SOL    HW183638   9.206   3.915   4.837  0.3886  0.2161 -0.4880
27002SOL    HW283639   9.094   3.917   4.735 -1.8431  0.3071  1.8712
27003SOL     OW83640   3.151   6.173   9.711 -0.3233 -0.3217 -0.5159
27003SOL    HW183641   3.162   6.244   9.775 -0.9562 -0.6096 -0.0757
27003SOL    HW283642   3.072   6.127   9.740 -2.2990  1.2009 -3.0837
27004SOL     OW83643   7.173   0.429   0.894  0.1683  0.2158 -0.4415
27004SOL    HW183644   7.220   0.421   0.977  0.3890  0.9803 -0.4825
27004SOL    HW283645   7.232   0.391   0.829  0.2016  0.0507 -0.3141
27005SOL     OW83646   8.814   0.484   0.572 -0.1301 -0.3810  0.2118
27005SOL    HW183647   8.780   0.497   0.484 -0.5811 -0.8227  0.3130
27005SOL    HW283648   8.907   0.505   0.566 -0.4859  1.2269  0.0168
27006SOL     OW83649   4.258   7.851   7.261 -0.0453 -0.1467  0.5270
27006SOL    HW183650   4.307   7.873   7.182  0.8905 -1.7668  0.5943
27006SOL    HW283651   4.180   7.805   7.229 -2.5145  3.7757  0.3267
27007SOL     OW83652   4.175   8.069   0.416  0.6642 -0.3897  0.2130
27007SOL    HW183653   4.144   8.112   0.496  0.0567 -0.3309 -0.0481
27007SOL    HW283654   4.230   8.135   0.373 -1.3843  0.6862 -0.8891
27008SOL     OW83655   5.091   3.966   7.966  0.0731 -0.0667 -0.0902
27008SOL    HW183656   5.177   3.951   7.927  0.6149  1.4031  0.4386
27008SOL    HW283657   5.091   3.913   8.046  0.6941  0.3050  0.1639
27009SOL     OW83658   8.696   8.493   9.779  0.1013  0.4988  0.0675
27009SOL    HW183659   8.609   8.522   9.809 -0.4926 -0.9561 -0.1519
27009SOL    HW283660   8.677   8.427   9.713  1.4062  0.6883 -0.5227
27010SOL     OW83661   3.388   4.744   4.601 -0.1844  0.0602 -0.5505
27010SOL    HW183662   3.363   4.836   4.600  0.4573  0.2396 -0.8806
27010SOL    HW283663   3.434   4.731   4.518 -0.4243 -0.6012 -0.5848
27011SOL     OW83664   7.123   0.006   7.699 -0.4795 -0.4690 -0.0094
27011SOL    HW183665   7.095  -0.079   7.734 -0.1520 -1.3162 -1.6877
27011SOL    HW283666   7.109  -0.002   7.604 -0.3791  1.3369 -0.1962
27012SOL     OW83667   1.310   3.906   3.266  0.7817  0.1447 -0.6951
27012SOL    HW183668   1.290   3.981   3.322 -3.0671 -1.2809  0.2053
27012SOL    HW283669   1.366   3.850   3.319 -0.4569  0.1546  0.6954
27013SOL     OW83670   0.563   0.165   3.781 -0.5957  0.1994  0.3440
27013SOL    HW183671   0.563   0.261   3.786 -1.8030  0.3066 -1.0743
27013SOL    HW283672   0.536   0.137   3.868  2.1071  1.0210  1.5598
27014SOL     OW83673   2.229   5.378   5.405  0.1734 -0.3326  0.1533
27014SOL    HW183674   2.155   5.416   5.453 -0.5581 -1.7794  0.2434
27014SOL    HW283675   2.260   5.449   5.349 -2.8848 -0.2875 -1.7476
27015SOL     OW83676   0.091   6.689   0.815  0.0981 -0.2514 -0.0348
27015SOL    HW183677   0.142   6.696   0.735 -0.6068  0.9978 -0.4062
27015SOL    HW283678   0.147   6.725   0.884 -0.0940  0.6569 -0.3504
27016SOL     OW83679   2.225   6.466   6.907  0.5271 -0.1251 -0.2381
27016SOL    HW183680   2.163   6.539   6.906  1.9566  1.1199 -0.0874
27016SOL    HW283681   2.215   6.428   6.995  0.5673  0.6000  0.0882
27017SOL     OW83682   5.924   7.851   7.671  0.1790 -0.3587 -0.0920
27017SOL    HW183683   5.874   7.931   7.689  1.3507  0.1738  0.9601
27017SOL    HW283684   5.859   7.782   7.670 -0.6916  0.4271  0.3652
27018SOL     OW83685   1.953   6.057   4.355 -0.4772  0.3118  0.1348
27018SOL    HW183686   1.918   5.986   4.409  0.5747  1.8470  3.0395
27018SOL    HW283687   1.933   6.137   4.405  0.7217  1.8435 -1.7050
27019SOL     OW83688   7.745   4.822   7.233  0.4452  0.4937 -0.0074
27019SOL    HW183689   7.784   4.875   7.163 -0.0236 -0.0950 -0.7436
27019SOL    HW283690   7.819   4.790   7.284  0.7494  1.6346  0.2980
27020SOL     OW83691   4.410   4.991   7.089  0.1589  0.2158  0.4495
27020SOL    HW183692   4.363   5.024   7.165 -1.4095 -1.6466  0.3833
27020SOL    HW283693   4.500   4.978   7.120 -0.7333 -1.7818  2.4707
27021SOL     OW83694   7.078  10.087   7.733 -0.4816  0.7704 -0.0882
27021SOL    HW183695   7.102  10.099   7.641 -1.4482 -0.9247 -0.6093
27021SOL    HW283696   6.988  10.055   7.731 -0.0990 -0.5564  1.3527
27022SOL     OW83697   1.358   5.825   5.720 -0.1598 -0.4729 -0.0179
27022SOL    HW183698   1.340   5.916   5.744  0.4281 -0.5288  0.6499
27022SOL    HW283699   1.415   5.833   5.643 -0.4509 -0.2824 -0.2178
27023SOL     OW83700   2.216   7.347   1.977  0.0968 -0.5541  0.1867
27023SOL    HW183701   2.236   7.421   1.920 -1.3184  1.1772  1.8138
27023SOL    HW283702   2.124   7.327   1.959 -0.3715  0.0039  1.7450
27024SOL     OW83703   7.668   7.633   2.505  0.5707 -0.2088 -0.1212
27024SOL    HW183704   7.714   7.717   2.510  1.3484 -0.5378 -1.3796
27024SOL    HW283705   7.731   7.569   2.539  1.4455 -0.7825 -2.6427
27025SOL     OW83706   0.391  10.035   1.739 -0.1606 -0.0896 -0.4508
27025SOL    HW183707   0.317  10.021   1.680  0.4771 -1.3459 -0.9796
27025SOL    HW283708   0.440  10.108   1.700  0.7315 -1.4558 -1.9938
27026SOL     OW83709   1.137   0.574   4.137 -0.0673  0.4260 -0.0727
27026SOL    HW183710   1.175   0.631   4.070  1.0021 -0.5092 -0.2971
27026SOL    HW283711   1.077   0.630   4.185 -0.0367  1.3962 -1.1253
27027SOL     OW83712   8.032   6.866   0.706  0.2107  0.7862 -0.2438
27027SOL    HW183713   7.984   6.858   0.624  0.3127 -1.3055 -0.1469
27027SOL    HW283714   8.119   6.831   0.687  1.3085  3.1802 -0.0288
27028SOL     OW83715   0.201   3.707   2.606  0.1953 -0.6685 -0.4446
27028SOL    HW183716   0.214   3.651   2.683  2.5201  0.0775 -0.2127
27028SOL    HW283717   0.129   3.765   2.630  0.7887 -0.5448  1.1365
27029SOL     OW83718   3.473   3.242   9.892  0.3200  0.5106  0.2362
27029SOL    HW183719   3.564   3.240   9.862  0.4023 -0.8653  0.5312
27029SOL    HW283720   3.472   3.189   9.972 -0.9485 -0.4227 -0.3682
27030SOL     OW83721   2.218   5.754  10.031 -0.2395  0.2510  0.3655
27030SOL    HW183722   2.199   5.776  10.122 -0.3435  0.7374  0.2271
27030SOL    HW283723   2.305   5.790  10.016  0.2713 -0.8202  0.6028
27031SOL     OW83724   4.427   7.885  10.003 -0.4777 -0.0889 -0.1206
27031SOL    HW183725   4.455   7.903  10.093  1.6067  0.5341 -0.8295
27031SOL    HW283726   4.477   7.947   9.950  0.5286 -2.3164 -1.9521
27032SOL     OW83727   4.597   8.295   7.326 -0.4907  0.2452  0.0379
27032SOL    HW183728   4.532   8.259   7.266 -1.5262 -1.3211  1.9487
27032SOL    HW283729   4.588   8.390   7.318 -2.0303  0.0557 -0.7613
27033SOL     OW83730   7.809   5.688   4.402  0.1283 -0.3663  0.1911
27033SOL    HW183731   7.807   5.782   4.384 -0.6633 -0.5802 -0.9066
27033SOL    HW283732   7.722   5.667   4.435  0.2728 -0.7302  0.3534
27034SOL     OW83733   5.766   0.307   9.459  0.2433 -0.5635  0.2595
27034SOL    HW183734   5.821   0.329   9.384 -0.4336 -2.4237 -0.8463
27034SOL    HW283735   5.720   0.388   9.480  0.4483  0.0043 -1.3518
27035SOL     OW83736   3.880   6.138   2.092  0.0223  0.2023 -0.0286
27035SOL    HW183737   3.940   6.092   2.150 -0.2137  0.0947  0.1322
27035SOL    HW283738   3.930   6.214   2.060 -0.0700  0.6388  0.8399
27036SOL     OW83739   6.015   7.124   4.128  0.1961 -0.8713  0.0858
27036SOL    HW183740   5.998   7.190   4.195 -1.2290  0.3515 -1.3723
27036SOL    HW283741   6.108   7.105   4.136  0.7714  1.6539  0.3145
27037SOL     OW83742   8.091   8.852   7.241 -0.0592 -0.0720 -0.2649
27037SOL    HW183743   8.156   8.891   7.299 -1.9205  1.4135  0.9231
27037SOL    HW283744   8.112   8.758   7.242  1.9895  0.3329  0.0970
27038SOL     OW83745   8.437   7.664   9.616  0.0306  0.0505  0.3903
27038SOL    HW183746   8.531   7.660   9.637 -0.2434 -2.5774  1.4701
27038SOL    HW283747   8.407   7.744   9.659  2.1589  2.4086 -2.1032
27039SOL     OW83748   5.757   3.621   6.682 -0.0957  0.1770 -0.1710
27039SOL    HW183749   5.701   3.647   6.755 -0.3341 -0.0850 -0.2595
27039SOL    HW283750   5.846   3.634   6.715 -0.2027  1.3932 -0.3148
27040SOL     OW83751   8.769   8.919   2.130 -0.2354 -0.1766  0.2854
27040SOL    HW183752   8.838   8.857   2.109 -0.2484 -0.1747  0.2358
27040SOL    HW283753   8.811   8.984   2.186  0.5914  1.5434 -2.1788
27041SOL     OW83754   5.805   5.025   6.744 -1.0005  0.3808 -0.3354
27041SOL    HW183755   5.887   4.984   6.770  0.3405  3.5610  0.9763
27041SOL    HW283756   5.783   4.983   6.661  2.3336 -0.1534 -1.0966
27042SOL     OW83757   9.896   4.553   3.368  0.2680 -0.0849  0.0539
27042SOL    HW183758   9.956   4.529   3.439 -1.2118  1.1832  1.8345
27042SOL    HW283759   9.953   4.582   3.297  1.7812  0.3765  1.4014
27043SOL     OW83760   8.423   7.751   3.844  0.2071  0.5339  0.0259
27043SOL    HW183761   8.355   7.685   3.855 -0.1462  1.1482  1.8819
27043SOL    HW283762   8.380   7.833   3.871  1.6243  0.9470  1.1303
27044SOL     OW83763   5.755   6.744   3.238  0.3194  0.1188 -0.1075
27044SOL    HW183764   5.785   6.723   3.149 -0.6374  0.2396 -0.4718
27044SOL    HW283765   5.699   6.820   3.227  1.1364  0.8693  0.7721
27045SOL     OW83766   5.543   0.469   5.270 -0.2001  0.1362  0.0519
27045SOL    HW183767   5.525   0.388   5.318  1.8037  0.0957  0.8409
27045SOL    HW283768   5.621   0.505   5.313  0.0750  1.4900 -1.5056
27046SOL     OW83769   7.276   1.150   0.874 -0.0698 -0.2071 -0.4551
27046SOL    HW183770   7.365   1.129   0.847 -0.3004 -2.0688  0.0452
27046SOL    HW283771   7.282   1.238   0.912  1.7162 -0.6107  0.3055
27047SOL     OW83772   7.140   1.494   8.790 -0.0076 -0.1727 -0.0023
27047SOL    HW183773   7.085   1.571   8.804 -0.2877 -0.3572 -0.0695
27047SOL    HW283774   7.221   1.513   8.837  0.4878  0.7749 -1.1987
27048SOL     OW83775   6.722   8.739   4.357  0.4428 -0.3237  0.0740
27048SOL    HW183776   6.751   8.821   4.316 -1.0606 -0.4583 -1.3914
27048SOL    HW283777   6.754   8.670   4.298  0.2174 -0.6878  0.3709
27049SOL     OW83778   9.226   2.347   9.282  0.2422 -0.3733 -0.1944
27049SOL    HW183779   9.321   2.350   9.276  0.3018 -1.3967  0.1876
27049SOL    HW283780   9.199   2.286   9.214 -0.1307 -0.2821 -0.1312
27050SOL     OW83781   0.961   3.411   6.428  0.1279 -0.2638  0.1936
27050SOL    HW183782   0.996   3.335   6.474  0.6592  0.4644  1.0326
27050SOL    HW283783   0.975   3.484   6.489 -0.8928  0.4080 -0.3489
27051SOL     OW83784   4.711   6.980   5.763  0.0462  0.4622 -0.4511
27051SOL    HW183785   4.702   6.907   5.701 -0.3754 -1.2117  1.4817
27051SOL    HW283786   4.623   6.993   5.798  0.4294  0.7962  0.4169
27052SOL     OW83787   8.479   0.821  10.183  0.4138  0.1642 -0.0422
27052SOL    HW183788   8.505   0.888  10.246  0.7248 -0.0917  0.1070
27052SOL    HW283789   8.451   0.870  10.105  0.0549  0.4794  0.2820
27053SOL     OW83790   0.679   4.944   0.240  0.6175 -0.3491 -0.5267
27053SOL    HW183791   0.707   4.879   0.304 -0.4734 -0.4112 -0.0901
27053SOL    HW283792   0.601   4.983   0.278 -1.1962 -1.6839 -2.6212
27054SOL     OW83793   9.268   6.443   7.858  0.4328 -0.0944 -0.0876
27054SOL    HW183794   9.297   6.520   7.907 -0.1244 -0.8896  1.5760
27054SOL    HW283795   9.299   6.458   7.769  1.5490  1.3944  0.5092
27055SOL     OW83796   7.190   7.468   9.084 -0.3095  0.1814 -0.1319
27055SOL    HW183797   7.259   7.534   9.094 -1.2291  1.4286 -1.5072
27055SOL    HW283798   7.209   7.403   9.152  4.4565 -1.5987 -2.6911
27056SOL     OW83799   1.120   5.530   1.725  0.4331 -0.1728 -0.3367
27056SOL    HW183800   1.206   5.490   1.738  0.3469  0.3668  2.6728
27056SOL    HW283801   1.060   5.475   1.775 -0.4639  1.0346 -0.0380
27057SOL     OW83802   5.398   8.553   1.737 -0.4069  0.2548 -0.4392
27057SOL    HW183803   5.354   8.638   1.732 -0.4835  0.1751 -1.5044
27057SOL    HW283804   5.492   8.574   1.739 -0.3171  0.3840 -2.6667
27058SOL     OW83805   7.431   9.082   9.779 -0.6090 -0.3353 -0.5448
27058SOL    HW183806   7.410   8.989   9.790 -1.3441 -0.2200 -0.8962
27058SOL    HW283807   7.479   9.106   9.858 -1.9819 -0.5773  0.3954
27059SOL     OW83808   2.498   4.926   4.318  0.0390  0.3713 -0.3371
27059SOL    HW183809   2.458   4.883   4.393  0.1529  0.7300 -0.0643
27059SOL    HW283810   2.563   4.986   4.357 -0.6230  1.3233 -0.6527
27060SOL     OW83811   8.510   0.404   5.752  0.0076  0.1755  0.2509
27060SOL    HW183812   8.532   0.494   5.729  0.7420  0.2556  1.1862
27060SOL    HW283813   8.574   0.380   5.819  0.4420 -1.3758 -0.6639
27061SOL     OW83814   3.894   6.553   1.538 -0.4674 -0.0243  1.0627
27061SOL    HW183815   3.822   6.517   1.487  1.2357  0.0003 -1.5167
27061SOL    HW283816   3.854   6.623   1.590 -2.2189  0.3561 -0.6901
27062SOL     OW83817   1.546   3.785   6.848  0.2966 -0.2155  0.0855
27062SOL    HW183818   1.465   3.801   6.799 -0.0338 -0.2537  0.6090
27062SOL    HW283819   1.522   3.799   6.940  1.3185  1.6014  0.1347
27063SOL     OW83820   0.019   8.795   1.458 -0.2346  0.2279  0.3602
27063SOL    HW183821   0.058   8.845   1.386 -0.3437  1.0618  0.8629
27063SOL    HW283822  -0.027   8.723   1.415  0.0428  0.4823 -0.3790
27064SOL     OW83823   6.032   9.241   8.345  0.0595  0.4970  0.4912
27064SOL    HW183824   6.068   9.220   8.259 -0.4131  0.8195  0.2133
27064SOL    HW283825   6.057   9.166   8.400 -2.5542 -1.4360 -0.7337
27065SOL     OW83826   9.053   2.263   9.565 -0.6366 -0.1605 -1.1333
27065SOL    HW183827   9.099   2.196   9.616 -1.8853 -0.6278 -0.6023
27065SOL    HW283828   9.112   2.280   9.491  1.0837  0.3414  0.2745
27066SOL     OW83829   9.988   4.500   6.476 -0.2725  0.4499  0.5978
27066SOL    HW183830  10.051   4.507   6.547 -0.0784  0.8751  0.3894
27066SOL    HW283831   9.989   4.407   6.452  0.0898  0.4105  0.7614
27067SOL     OW83832   4.974   7.686   3.230  0.0616  0.1609  0.3517
27067SOL    HW183833   4.940   7.622   3.168 -0.0995 -0.0571  0.6644
27067SOL    HW283834   4.904   7.695   3.295 -1.1139  2.6316 -1.0985
27068SOL     OW83835   8.163   0.505   5.842 -0.2975  0.4263  0.4843
27068SOL    HW183836   8.070   0.501   5.864 -0.7292  1.3074 -1.0711
27068SOL    HW283837   8.180   0.423   5.795 -0.4686  0.5945  0.1268
27069SOL     OW83838   7.406   3.742   6.987 -0.8953  0.2777  0.4596
27069SOL    HW183839   7.462   3.800   6.935  1.6122 -2.9346 -0.7797
27069SOL    HW283840   7.335   3.718   6.927 -0.5805  0.1680  0.1267
27070SOL     OW83841   0.976   3.130   2.307 -0.2911 -0.1820 -0.7837
27070SOL    HW183842   0.994   3.098   2.396  1.2667 -1.0834 -1.3697
27070SOL    HW283843   1.028   3.072   2.251 -0.5010  0.9666 -2.2072
27071SOL     OW83844   0.940   6.428   6.743  0.1727  0.1110 -0.6807
27071SOL    HW183845   0.939   6.524   6.752 -0.5189 -0.0118  0.8802
27071SOL    HW283846   1.033   6.405   6.741  0.3576  0.7227  0.3005
27072SOL     OW83847   3.069   3.472   9.022 -0.8709  0.8179 -0.0591
27072SOL    HW183848   3.146   3.525   9.002 -0.0399 -0.7491 -1.0957
27072SOL    HW283849   3.103   3.397   9.071 -1.9276  0.7725  0.6405
27073SOL     OW83850   5.902   8.435   6.477 -0.1848 -0.2062  0.0075
27073SOL    HW183851   5.843   8.496   6.434 -0.0238 -0.8832 -1.2321
27073SOL    HW283852   5.858   8.350   6.472 -0.4857 -0.1877  1.8608
27074SOL     OW83853   3.721   1.914   3.205  0.0980 -0.5981  0.4975
27074SOL    HW183854   3.680   1.837   3.243  1.1117 -0.7157  1.4090
27074SOL    HW283855   3.648   1.974   3.187 -0.8983 -2.3897 -1.8536
27075SOL     OW83856   7.437   1.440   9.987 -0.1922 -0.7733 -0.1383
27075SOL    HW183857   7.530   1.461   9.979  0.2621 -1.8461  1.7987
27075SOL    HW283858   7.396   1.525  10.002  1.0724 -0.6118  3.2332
27076SOL     OW83859   9.057   5.489   8.280 -0.0113  0.2696 -0.5482
27076SOL    HW183860   9.005   5.529   8.211 -0.3866 -0.2331 -0.5626
27076SOL    HW283861   9.118   5.431   8.234 -1.8322 -1.8926 -0.3781
27077SOL     OW83862   2.395   8.058   1.220  0.3153 -0.3143 -0.2791
27077SOL    HW183863   2.436   7.971   1.223 -0.6688 -0.7709  0.7377
27077SOL    HW283864   2.301   8.039   1.216  0.1029  0.7074 -0.2479
27078SOL     OW83865   4.447   4.758   0.471  0.3100  0.7126 -0.3811
27078SOL    HW183866   4.499   4.778   0.549  0.1452  1.2068 -0.3923
27078SOL    HW283867   4.367   4.810   0.481 -2.1630 -3.0320  1.6826
27079SOL     OW83868   0.942   6.289   9.001 -0.0681 -0.4383 -0.4581
27079SOL    HW183869   0.892   6.327   8.929  0.1571  0.4029 -0.1926
27079SOL    HW283870   1.032   6.319   8.987  0.0819 -0.7245 -0.1351
27080SOL     OW83871   8.500   4.684   9.679  0.5214  0.6914  0.2738
27080SOL    HW183872   8.487   4.617   9.746 -0.3594  0.2473 -0.3391
27080SOL    HW283873   8.515   4.765   9.729 -0.5195  0.4418  1.0047
27081SOL     OW83874   8.261   1.638   3.984  0.7422  0.3627  0.6224
27081SOL    HW183875   8.205   1.680   4.049  0.8710  1.3190  0.1337
27081SOL    HW283876   8.203   1.617   3.911  0.5610 -0.8866  1.1074
27082SOL     OW83877   4.706   9.570   8.406  0.4832 -0.0541  0.0772
27082SOL    HW183878   4.695   9.664   8.395  0.5391 -0.2437 -1.8934
27082SOL    HW283879   4.794   9.552   8.373 -0.0769 -0.9709 -0.9920
27083SOL     OW83880   3.785   4.139   1.522  0.3752 -0.3698  0.0779
27083SOL    HW183881   3.716   4.073   1.532  0.8307 -0.7620  0.6678
27083SOL    HW283882   3.784   4.186   1.605  0.1243  0.3079 -0.3038
27084SOL     OW83883   9.796   6.199   6.941 -0.0804 -0.7681  0.6854
27084SOL    HW183884   9.775   6.144   7.016 -0.4918  0.4663  1.5161
27084SOL    HW283885   9.711   6.229   6.908  0.0712 -1.6074 -0.5449
27085SOL     OW83886   3.273   4.124   1.514 -0.5876  0.1014  0.5199
27085SOL    HW183887   3.247   4.059   1.579 -3.0935 -1.0043 -1.4202
27085SOL    HW283888   3.200   4.186   1.511 -0.1151  0.6426 -0.5745
27086SOL     OW83889   4.979   8.022   6.359  0.3360  0.1295 -0.1701
27086SOL    HW183890   5.011   8.112   6.371  1.2367 -0.3124  0.8778
27086SOL    HW283891   4.888   8.025   6.390  0.5963  0.5164  0.5940
27087SOL     OW83892   4.530   4.275   1.716 -0.2051  0.2455  0.0529
27087SOL    HW183893   4.589   4.257   1.643  0.5545  0.0128  0.7149
27087SOL    HW283894   4.444   4.245   1.685  0.0396  0.4404 -0.8576
27088SOL     OW83895   4.009   0.508   3.328 -0.4515 -0.3288  0.4152
27088SOL    HW183896   4.077   0.505   3.261 -1.5299  2.3407 -0.9581
27088SOL    HW283897   4.010   0.599   3.360 -2.8818 -0.3681  0.8229
27089SOL     OW83898   8.274   5.752   9.943 -0.1491 -0.0316 -0.4124
27089SOL    HW183899   8.194   5.704   9.962 -0.8251  1.4730  0.6792
27089SOL    HW283900   8.245   5.840   9.920  1.1190  0.1634 -1.3880
27090SOL     OW83901   2.114   7.382   6.453  0.0352  0.0667  0.6045
27090SOL    HW183902   2.180   7.420   6.512  1.3088  1.5842 -1.6149
27090SOL    HW283903   2.156   7.303   6.418  0.1563  0.3034  0.2030
27091SOL     OW83904   2.287   5.210   4.578 -0.2579 -0.5172  0.3229
27091SOL    HW183905   2.288   5.215   4.482  2.2121 -0.0033  0.2838
27091SOL    HW283906   2.247   5.126   4.598 -0.8127 -0.6285 -1.1665
27092SOL     OW83907   1.851   0.786   3.650  0.3513 -0.0824 -0.2386
27092SOL    HW183908   1.864   0.873   3.611  0.7536 -0.6034 -1.3151
27092SOL    HW283909   1.932   0.768   3.696  0.5681 -0.1938 -0.6551
27093SOL     OW83910   1.587   1.832   7.995  0.5901 -0.0437 -0.3791
27093SOL    HW183911   1.570   1.888   7.920 -2.1970  0.0778  0.2285
27093SOL    HW283912   1.537   1.871   8.066 -0.6132 -2.6661  0.3427
27094SOL     OW83913   8.270   3.077   3.214  0.5900 -0.7801  0.1706
27094SOL    HW183914   8.235   3.120   3.136 -0.1406  2.9112  2.2953
27094SOL    HW283915   8.212   3.002   3.228 -0.6921 -0.1860 -1.5510
27095SOL     OW83916   2.777   5.678   9.733 -0.2443 -0.1079 -0.3001
27095SOL    HW183917   2.774   5.601   9.790 -0.4534 -0.7485 -1.1609
27095SOL    HW283918   2.807   5.749   9.790  0.8044 -1.0062  0.3023
27096SOL     OW83919   1.774   4.543   9.584 -0.3242 -0.0074  0.0736
27096SOL    HW183920   1.726   4.575   9.660 -0.7280 -1.4298  0.4335
27096SOL    HW283921   1.706   4.511   9.524  0.1145 -1.5947  0.3779
27097SOL     OW83922   6.725   9.039   3.147  0.8110 -0.2221 -0.5308
27097SOL    HW183923   6.816   9.009   3.138  0.8373 -0.9199  1.5862
27097SOL    HW283924   6.732   9.122   3.194  0.3246 -0.5694  0.1583
27098SOL     OW83925   6.242   9.576   1.131 -0.2486  0.3453  0.2913
27098SOL    HW183926   6.292   9.499   1.103 -2.8792 -1.4203  0.0587
27098SOL    HW283927   6.296   9.617   1.199  2.4486 -0.1013 -1.4380
27099SOL     OW83928   0.302   0.458   2.194  0.4389 -0.6425  0.5010
27099SOL    HW183929   0.217   0.503   2.190  0.5429 -0.5332 -2.1122
27099SOL    HW283930   0.279   0.366   2.211 -0.3240 -0.7394 -0.8183
27100SOL     OW83931   1.353   3.011  10.118 -0.5705  0.4451 -0.0709
27100SOL    HW183932   1.334   2.926  10.158  0.3850 -0.7156 -1.9500
27100SOL    HW283933   1.447   3.009  10.102 -0.6555  1.5842 -0.7748
27101SOL     OW83934   4.829  10.098   3.842  0.9129 -0.3691 -0.0583
27101SOL    HW183935   4.887  10.072   3.913 -0.0979 -1.3548  0.4252
27101SOL    HW283936   4.889  10.125   3.772  1.9278 -0.1906  0.8479
27102SOL     OW83937   1.591   9.207   9.974  0.3983  0.4594  0.3133
27102SOL    HW183938   1.637   9.144   9.918  0.1661 -0.9610  1.6570
27102SOL    HW283939   1.636   9.290   9.958  2.4298 -0.5543  0.3928
27103SOL     OW83940   3.494   9.130   7.179  0.4791 -0.6775  0.3769
27103SOL    HW183941   3.572   9.077   7.165  0.7529 -0.3594  0.6602
27103SOL    HW283942   3.462   9.102   7.265  1.5501  0.7222  1.2891
27104SOL     OW83943   5.490   7.269   5.897  0.6155 -0.5616  0.4826
27104SOL    HW183944   5.538   7.321   5.961  1.0179 -1.3051  0.7968
27104SOL    HW283945   5.432   7.332   5.853  0.9862  0.1162  0.9494
27105SOL     OW83946   2.650   1.955   6.158 -0.1208 -0.1350 -0.5834
27105SOL    HW183947   2.711   2.005   6.104  1.1262 -1.6126 -0.6048
27105SOL    HW283948   2.585   1.922   6.096  1.3263 -1.8567 -1.2632
27106SOL     OW83949   7.203   7.518   0.187  0.3335 -0.0623  0.2906
27106SOL    HW183950   7.231   7.524   0.279 -2.2445  0.5207  1.1322
27106SOL    HW283951   7.282   7.534   0.136  1.5353  1.2212  2.4275
27107SOL     OW83952   5.724   8.690   4.586  0.0978 -0.4845  0.0742
27107SOL    HW183953   5.653   8.741   4.625  0.7338  0.2987  0.2330
27107SOL    HW283954   5.804   8.730   4.620  0.6497 -0.3570 -1.3089
27108SOL     OW83955   1.809   6.625   9.525 -0.2026 -0.4431  0.5846
27108SOL    HW183956   1.846   6.627   9.613 -1.1940  0.1012  1.0039
27108SOL    HW283957   1.734   6.685   9.529  1.6184  2.2338 -1.4856
27109SOL     OW83958   3.057  10.324   1.637 -0.0977 -0.7911 -0.3508
27109SOL    HW183959   3.080  10.332   1.544 -0.2135 -0.1488 -0.3339
27109SOL    HW283960   3.105  10.396   1.679 -0.7697 -0.5063 -0.0568
27110SOL     OW83961   4.644   4.951   7.225 -0.1417  0.5119 -0.4666
27110SOL    HW183962   4.717   4.929   7.167  0.0968  0.5262 -0.1777
27110SOL    HW283963   4.686   4.983   7.305 -0.3443 -2.3973  0.9428
27111SOL     OW83964   1.968   4.875  10.027 -0.5313  0.3183 -0.0640
27111SOL    HW183965   1.933   4.819  10.096  2.0566 -3.0620 -1.1984
27111SOL    HW283966   2.057   4.897  10.055  0.5238 -1.0014 -2.1013
27112SOL     OW83967   1.148   8.784   0.223  1.0021 -0.1213 -0.1977
27112SOL    HW183968   1.086   8.712   0.215  0.8957  0.0220 -0.6598
27112SOL    HW283969   1.192   8.787   0.139  1.6824 -0.2594  0.1466
27113SOL     OW83970   5.980   2.913   4.962  0.3376  0.5053  0.0783
27113SOL    HW183971   6.005   2.931   4.872 -2.1371  1.4628 -0.4867
27113SOL    HW283972   5.920   2.839   4.955 -0.3111  0.9465  0.8649
27114SOL     OW83973   7.848   0.555   8.185 -0.2026 -0.0010  0.0089
27114SOL    HW183974   7.845   0.643   8.221 -1.8341  0.1429 -0.3864
27114SOL    HW283975   7.787   0.505   8.240 -0.1320 -0.6022 -0.4482
27115SOL     OW83976   9.835   3.512   9.268 -0.0204  0.2051  0.0412
27115SOL    HW183977   9.922   3.544   9.244 -0.8310  2.4500 -0.1965
27115SOL    HW283978   9.798   3.583   9.321 -1.5511 -0.9038  0.5196
27116SOL     OW83979   0.011   7.663   6.735  0.1346 -0.0201 -0.3764
27116SOL    HW183980  -0.069   7.648   6.684 -0.1672 -1.2307  0.4011
27116SOL    HW283981   0.058   7.579   6.732 -0.9815 -0.9437  3.0946
27117SOL     OW83982   7.854   8.869  10.054 -0.3747  0.0039 -0.6362
27117SOL    HW183983   7.942   8.861  10.016  1.2745  1.9295  2.4040
27117SOL    HW283984   7.809   8.930   9.996  1.6433  1.9640 -0.2553
27118SOL     OW83985   2.982   4.905  10.055 -0.3261 -0.3814  0.2379
27118SOL    HW183986   2.953   4.996  10.064  0.2537 -0.0399 -1.1037
27118SOL    HW283987   3.068   4.904  10.096 -0.5975 -0.4898  0.8195
27119SOL     OW83988   6.465   2.720   1.233  0.2792  0.1546 -0.6595
27119SOL    HW183989   6.547   2.768   1.240 -1.1076  2.5362  0.5433
27119SOL    HW283990   6.465   2.661   1.308  0.1014  1.5962  0.5435
27120SOL     OW83991   4.559   7.972  10.255  0.2727 -0.2668 -0.6068
27120SOL    HW183992   4.547   7.945  10.346 -0.4235 -0.7175 -0.8261
27120SOL    HW283993   4.520   8.059  10.251 -0.0342 -0.4011 -0.5618
27121SOL     OW83994   5.644   0.218   3.023  0.0893  0.1345 -0.3938
27121SOL    HW183995   5.664   0.129   2.993 -0.2662 -0.8956  2.1360
27121SOL    HW283996   5.730   0.259   3.032  0.3469 -0.3727 -0.4473
27122SOL     OW83997   3.641   1.731   6.980 -0.1771 -0.0480 -0.3859
27122SOL    HW183998   3.691   1.800   6.937 -0.9514  0.2328 -0.8549
27122SOL    HW283999   3.641   1.658   6.917  0.9126 -0.6123  0.2399
27123SOL     OW84000   7.013   6.197   8.238 -0.1621 -0.0238  0.0664
27123SOL    HW184001   7.030   6.202   8.144 -1.5548  1.9315 -0.1279
27123SOL    HW284002   6.925   6.161   8.245 -0.3510  0.5278  0.5843
27124SOL     OW84003   9.150   6.723   5.963 -0.1464 -0.0948 -0.7039
27124SOL    HW184004   9.132   6.731   5.869 -1.0004 -0.3484 -0.5670
27124SOL    HW284005   9.069   6.687   6.000 -0.0260  0.5452  0.2154
27125SOL     OW84006   6.259   7.154   7.223 -0.1344 -0.3726  0.1910
27125SOL    HW184007   6.248   7.198   7.307 -1.4977 -1.4387  0.6215
27125SOL    HW284008   6.352   7.136   7.216  0.0843  0.3254  1.1569
27126SOL     OW84009   5.426   0.008   8.487  0.3996  0.1405  0.1369
27126SOL    HW184010   5.344   0.057   8.488  0.4414  0.3488 -1.9140
27126SOL    HW284011   5.406  -0.072   8.438  1.5216  0.4563 -0.8965
27127SOL     OW84012   6.987   6.770   8.381  0.2204 -0.1174  0.3616
27127SOL    HW184013   7.003   6.824   8.304 -1.6904  0.2007  0.1556
27127SOL    HW284014   6.953   6.688   8.347  1.0313 -0.6545  0.8027
27128SOL     OW84015   3.209   1.216   8.698 -0.1745 -0.0068  0.1148
27128SOL    HW184016   3.114   1.217   8.686  0.0275  1.2201 -2.1120
27128SOL    HW284017   3.226   1.289   8.757 -0.5796  0.1601  0.0326
27129SOL     OW84018   6.001   8.117   7.319 -0.4653  0.5517 -0.0181
27129SOL    HW184019   5.944   8.163   7.381 -0.3723  0.1030  0.4055
27129SOL    HW284020   6.087   8.158   7.330 -0.1984 -0.2391  0.9237
27130SOL     OW84021   7.433   4.058  10.206  0.0373 -0.1037 -0.1865
27130SOL    HW184022   7.398   3.997  10.271  0.6102 -0.5871 -0.3242
27130SOL    HW284023   7.470   4.129  10.259 -0.1923 -0.1140 -0.0078
27131SOL     OW84024   5.313   8.728   2.014 -0.2401 -0.3577 -0.3137
27131SOL    HW184025   5.225   8.706   2.046 -0.9255 -0.2842 -1.9987
27131SOL    HW284026   5.297   8.770   1.929  1.3779  0.7432 -0.1136
27132SOL     OW84027   7.008   4.903   5.975  0.6979  0.0665 -0.1570
27132SOL    HW184028   7.086   4.910   5.920 -0.2397  0.6026 -1.4635
27132SOL    HW284029   6.975   4.993   5.983  0.3396 -0.1181  0.5944
27133SOL     OW84030  10.170   4.674   2.490  0.2016  0.1998  0.4842
27133SOL    HW184031  10.184   4.684   2.396 -1.1689  1.3929  0.3559
27133SOL    HW284032  10.097   4.613   2.497 -1.3108  1.9353  0.6159
27134SOL     OW84033   5.642   2.449   1.178  0.0866  0.1022 -0.0683
27134SOL    HW184034   5.660   2.527   1.125 -0.8625  0.3807  0.0043
27134SOL    HW284035   5.643   2.481   1.268 -0.4108  0.0467 -0.0453
27135SOL     OW84036   2.547   0.088   8.080  0.0529 -0.2019  0.1863
27135SOL    HW184037   2.634   0.088   8.040  0.2890 -0.9736  0.6985
27135SOL    HW284038   2.492   0.044   8.016  0.0088  0.3827 -0.1870
27136SOL     OW84039   4.387   2.543   3.361  0.0131  0.4942 -0.1416
27136SOL    HW184040   4.482   2.553   3.366 -0.0862  1.0280  0.9702
27136SOL    HW284041   4.352   2.623   3.402 -0.9014 -0.2466  0.5793
27137SOL     OW84042   6.768   7.304   5.667  0.3630 -0.2733 -0.3382
27137SOL    HW184043   6.754   7.325   5.575  1.7425 -0.4296 -0.6050
27137SOL    HW284044   6.862   7.288   5.674  0.6404  1.7338  1.5065
27138SOL     OW84045   1.525   6.430   7.910 -0.5900  0.3860 -0.2731
27138SOL    HW184046   1.501   6.521   7.896  2.4068  1.5374  1.3342
27138SOL    HW284047   1.455   6.395   7.965 -0.8443  2.2739  0.6723
27139SOL     OW84048   8.978   2.581   8.256 -0.0857 -0.2918 -0.9602
27139SOL    HW184049   9.011   2.597   8.168  1.8262  0.1403 -0.2273
27139SOL    HW284050   9.025   2.644   8.311 -1.4305 -0.3736  0.3330
27140SOL     OW84051  10.214   5.213   1.382 -0.0040  0.4009 -0.0739
27140SOL    HW184052  10.162   5.133   1.387 -0.4322  0.5595 -1.5747
27140SOL    HW284053  10.167   5.276   1.437 -1.4206  0.5299 -1.3697
27141SOL     OW84054   7.223   1.509   1.890  0.0261 -0.4619 -0.0723
27141SOL    HW184055   7.272   1.446   1.836  1.3088  1.3342 -1.1295
27141SOL    HW284056   7.137   1.514   1.848  0.6874  0.1799 -1.4217
27142SOL     OW84057   7.572   4.922   0.018 -0.5516 -0.0887 -0.0609
27142SOL    HW184058   7.649   4.874   0.047 -1.7676 -2.4673 -0.5116
27142SOL    HW284059   7.606   5.001  -0.023  1.6081 -0.9705 -0.0566
27143SOL     OW84060   6.255   3.525   8.293  0.0284 -0.4211 -0.2292
27143SOL    HW184061   6.278   3.458   8.358 -1.4515 -1.6630 -0.9169
27143SOL    HW284062   6.209   3.476   8.224 -0.7865  1.2684 -0.9411
27144SOL     OW84063   7.897   2.322   8.214 -0.3353  0.3012 -0.7369
27144SOL    HW184064   7.988   2.312   8.186 -0.2516 -1.0443 -0.0817
27144SOL    HW284065   7.884   2.252   8.278 -2.2729 -0.5346 -1.9371
27145SOL     OW84066   1.826   0.801   1.033  0.1742 -0.0170 -0.4509
27145SOL    HW184067   1.833   0.879   0.978 -0.5297  0.3551 -0.0360
27145SOL    HW284068   1.760   0.824   1.099 -0.9114 -1.3602 -1.0015
27146SOL     OW84069   7.166   7.079   4.253  0.4749 -0.1604  0.1732
27146SOL    HW184070   7.184   7.156   4.199 -4.2622  0.8234 -0.5226
27146SOL    HW284071   7.166   7.006   4.190  1.6713 -0.1772  0.1851
27147SOL     OW84072   0.295   2.985   6.806 -0.4937 -0.1247 -0.3372
27147SOL    HW184073   0.263   3.051   6.744 -0.2874 -0.0426 -0.3568
27147SOL    HW284074   0.352   3.033   6.865 -0.2161 -0.3173 -0.4503
27148SOL     OW84075  10.159   8.448   9.040 -0.2649 -0.0500  0.0858
27148SOL    HW184076  10.154   8.353   9.051 -0.5902 -0.1159 -0.5577
27148SOL    HW284077  10.069   8.474   9.021 -0.4809  0.6152  1.9018
27149SOL     OW84078   9.859   8.147   4.544  0.0916 -0.5774  0.1319
27149SOL    HW184079   9.846   8.067   4.594 -1.1624 -2.0266 -2.3235
27149SOL    HW284080   9.826   8.127   4.456  0.2609  2.4561 -0.7607
27150SOL     OW84081   6.914   3.144   8.012 -0.2294 -0.3160 -0.3864
27150SOL    HW184082   6.942   3.147   7.920  0.0019 -0.5822 -0.3261
27150SOL    HW284083   6.825   3.181   8.011 -0.1565 -0.1443 -0.6887
27151SOL     OW84084   2.142   2.945   4.286 -0.0515 -0.3044  0.7267
27151SOL    HW184085   2.061   2.895   4.300  0.6465 -1.1977  1.6995
27151SOL    HW284086   2.164   2.980   4.372  0.2025  0.5917  0.3158
27152SOL     OW84087   5.686   3.307   7.333 -0.0342 -0.5171  0.1297
27152SOL    HW184088   5.716   3.380   7.387 -2.6431  0.4698  0.3771
27152SOL    HW284089   5.744   3.235   7.357  1.9783  1.1667  0.6330
27153SOL     OW84090   0.021   6.837   6.735  0.2206  0.4936  0.1787
27153SOL    HW184091  -0.015   6.867   6.652 -0.4326  0.8399  0.5798
27153SOL    HW284092   0.103   6.886   6.746  0.6795 -0.0762 -0.5939
27154SOL     OW84093   9.559   3.073   5.738  0.1322  0.7370 -0.1385
27154SOL    HW184094   9.633   3.055   5.681  0.1454  0.0010  0.0982
27154SOL    HW284095   9.587   3.147   5.792  0.9922  0.0084  0.4576
27155SOL     OW84096   7.293   6.888   4.890  0.2459  0.6063 -0.0960
27155SOL    HW184097   7.318   6.817   4.949 -2.1808  0.0041  0.3205
27155SOL    HW284098   7.234   6.847   4.826 -0.2427  1.9954 -0.5758
27156SOL     OW84099   8.856   1.655   0.261  0.7367 -0.1618  0.1121
27156SOL    HW184100   8.887   1.728   0.313 -1.9894 -0.2432  2.1143
27156SOL    HW284101   8.791   1.693   0.201  0.2393 -0.7257  0.2732
27157SOL     OW84102  10.198   1.196   7.425  0.5134 -0.0393 -0.0141
27157SOL    HW184103  10.205   1.194   7.330 -1.1462  0.7049 -0.1784
27157SOL    HW284104  10.212   1.288   7.448 -3.4472  0.7172 -0.0119
27158SOL     OW84105   1.631   1.592   6.914 -0.5682 -0.3806  0.1148
27158SOL    HW184106   1.636   1.624   7.004 -0.0368 -1.0067  0.3247
27158SOL    HW284107   1.558   1.531   6.915  0.5155 -1.7340  0.5962
27159SOL     OW84108   4.444   2.374   7.195  0.0071 -0.5148 -0.2595
27159SOL    HW184109   4.534   2.365   7.165 -0.4000 -1.5705 -1.2016
27159SOL    HW284110   4.393   2.387   7.115 -0.8050 -0.9615  0.1748
27160SOL     OW84111   3.570   1.674   5.975 -0.2362 -0.4677 -0.1673
27160SOL    HW184112   3.605   1.707   5.892  1.4281 -2.3939 -0.3133
27160SOL    HW284113   3.634   1.702   6.041 -0.5684 -0.5382  0.1906
27161SOL     OW84114   6.588   3.779   3.940  0.0394 -0.2347 -0.3932
27161SOL    HW184115   6.668   3.815   3.902 -0.6686  0.4750 -1.2720
27161SOL    HW284116   6.594   3.685   3.924 -0.9339  0.1542 -3.8335
27162SOL     OW84117   7.510   2.178   5.731 -0.1069 -0.3205 -0.2827
27162SOL    HW184118   7.457   2.257   5.743 -0.5249 -0.6632  0.2049
27162SOL    HW284119   7.588   2.208   5.684  0.2405  0.5850  0.8026
27163SOL     OW84120   2.933   9.644   7.689  0.3760  0.0251 -0.4832
27163SOL    HW184121   2.839   9.644   7.708  0.3263 -0.1827 -0.7280
27163SOL    HW284122   2.972   9.693   7.761  0.0520  0.3238 -0.5119
27164SOL     OW84123   2.166   6.917   8.351  0.0728  0.3343 -0.1336
27164SOL    HW184124   2.100   6.880   8.409  0.5372  0.4397  0.4634
27164SOL    HW284125   2.166   7.011   8.370  0.8652  0.2446  0.3552
27165SOL     OW84126   2.736   2.085   2.400 -0.2768  0.3410  0.4278
27165SOL    HW184127   2.832   2.077   2.397 -0.3482 -0.4530 -0.2278
27165SOL    HW284128   2.711   2.032   2.476 -0.3162 -1.0600 -0.5223
27166SOL     OW84129   9.554   2.651   5.904  0.4238 -0.1842 -0.2224
27166SOL    HW184130   9.500   2.676   5.829  0.1508 -0.4723 -0.1243
27166SOL    HW284131   9.569   2.557   5.892  2.2067  0.1491 -1.0865
27167SOL     OW84132   1.268   6.219   4.884 -0.2123  0.5065  0.3944
27167SOL    HW184133   1.328   6.160   4.930  0.8769 -0.6691 -2.3628
27167SOL    HW284134   1.295   6.307   4.911 -0.1749 -0.1123  2.5763
27168SOL     OW84135   8.155   9.327   5.713 -0.0245 -0.4993  0.4258
27168SOL    HW184136   8.139   9.383   5.789  0.7489  0.4333 -0.0850
27168SOL    HW284137   8.228   9.271   5.739  0.3981 -0.0181  0.3001
27169SOL     OW84138   4.867   4.972   7.983 -0.0788 -0.0592 -0.0761
27169SOL    HW184139   4.847   5.063   7.962 -1.0829  0.4837  2.8410
27169SOL    HW284140   4.962   4.970   7.998  0.1567  0.1698 -1.3845
27170SOL     OW84141   4.701   9.913   8.789 -0.1930 -0.3393 -0.1692
27170SOL    HW184142   4.727   9.915   8.697  0.5994 -0.1574  0.0527
27170SOL    HW284143   4.783   9.905   8.837 -0.4170  1.4554  0.6057
27171SOL     OW84144   7.914   7.741   5.952  0.8299 -0.5499 -0.1026
27171SOL    HW184145   7.982   7.808   5.960  1.6080 -1.0381 -2.0906
27171SOL    HW284146   7.951   7.663   5.994  1.2975 -0.6775 -0.7541
27172SOL     OW84147   7.621   7.990  10.232 -0.4007  0.6168 -0.2998
27172SOL    HW184148   7.578   7.907  10.213  0.4392 -0.3980  1.9459
27172SOL    HW284149   7.617   7.999  10.327  0.8820  2.3991 -0.3536
27173SOL     OW84150   3.390   9.138   6.807 -0.2499  0.0719 -0.2661
27173SOL    HW184151   3.364   9.165   6.895 -0.2766 -0.9525  0.0511
27173SOL    HW284152   3.317   9.083   6.776 -0.0128  0.0120 -0.7234
27174SOL     OW84153   0.446   8.420   1.689 -0.3193 -0.2916  0.3001
27174SOL    HW184154   0.378   8.465   1.738 -1.0163 -0.5627 -0.3844
27174SOL    HW284155   0.397   8.362   1.629  0.5345 -1.7929  1.0116
27175SOL     OW84156   0.979   6.961   7.316  0.0856  0.6929 -0.0292
27175SOL    HW184157   0.962   7.014   7.394 -0.0927 -0.8610  1.0423
27175SOL    HW284158   0.938   6.877   7.335 -0.0180  0.2856 -1.8561
27176SOL     OW84159   3.017   0.006   0.652 -0.3097 -0.0788 -0.0818
27176SOL    HW184160   3.077   0.010   0.578 -0.2450  1.9487  0.0204
27176SOL    HW284161   3.056  -0.058   0.711 -0.0240 -1.2507 -1.4789
27177SOL     OW84162   5.776   5.029   5.855 -0.2405  0.3572  0.3160
27177SOL    HW184163   5.797   5.027   5.948  1.3395 -0.9168 -0.0247
27177SOL    HW284164   5.819   4.951   5.819  0.6474  1.7140 -1.7553
27178SOL     OW84165   9.466   7.808   2.410  0.5052  0.2459  0.1772
27178SOL    HW184166   9.491   7.898   2.429 -0.6552  0.7134 -0.3897
27178SOL    HW284167   9.376   7.814   2.379  0.8462 -0.9674 -1.1774
27179SOL     OW84168   0.590   6.221   5.711 -0.2888 -0.1092  0.0065
27179SOL    HW184169   0.626   6.177   5.634 -0.9945  0.3515 -0.5994
27179SOL    HW284170   0.553   6.150   5.764 -0.3980 -0.3601 -0.4031
27180SOL     OW84171   3.264   0.522   0.650  0.0588  1.0579  0.4666
27180SOL    HW184172   3.178   0.524   0.690  0.0378  2.2603  0.3833
27180SOL    HW284173   3.298   0.611   0.659  1.4806  0.5022  0.9114
27181SOL     OW84174   5.787   7.785   7.024  0.4468 -0.9971  0.0525
27181SOL    HW184175   5.708   7.822   7.063 -0.4895  0.3738 -2.9122
27181SOL    HW284176   5.846   7.860   7.015  0.9633 -1.4492 -0.3781
27182SOL     OW84177   4.096   5.128   1.557 -0.1499 -0.1044 -0.2791
27182SOL    HW184178   4.091   5.223   1.561  0.0699  0.0040 -1.8581
27182SOL    HW284179   4.014   5.097   1.595 -0.9322  0.7725 -1.2196
27183SOL     OW84180   8.268   4.366   8.615  0.1741  0.0607  0.5462
27183SOL    HW184181   8.258   4.430   8.544 -0.8766 -0.5825  0.0872
27183SOL    HW284182   8.288   4.284   8.570 -1.1455 -0.4920  0.9295
27184SOL     OW84183   5.568   2.945   2.827  0.2163  0.2893  0.3472
27184SOL    HW184184   5.545   2.854   2.813  1.2687 -0.0317  0.6305
27184SOL    HW284185   5.663   2.946   2.833  0.6049  1.8846 -3.2290
27185SOL     OW84186   6.641   7.130   1.771  0.1783  0.8382 -0.2449
27185SOL    HW184187   6.735   7.149   1.767  0.3892  0.2350  1.2488
27185SOL    HW284188   6.636   7.039   1.800 -0.8767  0.6963 -0.8061
27186SOL     OW84189   1.287   0.502   0.387 -0.4264  0.1364 -0.8724
27186SOL    HW184190   1.193   0.492   0.398 -0.0296 -2.0984  1.4513
27186SOL    HW284191   1.310   0.439   0.319 -0.2803 -1.8500  0.9094
27187SOL     OW84192   5.783   2.314   2.891  0.2368  0.2707  0.3650
27187SOL    HW184193   5.863   2.310   2.944 -0.2915  2.5836  1.4875
27187SOL    HW284194   5.814   2.311   2.801  1.1918 -3.3099  0.6806
27188SOL     OW84195   0.172   5.672  10.080  0.4322 -0.1671 -0.0629
27188SOL    HW184196   0.084   5.637  10.067 -0.0599  0.5725  1.0717
27188SOL    HW284197   0.162   5.737  10.150  1.7320  0.5299 -0.4769
27189SOL     OW84198   8.042   1.390   3.365  0.2841  0.1891  0.6134
27189SOL    HW184199   8.023   1.311   3.314  0.4396  1.8747 -2.2912
27189SOL    HW284200   7.955   1.425   3.387  0.0685  1.1556 -1.4942
27190SOL     OW84201   1.004   6.561   6.048 -0.1512  0.3175 -0.1862
27190SOL    HW184202   0.934   6.506   6.083 -0.5338  1.0246  0.1768
27190SOL    HW284203   1.045   6.508   5.980  0.1582 -0.8302  0.8537
27191SOL     OW84204   2.988   1.191   1.287  0.0101  0.2146 -0.3407
27191SOL    HW184205   3.079   1.167   1.306 -0.0149  0.4667  0.0971
27191SOL    HW284206   2.952   1.113   1.244 -0.6885 -1.4566  2.9435
27192SOL     OW84207   4.912   5.610   4.908 -0.3044  1.1059 -0.5175
27192SOL    HW184208   4.997   5.644   4.881  0.4577 -0.3213 -0.0551
27192SOL    HW284209   4.916   5.609   5.004 -0.6010  0.5139 -0.5026
27193SOL     OW84210   1.640   0.595   1.380 -0.4091 -0.6424  0.2475
27193SOL    HW184211   1.547   0.595   1.403  0.0651 -0.8900  2.2964
27193SOL    HW284212   1.685   0.617   1.461  1.2780  0.9350 -1.0357
27194SOL     OW84213   2.718   1.602   6.110  0.3397 -0.7482 -0.5491
27194SOL    HW184214   2.664   1.657   6.053  0.8213 -1.5039 -1.7712
27194SOL    HW284215   2.699   1.512   6.082  0.5073 -1.1544  0.5740
27195SOL     OW84216   7.118   3.755   5.457  0.2120  0.1315  0.0743
27195SOL    HW184217   7.132   3.666   5.490  0.8955  0.0295 -0.4714
27195SOL    HW284218   7.081   3.743   5.370  0.8015  0.3738 -0.2111
27196SOL     OW84219   0.117   9.756   5.477  0.0174 -0.3197  0.1067
27196SOL    HW184220   0.092   9.841   5.513  0.4795 -0.9288  2.0284
27196SOL    HW284221   0.051   9.695   5.510  0.2198 -0.8591 -0.4561
27197SOL     OW84222   5.945   6.428   7.588  0.0097 -0.0116  0.4000
27197SOL    HW184223   5.960   6.337   7.560 -0.6189  0.2033 -0.6582
27197SOL    HW284224   5.875   6.421   7.653 -0.2321 -0.2548  0.1179
27198SOL     OW84225   4.960   7.167   1.217 -0.4820  0.0603  0.0837
27198SOL    HW184226   4.982   7.259   1.207  0.8165 -0.3392 -1.1020
27198SOL    HW284227   4.941   7.137   1.128 -1.8479 -0.6173  0.5597
27199SOL     OW84228   8.569   6.359   1.767 -0.2523  0.5432  0.0935
27199SOL    HW184229   8.479   6.392   1.770 -0.6369 -0.5026  0.4552
27199SOL    HW284230   8.589   6.332   1.857 -0.4410 -1.3992 -0.3891
27200SOL     OW84231   8.447   2.068   9.602 -0.2288  0.6769  0.2064
27200SOL    HW184232   8.476   2.045   9.691 -1.9919  0.4474  0.7703
27200SOL    HW284233   8.515   2.033   9.545  1.2958  1.4153  1.4874
27201SOL     OW84234   1.792   5.476   5.911  0.2199 -0.0831  0.2254
27201SOL    HW184235   1.710   5.484   5.959  0.0362  0.3433 -0.1470
27201SOL    HW284236   1.811   5.382   5.911  0.4484 -0.0488  1.4758
27202SOL     OW84237   3.877  10.088   8.614 -0.9566 -0.1085  0.1535
27202SOL    HW184238   3.958  10.128   8.644 -0.5271  1.2533 -2.5081
27202SOL    HW284239   3.906  10.014   8.560 -1.5799 -0.7087  0.6157
27203SOL     OW84240  10.015   1.970   5.636  0.2443 -0.8142  0.5657
27203SOL    HW184241   9.923   1.987   5.658  0.7649  1.1472  1.4995
27203SOL    HW284242  10.013   1.935   5.548 -1.3293  0.9196 -0.1550
27204SOL     OW84243   7.417   6.291   1.091 -0.6106  0.1096  1.3023
27204SOL    HW184244   7.470   6.370   1.099  1.0915 -1.0103  1.8722
27204SOL    HW284245   7.445   6.236   1.165 -1.1659 -1.3216  0.4975
27205SOL     OW84246   7.530   1.732   2.400 -0.3231 -0.4586  0.4317
27205SOL    HW184247   7.519   1.678   2.321 -1.7995  1.7837 -1.0169
27205SOL    HW284248   7.453   1.713   2.453 -0.4095 -0.4201  0.3215
27206SOL     OW84249   4.707   7.915   7.910  0.0003 -0.4313  0.6780
27206SOL    HW184250   4.789   7.894   7.956  0.8077 -1.7155 -1.2048
27206SOL    HW284251   4.734   7.925   7.818 -1.5628  1.8199  0.3957
27207SOL     OW84252   3.687   2.705   5.855  0.2198 -0.0209 -0.4087
27207SOL    HW184253   3.629   2.768   5.812  0.1288  0.5423  0.5009
27207SOL    HW284254   3.734   2.758   5.919 -0.7557 -1.1088  1.2575
27208SOL     OW84255   0.606   5.929   6.740  0.0593 -0.2003 -0.2825
27208SOL    HW184256   0.696   5.940   6.769  0.9549 -2.5192 -1.8427
27208SOL    HW284257   0.594   5.834   6.736 -1.7948  0.0365 -1.9376
27209SOL     OW84258   1.130   9.112   7.302  0.0481  0.1830 -0.1656
27209SOL    HW184259   1.128   9.207   7.314  1.6089  0.1825  0.2600
27209SOL    HW284260   1.155   9.099   7.211 -0.1329  0.1787 -0.2149
27210SOL     OW84261   0.704   7.299   4.790  0.0508  0.2578  0.2154
27210SOL    HW184262   0.788   7.322   4.749 -0.4948 -0.6670 -1.4963
27210SOL    HW284263   0.646   7.372   4.769  0.0266  0.2217  0.1582
27211SOL     OW84264   2.913   0.438   5.594 -0.0091 -0.2704  0.3442
27211SOL    HW184265   2.844   0.503   5.605 -0.7862 -1.0123 -0.0484
27211SOL    HW284266   2.930   0.435   5.500  0.7219  0.0638  0.4580
27212SOL     OW84267   7.285   9.461   4.302 -0.0783  0.0100  0.2295
27212SOL    HW184268   7.202   9.451   4.256  1.4134  0.2015 -2.7928
27212SOL    HW284269   7.336   9.384   4.275  1.3701  0.8704  0.4115
27213SOL     OW84270   7.221   5.420   5.698 -0.1603  0.0978 -0.0301
27213SOL    HW184271   7.194   5.408   5.606 -1.2056  0.0946  0.2594
27213SOL    HW284272   7.268   5.504   5.698  1.4104 -0.7393 -0.8700
27214SOL     OW84273   6.512   0.010   8.492  0.0009  0.1547  0.0755
27214SOL    HW184274   6.506   0.019   8.587  2.2922 -0.0479  0.3078
27214SOL    HW284275   6.521   0.100   8.461 -0.3267  0.1917  0.0832
27215SOL     OW84276   3.749   8.444   1.821  0.1734 -0.6049 -0.1535
27215SOL    HW184277   3.698   8.488   1.890  0.5877  0.4585 -0.5117
27215SOL    HW284278   3.814   8.393   1.869  0.2911 -0.0798  0.2509
27216SOL     OW84279   2.550   9.168   9.513  0.2353 -0.7302 -0.7946
27216SOL    HW184280   2.522   9.076   9.508 -1.1334 -0.3692 -0.2235
27216SOL    HW284281   2.509   9.201   9.593 -0.7739  0.8529 -1.8969
27217SOL     OW84282   1.394   8.857   8.953  0.0655 -0.2780  0.6130
27217SOL    HW184283   1.302   8.871   8.933  0.2376 -1.1898 -0.9616
27217SOL    HW284284   1.422   8.940   8.994 -1.5405 -0.1863  1.6234
27218SOL     OW84285   6.011   2.214   6.800  0.3335  0.4861 -0.3901
27218SOL    HW184286   6.022   2.179   6.888  1.5915  0.9089 -0.3485
27218SOL    HW284287   5.955   2.291   6.811 -0.4159 -0.0845 -0.1310
27219SOL     OW84288   8.215   2.191   9.829 -0.1724 -0.4428  0.2810
27219SOL    HW184289   8.166   2.176   9.747 -0.0151  1.1471 -0.1514
27219SOL    HW284290   8.234   2.104   9.862 -0.0596 -1.1456 -1.5002
27220SOL     OW84291   3.458   5.191   1.914  0.5644  0.4156 -0.1508
27220SOL    HW184292   3.463   5.193   1.818 -1.5792  1.4026 -0.2921
27220SOL    HW284293   3.493   5.276   1.942  0.4445  0.4518 -0.1101
27221SOL     OW84294   1.553   9.948   9.316  0.2136  0.0367 -0.4260
27221SOL    HW184295   1.576   9.987   9.401  0.0689 -1.0601  0.1296
27221SOL    HW284296   1.636   9.945   9.269  0.3113  0.5855 -0.3045
27222SOL     OW84297   6.867   5.931   9.084  0.2139  0.3622 -0.4159
27222SOL    HW184298   6.945   5.889   9.049 -0.8607  0.0079 -2.5788
27222SOL    HW284299   6.807   5.859   9.102  0.0203  0.6899  0.2957
27223SOL     OW84300   8.303   7.557   5.074 -0.3911 -0.3561 -0.7125
27223SOL    HW184301   8.307   7.639   5.124 -0.9043  0.2624 -1.6475
27223SOL    HW284302   8.292   7.489   5.140  3.2794 -0.1007  0.4049
27224SOL     OW84303   8.031   6.467   1.488  0.0327  0.0781  0.2430
27224SOL    HW184304   8.117   6.426   1.482  0.6180  0.9481  1.9817
27224SOL    HW284305   7.970   6.394   1.495  0.5012 -0.5759 -1.7752
27225SOL     OW84306   4.516   8.955   2.686 -0.2785  0.0592 -0.1865
27225SOL    HW184307   4.525   9.008   2.607 -0.3018  1.4150  0.7044
27225SOL    HW284308   4.602   8.959   2.727 -0.1996 -0.8304 -0.2397
27226SOL     OW84309   0.356   8.118   1.143  0.0052  0.1763  0.1971
27226SOL    HW184310   0.450   8.096   1.145 -0.3340 -1.5556 -0.8977
27226SOL    HW284311   0.329   8.100   1.053 -1.6618 -0.6730  0.8241
27227SOL     OW84312   0.484   3.672   1.542  0.5129  0.2478 -0.2742
27227SOL    HW184313   0.542   3.654   1.468  1.6882  0.9218  0.4555
27227SOL    HW284314   0.396   3.670   1.504  0.9700 -0.9563 -1.3751
27228SOL     OW84315  10.007   7.211   0.657  0.4397 -0.1673 -0.8763
27228SOL    HW184316  10.054   7.294   0.646 -2.2163  1.4280 -1.1764
27228SOL    HW284317  10.074   7.144   0.643  2.7816  1.8864 -0.3305
27229SOL     OW84318   6.060   2.367   0.915 -0.3466  0.6375  0.0174
27229SOL    HW184319   6.001   2.369   0.840 -0.5263  1.3332  0.1692
27229SOL    HW284320   6.112   2.287   0.903 -0.1591  0.8963 -1.0077
27230SOL     OW84321   2.736   4.424   3.283  0.1791 -1.0741  0.0945
27230SOL    HW184322   2.689   4.461   3.209  1.7099  0.8037 -0.0130
27230SOL    HW284323   2.794   4.359   3.244  0.2793 -0.7896 -0.2339
27231SOL     OW84324   0.535   5.174   4.574  0.0016  0.0632  0.1941
27231SOL    HW184325   0.593   5.098   4.570  1.5518  1.2374 -0.9599
27231SOL    HW284326   0.521   5.197   4.482 -0.7603  0.9353  0.5212
27232SOL     OW84327   5.489   3.920   0.211  0.0744  0.1617 -0.6774
27232SOL    HW184328   5.466   3.842   0.262 -0.4796  0.3744 -0.5889
27232SOL    HW284329   5.573   3.949   0.247  0.0511 -0.1188 -0.3925
27233SOL     OW84330   9.461   7.805   3.542  0.2400 -0.6222  0.2854
27233SOL    HW184331   9.406   7.769   3.472  0.2711  0.2369 -0.1930
27233SOL    HW284332   9.403   7.864   3.590  0.2598 -1.0921  0.8961
27234SOL     OW84333   1.815   1.789   1.091  0.1219 -0.0537 -0.0164
27234SOL    HW184334   1.720   1.791   1.100  0.3426  0.6982  3.5999
27234SOL    HW284335   1.837   1.869   1.044 -1.0226 -0.9656 -2.2586
27235SOL     OW84336   0.088   7.387   6.959 -0.2952  0.1375  0.2213
27235SOL    HW184337   0.121   7.417   6.874 -0.4186  0.9697  0.4561
27235SOL    HW284338   0.148   7.317   6.985 -0.0674  0.0999 -0.4029
27236SOL     OW84339   6.478   3.393   5.112  0.1264  0.3321 -0.8913
27236SOL    HW184340   6.430   3.313   5.090 -0.0805 -0.3104  1.6335
27236SOL    HW284341   6.567   3.362   5.131  0.1256  0.7421 -0.2087
27237SOL     OW84342   6.216   6.269   6.953  0.4722  1.0371  0.5350
27237SOL    HW184343   6.234   6.182   6.919 -1.1117  0.2766  1.5179
27237SOL    HW284344   6.230   6.328   6.878  0.8840 -0.1310 -0.3289
27238SOL     OW84345   8.267   3.204  10.348  0.1543 -0.0178 -0.0505
27238SOL    HW184346   8.185   3.242  10.378 -0.3611  3.2947 -4.4893
27238SOL    HW284347   8.249   3.111  10.338 -2.0538  0.1504  1.7239
27239SOL     OW84348  10.338   1.770   3.951 -0.3292  0.3075 -0.2240
27239SOL    HW184349  10.397   1.703   3.984 -1.1447  0.1032  0.8543
27239SOL    HW284350  10.283   1.725   3.887 -1.2200 -0.2051  0.8725
27240SOL     OW84351   4.624   0.727   0.603 -0.1134  0.3423  0.3075
27240SOL    HW184352   4.566   0.801   0.589 -1.9230 -0.3274  3.2970
27240SOL    HW284353   4.592   0.660   0.542 -2.4621  0.0739  1.6992
27241SOL     OW84354   7.932   0.172  10.147  0.1024  0.1139  0.1746
27241SOL    HW184355   7.987   0.211  10.078  0.7039 -2.3228 -0.8273
27241SOL    HW284356   7.868   0.240  10.168  1.6384  1.9561 -0.7706
27242SOL     OW84357   0.032   4.944   2.302 -0.4325 -0.7212 -0.3525
27242SOL    HW184358   0.069   4.870   2.253 -0.6705 -0.8957 -0.2672
27242SOL    HW284359   0.094   5.016   2.286 -0.0658 -1.0077 -0.2231
27243SOL     OW84360   7.092   3.265   2.986 -0.2829 -0.2899 -0.4954
27243SOL    HW184361   7.118   3.221   3.067  0.5098 -1.3335 -1.2841
27243SOL    HW284362   7.043   3.198   2.937 -2.8252  1.0336  0.0893
27244SOL     OW84363  10.296  10.157   7.817  0.2153 -0.3310 -0.2887
27244SOL    HW184364  10.212  10.113   7.803  0.1701 -0.2191 -0.3748
27244SOL    HW284365  10.336  10.110   7.890  0.5497 -1.0572 -0.9362
27245SOL     OW84366   2.274   3.789   4.413 -0.2015  0.2439 -0.1483
27245SOL    HW184367   2.234   3.745   4.488 -1.8774 -0.5721 -1.4593
27245SOL    HW284368   2.290   3.879   4.443 -1.7643  0.2130  0.8758
27246SOL     OW84369   3.863   8.454   8.363 -0.4961  0.3673 -0.3290
27246SOL    HW184370   3.842   8.507   8.286 -0.4282 -0.3726 -0.8751
27246SOL    HW284371   3.943   8.492   8.398 -0.0750  0.2233 -1.1074
27247SOL     OW84372   9.146   8.236   7.231  0.2418  0.4823 -0.3592
27247SOL    HW184373   9.108   8.168   7.286 -0.2661  0.8586 -0.2339
27247SOL    HW284374   9.098   8.231   7.149 -0.3578  1.2151 -0.0642
27248SOL     OW84375   7.680   6.177   0.850 -0.7644 -0.3259 -0.0474
27248SOL    HW184376   7.767   6.136   0.847 -0.3616  0.5475 -1.1825
27248SOL    HW284377   7.647   6.168   0.761 -1.2050  0.6715  0.0073
27249SOL     OW84378   3.291   3.012   7.392  0.3458 -0.8859 -0.6262
27249SOL    HW184379   3.285   2.916   7.387  0.7330 -0.9060 -0.7868
27249SOL    HW284380   3.374   3.032   7.349 -0.5206 -0.3354 -2.1050
27250SOL     OW84381   1.135   8.561   7.410 -0.7513 -0.0997  0.0266
27250SOL    HW184382   1.082   8.549   7.489 -0.3789  0.2818  0.3357
27250SOL    HW284383   1.141   8.656   7.400 -1.8702 -0.1255 -1.1887
27251SOL     OW84384   7.705   8.784   9.647 -0.1310  0.1938  0.1595
27251SOL    HW184385   7.784   8.747   9.687  0.6790  0.5981 -1.0061
27251SOL    HW284386   7.639   8.715   9.654  0.4147 -0.2720  0.8528
27252SOL     OW84387   2.666   5.119   4.434  0.7691 -0.9334  0.1694
27252SOL    HW184388   2.728   5.191   4.417  0.7278 -0.9032  0.1479
27252SOL    HW284389   2.607   5.153   4.501  1.0717 -1.1333  0.5417
27253SOL     OW84390   8.801   8.194   3.660  0.3706 -0.1581  0.7508
27253SOL    HW184391   8.762   8.245   3.731 -1.6698  0.0704 -0.4512
27253SOL    HW284392   8.864   8.254   3.619  0.2294  0.3316  1.2382
27254SOL     OW84393  10.227   0.447   2.002 -0.1131  0.4248 -0.1497
27254SOL    HW184394  10.153   0.506   2.013 -0.4112  0.0726 -0.2322
27254SOL    HW284395  10.203   0.393   1.926  0.4240  0.6039 -0.4519
27255SOL     OW84396   0.799   9.247   5.341  0.3951 -0.2641 -0.3555
27255SOL    HW184397   0.851   9.288   5.271  1.7638 -1.9937 -0.4298
27255SOL    HW284398   0.829   9.290   5.421 -1.1836  1.7348 -0.7340
27256SOL     OW84399   7.052   6.163   7.922  0.7534 -0.7175 -0.2794
27256SOL    HW184400   6.963   6.178   7.892  0.5849  2.4401  1.3512
27256SOL    HW284401   7.057   6.069   7.939 -2.3829 -0.9211 -0.0331
27257SOL     OW84402   0.489   2.431   3.187  0.1678 -0.4039 -0.2885
27257SOL    HW184403   0.408   2.463   3.147  0.4791  0.4872 -0.2281
27257SOL    HW284404   0.514   2.500   3.248  0.8706 -0.7647 -0.1601
27258SOL     OW84405   9.856   5.328   7.420  0.8121 -0.7213  0.0086
27258SOL    HW184406   9.936   5.380   7.417  0.2594  0.1938  0.6245
27258SOL    HW284407   9.866   5.272   7.497  1.0349 -0.9152 -0.1592
27259SOL     OW84408   7.047   8.018   2.334  0.3315  0.1730 -0.2340
27259SOL    HW184409   7.097   8.054   2.407  1.9370 -1.9934 -0.1776
27259SOL    HW284410   6.956   8.021   2.363  0.9487 -0.8519  2.0103
27260SOL     OW84411   6.255   3.872   6.455 -0.1992  0.2016 -0.8425
27260SOL    HW184412   6.272   3.801   6.394 -0.5296  0.4252 -1.1956
27260SOL    HW284413   6.170   3.907   6.429  0.3548  1.2997 -1.2213
27261SOL     OW84414   6.480   3.631   5.770  0.1551  0.3340 -0.4528
27261SOL    HW184415   6.466   3.630   5.865 -3.5359  0.9925 -0.8271
27261SOL    HW284416   6.487   3.539   5.745 -0.3943  0.0698  0.3287
27262SOL     OW84417   1.268   2.341   9.885 -0.3099 -0.5405  0.1483
27262SOL    HW184418   1.270   2.297   9.800  0.2243  1.7369 -1.1143
27262SOL    HW284419   1.360   2.350   9.909 -0.4543 -0.9830  0.8920
27263SOL     OW84420   5.376   3.135   6.607  0.3479 -0.2708  0.4962
27263SOL    HW184421   5.461   3.148   6.565 -0.6987  1.3143 -1.3326
27263SOL    HW284422   5.366   3.040   6.612  2.4950 -0.5033  1.4376
27264SOL     OW84423   7.569   0.621   7.182 -0.2339 -0.0150 -0.0525
27264SOL    HW184424   7.481   0.604   7.148 -0.4897  2.5911 -0.9549
27264SOL    HW284425   7.554   0.656   7.270  0.2822 -4.0331  1.8755
27265SOL     OW84426   5.807   1.948   7.751 -0.4136 -0.1008 -0.1551
27265SOL    HW184427   5.799   1.881   7.683 -1.7843  2.2501 -2.5181
27265SOL    HW284428   5.730   1.937   7.806 -0.6801 -0.4352 -0.5888
27266SOL     OW84429   3.568   6.433   5.135  0.4934  0.1827 -0.1026
27266SOL    HW184430   3.558   6.491   5.059 -0.1454 -0.4747 -0.5330
27266SOL    HW284431   3.485   6.386   5.140  0.5388  0.1803  0.9848
27267SOL     OW84432   3.871   8.752   9.234 -0.3612  0.1684  0.0546
27267SOL    HW184433   3.894   8.681   9.175 -1.5476  0.6206 -1.0060
27267SOL    HW284434   3.779   8.735   9.258 -0.6288  1.2499 -0.1222
27268SOL     OW84435   1.219   1.358   8.647 -0.2037 -0.8936  0.5544
27268SOL    HW184436   1.244   1.271   8.615 -0.3391 -0.5507 -0.5223
27268SOL    HW284437   1.240   1.417   8.574  1.1448  0.1781  1.7401
27269SOL     OW84438   6.850   7.064   5.442 -0.1958  0.7252 -0.0390
27269SOL    HW184439   6.794   7.037   5.515 -0.5127  1.0819 -0.1411
27269SOL    HW284440   6.802   7.137   5.401  0.4470  1.1865  0.0088
27270SOL     OW84441   1.105   9.716   2.225  0.2690 -0.2631 -0.4691
27270SOL    HW184442   1.037   9.659   2.188  0.4179 -0.7158 -0.0426
27270SOL    HW284443   1.081   9.803   2.194 -1.1754 -0.2344  0.6140
27271SOL     OW84444   9.405   0.844   3.936 -0.3004 -0.0767 -0.3088
27271SOL    HW184445   9.494   0.808   3.935  0.3618  1.4581  0.4287
27271SOL    HW284446   9.414   0.930   3.978 -2.2324 -0.1507  0.3682
27272SOL     OW84447   9.744   7.518   4.048  0.1067  0.3508  0.5357
27272SOL    HW184448   9.815   7.531   3.985  0.1114  0.6719  0.6046
27272SOL    HW284449   9.760   7.430   4.084  0.6106  0.5120  0.7191
27273SOL     OW84450   5.550   5.271   7.852  0.6385 -0.2020 -0.5203
27273SOL    HW184451   5.611   5.335   7.815  1.4438 -0.5130  0.2125
27273SOL    HW284452   5.572   5.189   7.808  1.5029 -0.5421  0.4945
27274SOL     OW84453   2.545  10.334   1.150  0.0148  0.1520 -0.3120
27274SOL    HW184454   2.565  10.361   1.240  2.2003  0.1221 -0.7330
27274SOL    HW284455   2.573  10.242   1.147 -0.0613  0.1514 -1.0242
27275SOL     OW84456   1.661   3.105   8.651 -0.7564  0.4565  0.0178
27275SOL    HW184457   1.613   3.164   8.593  0.3918  0.4515 -0.9714
27275SOL    HW284458   1.723   3.162   8.697  0.8386  0.0068 -1.4425
27276SOL     OW84459   1.832   7.043   3.158 -0.3104  0.5912 -0.9092
27276SOL    HW184460   1.737   7.050   3.153 -0.3801  0.3005 -0.1274
27276SOL    HW284461   1.856   6.989   3.083 -1.0503 -1.7161  0.4006
27277SOL     OW84462   7.451   6.870   5.527  0.3341 -0.3906  0.2381
27277SOL    HW184463   7.431   6.964   5.534 -0.3519 -0.4840 -0.3821
27277SOL    HW284464   7.506   6.864   5.449 -0.4141 -0.6087 -0.2908
27278SOL     OW84465   8.919   8.895   0.668 -0.0906  0.1435 -0.4094
27278SOL    HW184466   8.856   8.896   0.596 -2.2636  1.4850  1.3999
27278SOL    HW284467   8.990   8.952   0.638 -0.6817  0.2557 -1.6800
27279SOL     OW84468   4.740   7.339   0.610 -0.3466 -0.2534  0.0979
27279SOL    HW184469   4.718   7.256   0.653 -1.7719  0.0730  0.0638
27279SOL    HW284470   4.704   7.406   0.668  0.8138  0.3643  0.1409
27280SOL     OW84471   9.968   6.332   0.534 -0.0006  0.1709 -0.1034
27280SOL    HW184472   9.873   6.329   0.538 -0.1164  0.6832 -1.6621
27280SOL    HW284473   9.996   6.241   0.546 -0.6507  0.0569  0.6462
27281SOL     OW84474   1.313  10.071   4.122  0.3263  0.2592 -0.0788
27281SOL    HW184475   1.309  10.146   4.181 -0.5357 -1.6105  2.4671
27281SOL    HW284476   1.221  10.046   4.109  0.6010 -0.5366 -0.5584
27282SOL     OW84477   2.035   3.833   3.488 -0.3603 -0.3847  0.2552
27282SOL    HW184478   2.088   3.783   3.425 -0.4633 -0.3327  0.1276
27282SOL    HW284479   2.100   3.878   3.542 -0.2345  2.0190 -1.7353
27283SOL     OW84480  10.218   2.565   7.180  0.0469  0.4984  0.2701
27283SOL    HW184481  10.213   2.470   7.167 -3.1248  0.7452 -1.6422
27283SOL    HW284482  10.296   2.579   7.233  0.0131 -3.2650  1.5951
27284SOL     OW84483   1.480   4.964   8.450  0.2194 -0.3625  0.0785
27284SOL    HW184484   1.448   5.024   8.383  0.6277  1.6510  1.5847
27284SOL    HW284485   1.409   4.957   8.513 -0.3310 -2.5869 -0.6983
27285SOL     OW84486   7.601   4.276  10.310 -0.1453 -0.0659  0.0727
27285SOL    HW184487   7.628   4.231  10.390  3.1918  0.1183 -0.8047
27285SOL    HW284488   7.570   4.361  10.339  1.9109  0.3566  1.1432
27286SOL     OW84489   0.912   5.059   8.760 -0.2660  0.2875 -0.1483
27286SOL    HW184490   0.926   5.153   8.770  0.9506  0.1135  0.0637
27286SOL    HW284491   0.926   5.023   8.847  0.1437 -0.1756 -0.3963
27287SOL     OW84492   3.895   1.364   4.521  0.7159  0.3957 -0.0857
27287SOL    HW184493   3.893   1.441   4.578 -0.5708  0.5310 -0.2715
27287SOL    HW284494   3.983   1.363   4.484  0.9851  1.3452  0.4967
27288SOL     OW84495   9.590   8.277   6.055 -0.1225  0.4549 -0.6244
27288SOL    HW184496   9.535   8.206   6.024  1.1849 -0.7591 -0.2750
27288SOL    HW284497   9.534   8.355   6.050 -1.6564 -0.6163 -0.8063
27289SOL     OW84498   4.151   2.810   4.385 -0.5205  0.4255 -0.0769
27289SOL    HW184499   4.140   2.751   4.460 -1.7408 -0.5439 -0.9827
27289SOL    HW284500   4.062   2.827   4.354  0.0155 -0.5105 -2.2868
27290SOL     OW84501   4.969   8.034   0.480 -0.3213  0.0159  0.0860
27290SOL    HW184502   4.969   8.101   0.411 -0.9722 -0.4054 -0.3357
27290SOL    HW284503   4.975   7.951   0.432  0.0258 -0.2490  0.5808
27291SOL     OW84504   8.663   2.201   8.473  0.0173 -0.4838  0.3256
27291SOL    HW184505   8.691   2.259   8.544  1.4739 -0.8772  0.1033
27291SOL    HW284506   8.664   2.257   8.395 -2.2393  0.1311  0.6449
27292SOL     OW84507   7.546   2.531   8.016 -0.5099 -0.3494  0.4835
27292SOL    HW184508   7.461   2.511   7.976 -0.7482  0.2305  0.6889
27292SOL    HW284509   7.554   2.466   8.086 -1.1027  0.0110  0.8999
27293SOL     OW84510   9.790   5.729   0.423 -0.4275  0.3232  0.7695
27293SOL    HW184511   9.797   5.812   0.375 -0.9119 -0.6672 -1.1498
27293SOL    HW284512   9.822   5.663   0.361  0.1051 -0.9233  2.3041
27294SOL     OW84513   8.058   9.699   8.565  0.1137 -0.3998  0.3017
27294SOL    HW184514   8.025   9.756   8.635  1.3830  0.4873  0.2140
27294SOL    HW284515   8.069   9.614   8.607 -0.5540 -0.2670  0.7784
27295SOL     OW84516   7.178   1.317   4.724 -0.1008 -0.0463 -0.5368
27295SOL    HW184517   7.135   1.257   4.785  2.2783 -0.6442  0.6830
27295SOL    HW284518   7.174   1.402   4.767  1.6611 -0.4846  0.6195
27296SOL     OW84519   8.911   9.216   1.907  0.1576 -0.4662 -0.2024
27296SOL    HW184520   8.979   9.163   1.865  0.3805 -0.4105  0.0878
27296SOL    HW284521   8.837   9.214   1.845  0.6868  0.0847 -0.8757
27297SOL     OW84522   4.274   4.784   7.315  0.5126  0.6371 -0.5164
27297SOL    HW184523   4.230   4.753   7.394  0.9145 -1.6357 -1.1102
27297SOL    HW284524   4.269   4.879   7.320  2.9667  0.7623  3.6768
27298SOL     OW84525   7.337   6.133   2.200  0.3426 -0.4047 -0.3858
27298SOL    HW184526   7.262   6.080   2.227 -1.0304  0.9526 -1.3569
27298SOL    HW284527   7.325   6.146   2.106  0.3986  1.9095 -0.1225
27299SOL     OW84528   2.308   6.320   3.299 -0.0828  0.4136  0.0968
27299SOL    HW184529   2.376   6.338   3.234 -0.6786 -2.0046 -1.3056
27299SOL    HW284530   2.312   6.225   3.314 -1.8097  0.4951  1.5149
27300SOL     OW84531   7.500   9.677   7.383 -0.0954 -0.6463 -0.2371
27300SOL    HW184532   7.448   9.598   7.368 -0.6128 -0.3901  0.1565
27300SOL    HW284533   7.442   9.734   7.435  0.6965 -0.4833  0.4858
27301SOL     OW84534   5.051   0.413   9.446  0.0340  0.1870  0.4546
27301SOL    HW184535   4.956   0.422   9.436  0.2513  0.2930 -2.3183
27301SOL    HW284536   5.087   0.460   9.372  2.2611 -0.3865  1.1006
27302SOL     OW84537   1.888   0.137   7.941  0.6134 -0.0605 -0.1253
27302SOL    HW184538   1.821   0.088   7.892 -1.7298  1.3593  1.4953
27302SOL    HW284539   1.914   0.077   8.011  0.0372 -0.1545  0.0190
27303SOL     OW84540   2.608   0.255   9.381  0.1733  0.3238  0.4625
27303SOL    HW184541   2.691   0.232   9.422  0.7075 -0.5975 -1.0404
27303SOL    HW284542   2.629   0.264   9.288 -1.1604  1.4163  0.2324
27304SOL     OW84543   0.791   4.744   6.966  0.8281 -0.0008 -0.0479
27304SOL    HW184544   0.826   4.748   7.055 -0.3724  0.7846  0.4137
27304SOL    HW284545   0.703   4.779   6.974  0.2691 -1.0429 -1.3432
27305SOL     OW84546   6.357   4.931   5.075  0.2775 -0.1960  0.1299
27305SOL    HW184547   6.408   4.869   5.126 -3.1305 -1.3058  2.5791
27305SOL    HW284548   6.384   5.018   5.106  1.8709 -0.6353  0.0117
27306SOL     OW84549   0.749   0.579   7.756 -0.1546  0.5649 -0.1775
27306SOL    HW184550   0.653   0.584   7.761 -0.4037 -0.5488 -2.6276
27306SOL    HW284551   0.779   0.661   7.796 -2.1808  1.5383 -0.5273
27307SOL     OW84552   9.905   9.747   7.421 -0.7485  0.8145  0.1142
27307SOL    HW184553   9.953   9.796   7.355 -0.3752  2.4127  1.5019
27307SOL    HW284554   9.971   9.725   7.487 -1.1569 -0.5124  0.1048
27308SOL     OW84555   6.109   2.515   7.869 -0.0177  0.0492  0.2364
27308SOL    HW184556   6.124   2.484   7.958  0.6523  0.3660  0.2353
27308SOL    HW284557   6.176   2.472   7.816 -1.4207 -1.4477 -0.4224
27309SOL     OW84558   9.560   7.573  10.176  0.3046 -0.0576 -0.3322
27309SOL    HW184559   9.480   7.528  10.201  0.4765  0.1437  0.6224
27309SOL    HW284560   9.531   7.662  10.153  0.3156  0.2052  0.6231
27310SOL     OW84561   0.715   6.140   5.469 -0.0755 -0.2956  0.0414
27310SOL    HW184562   0.788   6.079   5.460  0.1017  0.1363 -1.8031
27310SOL    HW284563   0.691   6.162   5.379 -0.3092  2.1743  0.6470
27311SOL     OW84564   7.559   3.701   2.786  0.2439  0.6269 -0.3642
27311SOL    HW184565   7.623   3.687   2.716 -1.5826 -1.0187 -1.8426
27311SOL    HW284566   7.551   3.615   2.828 -2.2414  0.2586 -1.4251
27312SOL     OW84567   2.269   1.609   0.586  0.2133  0.0309  0.1824
27312SOL    HW184568   2.212   1.535   0.607  0.7796 -0.0007  1.7625
27312SOL    HW284569   2.282   1.654   0.669  1.5978  0.6648 -0.3349
27313SOL     OW84570   2.992   7.580   7.043 -0.3479 -0.1595 -0.6914
27313SOL    HW184571   3.013   7.660   6.996 -0.9471  0.2440 -0.2783
27313SOL    HW284572   2.944   7.527   6.979 -0.1406 -0.0984 -0.8977
27314SOL     OW84573  10.200   0.556  10.213  0.1341  0.0558  0.2901
27314SOL    HW184574  10.208   0.463  10.192 -2.4178 -0.1874 -0.0208
27314SOL    HW284575  10.111   0.578  10.185  1.1988  3.0028 -1.1708
27315SOL     OW84576   3.840   3.646   9.171 -0.3992 -0.2918  0.2267
27315SOL    HW184577   3.897   3.621   9.099 -0.6228  1.0912 -0.4563
27315SOL    HW284578   3.891   3.625   9.250  0.8329  0.4103 -0.3603
27316SOL     OW84579   2.284  10.115   0.943 -0.7114  0.6456  0.2170
27316SOL    HW184580   2.263  10.188   0.885 -1.4721 -0.3907 -0.8728
27316SOL    HW284581   2.245  10.138   1.027 -3.7734  0.1370 -0.9491
27317SOL     OW84582   6.587   6.751   2.459 -0.1954 -0.0097 -0.3364
27317SOL    HW184583   6.498   6.740   2.492  0.2574 -0.1034  0.8901
27317SOL    HW284584   6.599   6.677   2.398 -0.5544 -0.6783  0.3915
27318SOL     OW84585   7.182   7.642   3.437 -0.0683 -0.6997  0.0375
27318SOL    HW184586   7.236   7.705   3.485  1.0748 -1.5462 -0.1043
27318SOL    HW284587   7.170   7.682   3.351  0.0580 -0.3604  0.1743
27319SOL     OW84588   2.579   7.396   0.605  0.9528 -0.5875  0.0854
27319SOL    HW184589   2.506   7.356   0.653  2.1463 -2.2553  0.5890
27319SOL    HW284590   2.637   7.323   0.585  1.3546  0.3438 -2.4026
27320SOL     OW84591   9.338   1.883   5.596  0.3266 -0.3847  0.1337
27320SOL    HW184592   9.279   1.884   5.521 -1.1221 -0.5908  1.2319
27320SOL    HW284593   9.297   1.939   5.662 -0.9644 -3.7803  2.5431
27321SOL     OW84594   5.202   4.183  10.156 -0.1370 -0.2944 -0.5877
27321SOL    HW184595   5.132   4.149  10.211  1.0325  0.0242  1.1562
27321SOL    HW284596   5.174   4.163  10.066 -0.5394 -3.9626  0.1871
27322SOL     OW84597   9.196   5.274   1.914  0.1066  0.3144 -0.2512
27322SOL    HW184598   9.176   5.348   1.971  0.3397 -0.7376  1.2767
27322SOL    HW284599   9.274   5.301   1.865 -0.1150  1.2565 -0.0939
27323SOL     OW84600   3.924   9.793   5.159  0.0197 -0.2044  0.4832
27323SOL    HW184601   3.966   9.879   5.160 -0.7146  0.1572  1.1433
27323SOL    HW284602   3.921   9.769   5.066 -0.5017  0.8522  0.2101
27324SOL     OW84603   8.446   2.386   4.388 -0.6547 -0.4721  0.1464
27324SOL    HW184604   8.423   2.452   4.323 -1.0798  0.0214  0.7883
27324SOL    HW284605   8.389   2.312   4.368 -0.8500 -0.2862  0.0095
27325SOL     OW84606   4.351   7.752   9.514  0.3125  0.4120  0.1294
27325SOL    HW184607   4.437   7.716   9.535 -0.4265 -1.4326  0.2415
27325SOL    HW284608   4.318   7.785   9.598  1.6099  2.8899 -0.2473
27326SOL     OW84609   2.210   6.207   7.075 -0.2299  0.5031 -0.7712
27326SOL    HW184610   2.296   6.241   7.103 -0.6609  0.7295  0.3022
27326SOL    HW284611   2.230   6.152   6.999  0.5865  2.5976 -2.1715
27327SOL     OW84612   9.499   8.801   0.256 -0.0920 -0.1967  0.0719
27327SOL    HW184613   9.425   8.798   0.316  0.3070  2.6105  0.8423
27327SOL    HW284614   9.468   8.756   0.177 -1.9989 -0.5242  0.9462
27328SOL     OW84615   3.244   1.018   3.987 -1.0958  0.0777 -1.0745
27328SOL    HW184616   3.224   1.026   3.894 -1.3898  1.6120 -0.9137
27328SOL    HW284617   3.258   1.109   4.016 -1.7560 -0.3061  0.5395
27329SOL     OW84618   2.911   7.108   2.472 -0.5577  0.1945 -0.2123
27329SOL    HW184619   2.838   7.132   2.416  0.3152 -0.3098 -1.6122
27329SOL    HW284620   2.972   7.182   2.464 -0.1606 -0.1517 -0.4319
27330SOL     OW84621   5.296   8.259   6.960  0.3835 -0.3441 -0.1311
27330SOL    HW184622   5.352   8.258   6.883  1.3778 -0.0437  0.5766
27330SOL    HW284623   5.217   8.306   6.932  0.6079 -0.5008 -1.0397
27331SOL     OW84624   2.297   2.965   1.283  0.1342  1.1374  0.2262
27331SOL    HW184625   2.253   2.887   1.249  0.6437  0.2395  1.5381
27331SOL    HW284626   2.352   2.994   1.210  0.0353  0.1905 -0.2499
27332SOL     OW84627   6.332   8.495   2.576  0.2096  0.3512  0.1659
27332SOL    HW184628   6.263   8.481   2.512  0.3188  0.8593 -0.0731
27332SOL    HW284629   6.286   8.516   2.657  0.0684  1.9924 -0.3029
27333SOL     OW84630   8.802   6.123   1.024  0.3445  0.0688  0.4523
27333SOL    HW184631   8.836   6.135   1.113 -1.1319  1.6671  0.8509
27333SOL    HW284632   8.879   6.095   0.974  1.5362  0.4633  1.9496
27334SOL     OW84633   1.525   3.671   8.359  0.0637 -0.5671 -0.0694
27334SOL    HW184634   1.457   3.737   8.375  1.5314  1.0708 -0.3295
27334SOL    HW284635   1.507   3.602   8.422 -1.2355  0.3002  0.5438
27335SOL     OW84636   2.426   0.174   4.608  0.3056  0.2824 -0.1937
27335SOL    HW184637   2.346   0.122   4.603 -0.8401  2.0137 -0.4541
27335SOL    HW284638   2.485   0.133   4.545 -0.2998 -1.0758  0.0719
27336SOL     OW84639   5.492   8.921   8.137 -0.1467 -0.2587  0.1190
27336SOL    HW184640   5.534   8.969   8.065  0.8524 -0.4503  0.5652
27336SOL    HW284641   5.530   8.959   8.216 -2.0716  0.7492  0.6342
27337SOL     OW84642   4.974   8.833   6.623  0.0978 -0.3422 -0.1052
27337SOL    HW184643   5.033   8.909   6.623  1.2585 -1.1991  1.0510
27337SOL    HW284644   4.933   8.835   6.709 -0.5283 -0.5506 -0.3925
27338SOL     OW84645   1.377   0.878   1.274  0.0603  0.1764  0.7150
27338SOL    HW184646   1.292   0.848   1.243  0.1411 -0.5337  1.1602
27338SOL    HW284647   1.366   0.884   1.369  0.4209  0.3619  0.7440
27339SOL     OW84648   0.502   6.838   1.058  0.3051  0.1079 -0.1299
27339SOL    HW184649   0.539   6.922   1.028 -0.8633  0.3188 -1.0360
27339SOL    HW284650   0.477   6.854   1.149  0.8900  0.4620 -0.0234
27340SOL     OW84651   8.270   5.202   1.958 -1.0939 -0.1988 -0.3436
27340SOL    HW184652   8.351   5.168   1.919 -1.0601  0.5444 -0.9569
27340SOL    HW284653   8.300   5.265   2.024 -1.1649  0.3932 -0.8664
27341SOL     OW84654   6.248   8.382   4.338  0.4657 -0.4513 -0.1526
27341SOL    HW184655   6.271   8.332   4.260  1.5513  2.7603 -2.0788
27341SOL    HW284656   6.332   8.418   4.369 -0.2500  0.2356  1.0729
27342SOL     OW84657   5.400   0.850   6.305 -0.2120  0.7226  0.2889
27342SOL    HW184658   5.480   0.903   6.310  1.3692 -1.4581 -0.3617
27342SOL    HW284659   5.343   0.898   6.245  1.4279  1.3620 -0.8445
27343SOL     OW84660   2.243   5.041   7.393 -0.1195  0.3974 -0.1734
27343SOL    HW184661   2.297   5.120   7.388  0.9476 -0.3209 -0.4136
27343SOL    HW284662   2.207   5.042   7.482 -0.4565  1.3539 -0.3097
27344SOL     OW84663   4.166   1.605   1.663 -0.2384 -0.1464 -0.0343
27344SOL    HW184664   4.132   1.641   1.581 -2.4174 -0.5410  0.6399
27344SOL    HW284665   4.250   1.649   1.675 -0.9910  1.7439 -1.2334
27345SOL     OW84666   5.585   2.870  10.173 -0.2874 -0.0118 -0.2290
27345SOL    HW184667   5.657   2.871  10.109 -0.4833  0.0011 -0.4518
27345SOL    HW284668   5.507   2.855  10.120 -0.4212 -0.2777  0.0433
27346SOL     OW84669   3.467   2.465   3.015  0.0733  0.2383  0.1237
27346SOL    HW184670   3.482   2.539   2.956  0.8562 -1.0187 -1.3115
27346SOL    HW284671   3.468   2.388   2.959  1.9728 -1.1422  1.8705
27347SOL     OW84672   9.725   1.676   2.933 -0.8347 -0.1978 -0.2382
27347SOL    HW184673   9.687   1.759   2.961  1.0008  0.4330  0.5195
27347SOL    HW284674   9.818   1.695   2.921  0.2307 -2.6972  2.6360
27348SOL     OW84675   9.183   1.914   4.314 -0.0406  0.2596 -0.1446
27348SOL    HW184676   9.113   1.930   4.251 -1.2747 -0.2681  1.0309
27348SOL    HW284677   9.200   1.999   4.354  1.0931  0.6962 -1.4891
27349SOL     OW84678   5.425   2.136   8.579  0.4703  0.2257  0.2891
27349SOL    HW184679   5.384   2.146   8.665 -1.8641 -2.1328 -0.4192
27349SOL    HW284680   5.488   2.065   8.591  1.3225  0.9804  0.3844
27350SOL     OW84681   2.665   2.102   8.284  0.0344  0.6286 -0.6501
27350SOL    HW184682   2.639   2.130   8.197  1.1729 -0.7726 -1.4891
27350SOL    HW284683   2.757   2.128   8.292  0.4356 -0.7252 -0.5560
27351SOL     OW84684   7.641   4.257   3.049 -0.4440 -0.3361 -0.2667
27351SOL    HW184685   7.724   4.209   3.054 -1.5606 -2.5560 -1.5562
27351SOL    HW284686   7.645   4.319   3.122  1.2539 -2.1686  1.3084
27352SOL     OW84687   0.079   2.353   9.313 -0.2617 -0.0377 -0.0839
27352SOL    HW184688   0.114   2.341   9.224 -1.4309 -1.2492 -0.4115
27352SOL    HW284689   0.042   2.268   9.336  1.1539 -0.1433  2.1097
27353SOL     OW84690   0.657   9.781   8.782  0.0376  0.1789 -0.5858
27353SOL    HW184691   0.669   9.737   8.698  0.1377 -1.5389  0.2818
27353SOL    HW284692   0.743   9.818   8.803 -0.1123  1.0374 -1.4511
27354SOL     OW84693   6.489   1.687  10.264  0.0817  0.5108  0.0840
27354SOL    HW184694   6.548   1.761  10.279  2.2234 -0.9783 -0.4855
27354SOL    HW284695   6.423   1.695  10.332  1.1752  2.0683  1.0275
27355SOL     OW84696   1.726   0.050   8.326  0.6753  0.0634 -0.5623
27355SOL    HW184697   1.678   0.133   8.335  0.9700  0.1387  0.3892
27355SOL    HW284698   1.800   0.059   8.386  0.6826 -0.9202 -0.4213
27356SOL     OW84699   7.031   2.484   9.720 -0.3013 -0.2256 -0.6654
27356SOL    HW184700   7.113   2.534   9.714 -0.5300  0.1707 -0.5372
27356SOL    HW284701   6.963   2.548   9.702 -0.6066 -0.4805 -0.4299
27357SOL     OW84702   7.601   2.433   4.530 -0.2012 -0.1153 -0.0321
27357SOL    HW184703   7.587   2.398   4.442  1.1172 -2.6082  0.6520
27357SOL    HW284704   7.539   2.386   4.585  0.3729 -0.0504  0.6845
27358SOL     OW84705   1.122   4.602   4.612 -0.8542  0.3086 -0.1594
27358SOL    HW184706   1.038   4.594   4.567 -0.9147  0.1460 -0.0204
27358SOL    HW284707   1.186   4.565   4.550 -1.3499 -3.2165  1.1610
27359SOL     OW84708   1.523   2.882   8.999 -0.4280  0.3641  0.1420
27359SOL    HW184709   1.510   2.976   9.015 -0.8639  0.4841 -0.8353
27359SOL    HW284710   1.597   2.878   8.939 -2.5434  0.3540 -2.6630
27360SOL     OW84711   3.083   5.197   6.978  0.3810 -0.1745  0.2667
27360SOL    HW184712   3.136   5.143   7.036  1.1618  1.9401  1.6233
27360SOL    HW284713   3.022   5.243   7.036 -0.3826  0.2693 -0.8497
27361SOL     OW84714   2.661   8.883   0.517  0.0073 -0.0227  0.0779
27361SOL    HW184715   2.664   8.953   0.452  3.0060  0.0744  0.1873
27361SOL    HW284716   2.729   8.906   0.581  0.6288 -2.6618  0.4992
27362SOL     OW84717   8.259   7.765   7.490 -0.2254  0.2224 -0.2541
27362SOL    HW184718   8.201   7.755   7.415 -1.9635 -1.1313  1.1825
27362SOL    HW284719   8.220   7.835   7.542 -1.3171 -1.4162  1.2686
27363SOL     OW84720   2.097   5.593   2.698  0.4689  0.0669 -0.6671
27363SOL    HW184721   2.028   5.656   2.722  2.0966  1.6462  0.0748
27363SOL    HW284722   2.109   5.539   2.776  0.0435 -0.2463 -0.8163
27364SOL     OW84723   9.671   1.482   9.001  0.4169 -0.4807 -0.6909
27364SOL    HW184724   9.699   1.424   8.930 -0.3610  0.5459 -1.8893
27364SOL    HW284725   9.701   1.569   8.974 -0.6211  0.0545 -0.1747
27365SOL     OW84726   3.105   6.224   6.418 -0.0720 -0.3797 -0.0865
27365SOL    HW184727   3.160   6.150   6.444 -0.3280  0.0337  1.7384
27365SOL    HW284728   3.025   6.213   6.470 -0.4994  0.6505 -0.5074
27366SOL     OW84729   9.250   6.678   0.831  0.5281 -0.3589  0.3694
27366SOL    HW184730   9.164   6.699   0.796 -0.1944  0.9229  2.6788
27366SOL    HW284731   9.268   6.590   0.800 -1.1845 -0.2887 -0.9475
27367SOL     OW84732   9.873   7.263   4.114  0.1270 -0.4321  0.5934
27367SOL    HW184733   9.824   7.188   4.081 -1.6070  1.0009 -0.2329
27367SOL    HW284734   9.956   7.260   4.065 -0.5047 -1.0160 -0.4916
27368SOL     OW84735   6.319   1.736   4.405 -0.1521 -0.2998  0.5129
27368SOL    HW184736   6.239   1.700   4.443  1.0867 -0.2583  3.4120
27368SOL    HW284737   6.388   1.676   4.433  1.1465  0.9680  0.1553
27369SOL     OW84738   0.014  10.326   1.656  0.3726 -0.3074  0.2587
27369SOL    HW184739   0.045  10.240   1.630  0.0024 -0.0030 -1.2709
27369SOL    HW284740  -0.050  10.309   1.726 -0.3337 -1.3335 -0.6146
27370SOL     OW84741   3.821  10.002   4.893 -0.4113  0.5132  1.0389
27370SOL    HW184742   3.728   9.995   4.916 -0.4502 -3.2477  0.4047
27370SOL    HW284743   3.828   9.956   4.809  2.0208  0.7964  1.0282
27371SOL     OW84744   1.691   9.364   8.785  0.1581 -0.0071  0.6257
27371SOL    HW184745   1.615   9.331   8.835  0.6479  0.1918  1.5319
27371SOL    HW284746   1.751   9.396   8.853 -0.2308  2.6845 -0.1732
27372SOL     OW84747   5.751   5.700   0.541 -1.0221  0.0605 -0.1957
27372SOL    HW184748   5.779   5.609   0.536 -1.8497 -0.1361 -1.8703
27372SOL    HW284749   5.793   5.742   0.465  0.6571  1.4892  1.4294
27373SOL     OW84750   0.697   3.694   0.109  0.4394  0.1263  0.5224
27373SOL    HW184751   0.704   3.728   0.020 -1.0825 -0.1993  0.2573
27373SOL    HW284752   0.605   3.704   0.132  0.9048  0.7477  2.2984
27374SOL     OW84753   3.591   0.909   3.790  0.2702  0.3606 -0.4351
27374SOL    HW184754   3.636   0.826   3.779  0.3103  0.5506 -1.9808
27374SOL    HW284755   3.538   0.918   3.711 -1.8433  0.5550  0.9108
27375SOL     OW84756   7.850   8.875   8.814 -0.2697 -0.4981  0.7420
27375SOL    HW184757   7.842   8.782   8.792 -0.1412 -0.4701  0.5758
27375SOL    HW284758   7.942   8.887   8.838 -0.1384 -0.2888  0.1668
27376SOL     OW84759   4.208   0.216   4.011 -0.1780  0.5176  0.2519
27376SOL    HW184760   4.251   0.241   4.093 -2.0885  2.8503  0.6525
27376SOL    HW284761   4.141   0.153   4.036  0.2374  0.0562  0.2256
27377SOL     OW84762   6.731   7.547   3.701 -0.0487  0.1652  0.6956
27377SOL    HW184763   6.734   7.630   3.748 -2.2731  1.5397 -1.3788
27377SOL    HW284764   6.813   7.544   3.652 -0.1968  1.4377  0.3420
27378SOL     OW84765   5.940   1.482   2.024 -0.4182  0.4188 -0.2737
27378SOL    HW184766   6.003   1.554   2.032  1.3713 -0.9862 -0.8515
27378SOL    HW284767   5.894   1.500   1.942 -0.2389  1.0887 -0.2349
27379SOL     OW84768   1.385   8.861   8.144 -0.4159 -0.5984 -0.2430
27379SOL    HW184769   1.327   8.796   8.104 -1.1775  1.1324 -2.1841
27379SOL    HW284770   1.327   8.936   8.162  0.2267 -0.7329  2.8242
27380SOL     OW84771   7.464   3.375   7.569  0.2641 -0.6073 -0.0489
27380SOL    HW184772   7.433   3.423   7.645  3.0590 -0.5827  1.2065
27380SOL    HW284773   7.500   3.443   7.511  0.4712 -0.8378 -0.1924
27381SOL     OW84774   3.050   1.137   2.376  0.9405  0.0815 -0.2481
27381SOL    HW184775   3.142   1.116   2.364  0.8825  0.1093 -0.7593
27381SOL    HW284776   3.032   1.205   2.311  0.8503  0.9453  0.6434
27382SOL     OW84777   4.616   3.427   8.639  0.4157  0.2598 -0.1117
27382SOL    HW184778   4.634   3.334   8.655 -1.3956 -0.0775  0.1586
27382SOL    HW284779   4.659   3.445   8.556 -2.1384 -1.8389 -2.0934
27383SOL     OW84780   9.870   5.070   9.128  0.4683 -0.1386 -0.5509
27383SOL    HW184781   9.956   5.074   9.087  1.4882 -1.0095  1.3763
27383SOL    HW284782   9.836   5.159   9.122  2.5162  0.8061  0.6479
27384SOL     OW84783   2.658   7.822   8.200 -0.0351 -0.1526 -0.3828
27384SOL    HW184784   2.573   7.861   8.183 -0.2166 -0.4990 -0.2686
27384SOL    HW284785   2.681   7.851   8.288 -0.9498 -1.6942  0.3950
27385SOL     OW84786   3.432   9.793   1.358 -0.3238  0.2421  0.0841
27385SOL    HW184787   3.424   9.875   1.406  2.6622 -0.4552  2.0963
27385SOL    HW284788   3.487   9.814   1.283 -0.6720  0.3351 -0.1454
27386SOL     OW84789   4.261   0.939   3.330  0.4732 -0.1146  0.5438
27386SOL    HW184790   4.246   1.022   3.285 -0.3703 -1.4564 -1.8210
27386SOL    HW284791   4.335   0.957   3.389  1.6533  1.7735 -1.3615
27387SOL     OW84792   2.075   9.094   0.356 -0.3099 -0.1678  0.1406
27387SOL    HW184793   2.147   9.034   0.377 -0.6505 -1.1117 -1.2453
27387SOL    HW284794   2.031   9.053   0.282 -0.5206  1.8312 -0.9006
27388SOL     OW84795   4.044   6.648   7.847  0.3079  0.2352 -0.2399
27388SOL    HW184796   3.989   6.582   7.888 -0.0388  0.3237 -0.5569
27388SOL    HW284797   3.986   6.693   7.785  0.9466 -0.2444 -1.2189
27389SOL     OW84798   8.997   1.939   3.006  0.4883 -0.4439 -0.5833
27389SOL    HW184799   8.976   1.874   2.939  1.4786 -2.1436  0.6893
27389SOL    HW284800   9.084   1.914   3.037  0.5301  0.9868  0.5467
27390SOL     OW84801   4.954   3.017   4.737  0.3779 -0.5153 -0.0580
27390SOL    HW184802   4.894   3.029   4.664 -0.4722  3.4148  1.0661
27390SOL    HW284803   4.920   3.074   4.806  1.9472 -2.9019  2.9825
27391SOL     OW84804   6.175   9.324   3.632  0.2022  0.0546  0.2238
27391SOL    HW184805   6.262   9.294   3.605  0.1949  0.2210  0.0171
27391SOL    HW284806   6.177   9.317   3.728 -0.2246 -1.7872  0.1375
27392SOL     OW84807   8.556   3.690  10.269 -0.0689  0.2644  0.7726
27392SOL    HW184808   8.536   3.666  10.359  0.0018 -1.0964  0.4584
27392SOL    HW284809   8.587   3.608  10.229  0.9472  1.0889 -0.1898
27393SOL     OW84810   9.281   1.089   9.562 -0.2487  0.0841 -0.1512
27393SOL    HW184811   9.345   1.056   9.499  1.8110  0.1290  1.7711
27393SOL    HW284812   9.328   1.158   9.609 -1.8593  0.3889  1.0907
27394SOL     OW84813   5.357   7.884   1.075  0.5709  0.2740  0.1713
27394SOL    HW184814   5.326   7.911   0.988 -0.9352  0.3044  0.6966
27394SOL    HW284815   5.279   7.849   1.118  1.5996 -0.9993  1.0343
27395SOL     OW84816   8.239   6.596   5.217 -0.0193  0.3540  0.2615
27395SOL    HW184817   8.189   6.607   5.137  0.2582 -2.3908 -0.3907
27395SOL    HW284818   8.328   6.620   5.194 -0.3273  1.6996  0.4039
27396SOL     OW84819   6.617   6.765   0.318  0.7347 -0.3602  0.6038
27396SOL    HW184820   6.713   6.771   0.313  0.8933 -0.8505  2.3126
27396SOL    HW284821   6.601   6.712   0.396 -0.9349 -1.0275 -0.1477
27397SOL     OW84822   2.312   4.144   4.956 -0.2635 -0.7731 -0.2633
27397SOL    HW184823   2.394   4.180   4.991  0.2591 -0.9438 -1.2696
27397SOL    HW284824   2.339   4.092   4.880 -1.3693 -0.2419 -1.0588
27398SOL     OW84825   7.432   7.086   7.459  0.0079  0.4528  0.4700
27398SOL    HW184826   7.340   7.113   7.448  0.0155  0.4097  0.2923
27398SOL    HW284827   7.472   7.107   7.375  0.1633  0.4757  0.5506
27399SOL     OW84828   6.618   4.048  10.182 -0.4852  0.0851 -0.1748
27399SOL    HW184829   6.613   4.021  10.274 -1.9082 -0.8728 -0.4990
27399SOL    HW284830   6.611   3.967  10.132 -0.6091  0.6734 -1.1482
27400SOL     OW84831   1.103   5.686   0.539 -0.0691 -0.0565 -0.3080
27400SOL    HW184832   1.192   5.651   0.535  0.3055  0.6535  1.1659
27400SOL    HW284833   1.115   5.780   0.554 -1.0738  0.3526 -1.8794
27401SOL     OW84834   5.344   3.543   9.485 -0.4159  0.4465 -0.9696
27401SOL    HW184835   5.439   3.531   9.496 -0.0046  3.7162  0.0482
27401SOL    HW284836   5.308   3.525   9.571 -0.7869 -0.7959 -1.3573
27402SOL     OW84837   2.315   5.325   0.934 -0.4676  0.0012 -0.5675
27402SOL    HW184838   2.268   5.242   0.925 -0.0708 -0.1750 -1.0657
27402SOL    HW284839   2.376   5.326   0.860  0.7879 -0.0844  0.4414
27403SOL     OW84840   4.754   2.691   1.008  0.2985 -0.1483  0.2172
27403SOL    HW184841   4.837   2.667   0.968  0.8801  2.4269 -0.3018
27403SOL    HW284842   4.768   2.681   1.102  0.8002 -0.8029  0.0776
27404SOL     OW84843   2.362   7.525   3.193 -0.1624 -0.3429 -0.1057
27404SOL    HW184844   2.420   7.555   3.263 -0.3898  1.0897 -0.5038
27404SOL    HW284845   2.286   7.489   3.238 -0.1323  0.2140  0.4022
27405SOL     OW84846   0.830  10.071   3.525 -0.2123  0.2481  0.1235
27405SOL    HW184847   0.899  10.075   3.458 -0.3587 -0.6492 -0.0876
27405SOL    HW284848   0.826   9.979   3.550  0.6982  0.7454  2.2947
27406SOL     OW84849   2.092   8.403   3.623  0.6046  0.1511 -0.2562
27406SOL    HW184850   2.001   8.420   3.646  0.4852 -0.0826 -0.5589
27406SOL    HW284851   2.115   8.473   3.561  1.5000  1.9446  1.9383
27407SOL     OW84852   4.623   3.277   2.725  0.2439 -0.3056  0.1887
27407SOL    HW184853   4.712   3.311   2.732  0.2519 -0.3048  0.0789
27407SOL    HW284854   4.631   3.200   2.669  0.1650 -0.2714  0.1309
27408SOL     OW84855   3.620   3.153   5.842  0.1087 -0.2852  0.1851
27408SOL    HW184856   3.691   3.089   5.835  0.0070 -0.4578  0.7008
27408SOL    HW284857   3.650   3.228   5.792  1.1240  0.0568  1.2614
27409SOL     OW84858   7.648   4.317   3.529 -0.6220  0.1494  0.0061
27409SOL    HW184859   7.740   4.295   3.548 -0.7578  0.0470  0.5586
27409SOL    HW284860   7.602   4.302   3.612 -1.4689 -1.6322 -0.7282
27410SOL     OW84861   6.376   2.298   3.431  0.3149 -0.3347  0.2015
27410SOL    HW184862   6.403   2.297   3.523  1.0676 -1.9158  0.0001
27410SOL    HW284863   6.457   2.281   3.383  0.2201  1.9540 -0.8738
27411SOL     OW84864   0.682   5.904   3.411  0.1701  0.4373  0.3542
27411SOL    HW184865   0.738   5.872   3.481 -1.0507 -2.0157  0.3212
27411SOL    HW284866   0.596   5.913   3.452 -0.4830 -0.6880 -0.7133
27412SOL     OW84867   3.776   0.207  10.262  0.0609  1.0202 -0.1611
27412SOL    HW184868   3.807   0.277  10.320  1.1186  1.3893 -1.1507
27412SOL    HW284869   3.798   0.126  10.309  1.3562  1.3047 -0.2403
27413SOL     OW84870   5.435   0.384   1.878  0.4292 -0.0240 -0.5142
27413SOL    HW184871   5.368   0.385   1.946  1.7429 -1.7325  0.8886
27413SOL    HW284872   5.389   0.356   1.799 -0.9214  1.0127 -0.1367
27414SOL     OW84873   6.826   6.889   0.929  0.2203 -0.0900 -0.1467
27414SOL    HW184874   6.791   6.831   0.996  3.9062 -0.7400  1.4241
27414SOL    HW284875   6.863   6.831   0.863  0.4324  0.5318 -0.5860
27415SOL     OW84876   4.132   1.704   6.763  0.3108  0.0737 -0.1286
27415SOL    HW184877   4.179   1.787   6.758  0.1711  0.1956  0.4603
27415SOL    HW284878   4.052   1.718   6.712 -0.3204  0.7318  1.0058
27416SOL     OW84879   1.296   6.225   2.895 -0.6187  0.1901  0.0270
27416SOL    HW184880   1.229   6.272   2.944 -0.9604 -0.0457 -0.2067
27416SOL    HW284881   1.268   6.232   2.804 -0.0248  0.5657 -0.1279
27417SOL     OW84882   8.588   9.749   0.510  0.1162  0.2432 -0.1755
27417SOL    HW184883   8.628   9.692   0.444  0.3785  0.8902 -0.5886
27417SOL    HW284884   8.508   9.703   0.536  0.1911 -0.1929 -0.6811
27418SOL     OW84885   4.249   1.331   5.070 -0.1340  0.7302  0.1054
27418SOL    HW184886   4.212   1.354   5.154  2.0967  1.8872  0.8371
27418SOL    HW284887   4.267   1.237   5.077 -2.5793  0.1913 -0.1958
27419SOL     OW84888   9.000   6.155   3.917  0.4644  0.6849 -0.3055
27419SOL    HW184889   9.064   6.147   3.988 -1.1450 -1.3785  1.0133
27419SOL    HW284890   8.952   6.236   3.937 -0.9727 -0.6234  1.9244
27420SOL     OW84891   7.028   6.608   4.152  0.0488  0.3893 -0.3498
27420SOL    HW184892   7.003   6.568   4.236  2.2860 -0.3618  0.0056
27420SOL    HW284893   6.995   6.548   4.086  0.5734 -0.4076  0.0921
27421SOL     OW84894   6.498   5.619   0.776  0.2407 -0.0201 -0.4664
27421SOL    HW184895   6.480   5.537   0.730 -0.3941  0.3121 -0.8277
27421SOL    HW284896   6.413   5.661   0.785  0.3189 -0.1535  1.2100
27422SOL     OW84897   1.929   0.976   1.402  0.3705 -0.1993 -0.1583
27422SOL    HW184898   1.983   1.052   1.380  0.6261 -0.3230  0.0237
27422SOL    HW284899   1.969   0.904   1.353  1.2032 -0.5638  0.9966
27423SOL     OW84900   9.464   6.240   2.487 -0.2195  0.6822 -0.4651
27423SOL    HW184901   9.501   6.326   2.467  2.1018 -0.0440  0.3767
27423SOL    HW284902   9.370   6.255   2.494  0.0180  2.9288 -1.4151
27424SOL     OW84903   7.796   9.288   0.351  0.0744  0.1759 -0.3457
27424SOL    HW184904   7.755   9.203   0.368  0.0283  0.2857  0.1074
27424SOL    HW284905   7.875   9.267   0.300  1.6911 -0.4597  2.2303
27425SOL     OW84906   8.237   5.833   5.781  0.2411  0.1705 -0.0978
27425SOL    HW184907   8.236   5.896   5.709  0.2614 -1.2266 -1.3512
27425SOL    HW284908   8.276   5.754   5.744 -1.1981 -1.1037  0.9877
27426SOL     OW84909   4.187   3.353   3.954 -0.1541 -0.0001 -0.0041
27426SOL    HW184910   4.279   3.354   3.927  0.1989  1.0366  1.1634
27426SOL    HW284911   4.147   3.426   3.908 -0.6760 -1.0801 -1.3350
27427SOL     OW84912   3.269   2.047   8.346 -0.2409  0.0531  0.0347
27427SOL    HW184913   3.203   2.106   8.384 -0.3273  0.4358 -0.6942
27427SOL    HW284914   3.284   2.082   8.259 -1.1682 -1.7102 -0.8733
27428SOL     OW84915   2.037   6.899   0.539  0.1618  0.3454 -0.2748
27428SOL    HW184916   1.976   6.971   0.521  0.9102  0.8851 -0.7023
27428SOL    HW284917   1.997   6.823   0.497  0.5907  1.0388 -2.0189
27429SOL     OW84918   0.949   0.747   0.479 -0.4780 -0.0971 -0.6004
27429SOL    HW184919   0.962   0.653   0.495  0.1570  0.2627  1.2112
27429SOL    HW284920   0.854   0.757   0.469 -0.5033 -0.9997 -1.3910
27430SOL     OW84921   2.021   5.083   0.082 -0.6133 -0.3982  0.1972
27430SOL    HW184922   1.943   5.029   0.065  0.7604 -2.5465  0.3321
27430SOL    HW284923   2.054   5.052   0.166  0.7008  0.0787 -0.1149
27431SOL     OW84924   7.121   8.472   6.430  0.1632  0.3759  0.3359
27431SOL    HW184925   7.109   8.417   6.352 -0.8150  0.4081  0.4576
27431SOL    HW284926   7.083   8.421   6.501  2.0831 -0.1717  1.0344
27432SOL     OW84927   3.126   4.082   6.148 -0.2178  0.5894 -0.5049
27432SOL    HW184928   3.133   4.147   6.078  1.6626  0.0342 -0.8832
27432SOL    HW284929   3.192   4.017   6.127 -2.4522 -1.8555 -0.4709
27433SOL     OW84930   2.193   2.919  10.331 -1.4692 -0.8760 -0.4291
27433SOL    HW184931   2.231   2.864  10.263 -1.3699  0.7823 -1.7708
27433SOL    HW284932   2.105   2.884  10.344 -1.4648 -1.2482 -1.3678
27434SOL     OW84933   8.502   6.435   2.477  0.0466  0.4740 -0.4474
27434SOL    HW184934   8.517   6.400   2.564 -3.3264 -1.9756 -0.6431
27434SOL    HW284935   8.544   6.373   2.418 -0.0879  0.5855 -0.6625
27435SOL     OW84936   4.674   4.762   1.989 -0.8439  0.7154  0.4310
27435SOL    HW184937   4.656   4.713   2.069 -0.4402  0.1294  0.1714
27435SOL    HW284938   4.688   4.852   2.018  1.8255  0.0904  1.3669
27436SOL     OW84939   9.994   2.558   5.318 -0.5414 -0.3667 -0.6262
27436SOL    HW184940  10.088   2.563   5.334 -0.7466  0.5920  0.3392
27436SOL    HW284941   9.971   2.467   5.338  0.2800 -0.7892 -1.5269
27437SOL     OW84942   8.432   8.335   6.535  0.1923  0.0745 -0.5224
27437SOL    HW184943   8.454   8.242   6.535  2.2746  0.5333 -1.1732
27437SOL    HW284944   8.514   8.380   6.517 -0.6104  2.0972  0.5228
27438SOL     OW84945   4.305   5.251   6.295  0.4509 -0.3001 -0.4635
27438SOL    HW184946   4.311   5.341   6.330  2.1961 -0.1029 -1.1613
27438SOL    HW284947   4.236   5.210   6.347  0.8455  0.9100  1.1245
27439SOL     OW84948   6.181   2.336   4.894  0.9076 -0.3095  0.5273
27439SOL    HW184949   6.097   2.371   4.864  2.0605  2.7058  0.4926
27439SOL    HW284950   6.236   2.336   4.816  1.9399  1.1962  1.2028
27440SOL     OW84951   5.498  10.105   9.936  0.0333 -0.9025  0.2708
27440SOL    HW184952   5.539  10.133   9.854 -0.0288 -0.3764  0.4112
27440SOL    HW284953   5.415  10.065   9.910  0.1933 -1.0941  0.0531
27441SOL     OW84954   3.474   2.907   5.442 -0.3660  0.6611  0.4433
27441SOL    HW184955   3.420   2.961   5.499 -0.8165 -0.6082  1.2699
27441SOL    HW284956   3.503   2.835   5.498  0.1847  0.0276 -0.6290
27442SOL     OW84957   9.390   4.967   6.796  0.3517 -0.4047  0.1660
27442SOL    HW184958   9.456   4.916   6.747 -0.4708  0.4310 -1.9434
27442SOL    HW284959   9.383   5.049   6.747 -2.1995 -0.4418  0.3784
27443SOL     OW84960   5.011   7.632   4.273  0.5739 -0.2156  0.2929
27443SOL    HW184961   5.098   7.664   4.251  1.6474 -3.2021 -0.2233
27443SOL    HW284962   5.020   7.597   4.362  0.0260 -0.8599  0.1107
27444SOL     OW84963   4.189   2.260   7.547 -0.0199 -0.0458  0.3390
27444SOL    HW184964   4.264   2.227   7.497  1.8335  2.3071  1.3199
27444SOL    HW284965   4.185   2.202   7.624  0.4597 -0.5422  0.0004
27445SOL     OW84966  10.123   5.187   1.042 -0.1646  0.1846  0.0254
27445SOL    HW184967  10.047   5.195   1.100 -0.3436 -0.6530 -0.0893
27445SOL    HW284968  10.092   5.216   0.957 -0.8065 -1.6100 -0.3823
27446SOL     OW84969   2.328   8.004   0.685  0.3381  0.6619 -0.6626
27446SOL    HW184970   2.332   7.988   0.779 -1.6941 -0.1011 -0.6555
27446SOL    HW284971   2.240   8.039   0.670  0.3647  0.0910 -2.3617
27447SOL     OW84972   7.185   7.624   4.746 -0.8470 -0.3870  0.6273
27447SOL    HW184973   7.104   7.592   4.707  0.4044 -1.2251 -1.4436
27447SOL    HW284974   7.244   7.549   4.745  0.6204  0.7253  0.1503
27448SOL     OW84975   9.192   9.461   2.008 -0.5287  0.5965 -0.5759
27448SOL    HW184976   9.286   9.481   2.011 -0.2850 -0.4512 -0.9600
27448SOL    HW284977   9.154   9.533   1.959  0.1355  0.8135 -0.7817
27449SOL     OW84978   0.626   2.966   4.823 -0.2702 -0.3488 -0.3586
27449SOL    HW184979   0.710   2.974   4.868  1.9337 -0.2162 -4.1211
27449SOL    HW284980   0.589   2.884   4.857  1.2611 -0.3500  1.4902
27450SOL     OW84981   7.520   9.301   6.289 -0.4929  0.3003 -0.3999
27450SOL    HW184982   7.583   9.234   6.262 -0.9411  0.4088 -1.7985
27450SOL    HW284983   7.438   9.275   6.247 -0.5956  1.9167 -1.2613
27451SOL     OW84984   5.004   2.571   7.942 -0.0094  0.0117  0.1982
27451SOL    HW184985   4.921   2.619   7.949 -0.0647  0.6949 -3.3264
27451SOL    HW284986   4.979   2.479   7.939 -0.5535  0.1662 -0.0691
27452SOL     OW84987   0.950   6.772   5.040  0.1348  0.3685 -0.0740
27452SOL    HW184988   0.895   6.776   5.118  0.8891 -1.0612  0.5716
27452SOL    HW284989   0.909   6.833   4.979 -1.9363 -0.3446  0.5181
27453SOL     OW84990   3.620   8.481   6.946 -0.0580  0.5786 -0.1993
27453SOL    HW184991   3.565   8.556   6.968 -1.5494 -0.0478 -1.6665
27453SOL    HW284992   3.675   8.512   6.874 -0.8311  0.2053 -0.9550
27454SOL     OW84993   4.210   0.381   0.371  0.3196  0.0910 -0.2685
27454SOL    HW184994   4.115   0.380   0.367  0.3709 -1.0532 -2.1703
27454SOL    HW284995   4.231   0.461   0.420 -1.5938  0.0207  0.7601
27455SOL     OW84996   2.371   2.100   1.311 -0.3505 -0.3088 -0.1151
27455SOL    HW184997   2.393   2.157   1.237 -2.3116  1.0261  0.2609
27455SOL    HW284998   2.360   2.160   1.384  0.1732 -1.4748  0.9571
27456SOL     OW84999   8.617   8.802   9.948  0.1843  0.0571 -0.1295
27456SOL    HW185000   8.556   8.747   9.998 -0.5578  0.8254 -0.1754
27456SOL    HW285001   8.618   8.885   9.995 -0.1953  0.6480 -1.1458
27457SOL     OW85002   1.581   1.160   1.131 -0.2929 -0.5884  0.1576
27457SOL    HW185003   1.552   1.214   1.205  1.3175 -0.6294  0.8512
27457SOL    HW285004   1.676   1.171   1.128 -0.1494 -1.8265 -0.9343
27458SOL     OW85005   7.271   1.692   5.176  0.0215 -0.1094  0.5112
27458SOL    HW185006   7.262   1.748   5.253 -0.3416  0.0106  0.3802
27458SOL    HW285007   7.346   1.636   5.196 -0.4221 -0.4690  1.1899
27459SOL     OW85008   8.201   8.415   5.249 -0.2311  0.2661  0.0685
27459SOL    HW185009   8.262   8.470   5.299  0.8212 -1.0746  0.2950
27459SOL    HW285010   8.256   8.352   5.203 -1.3848 -0.3848 -0.4818
27460SOL     OW85011   8.989   6.829   4.191 -0.2515 -0.0320  0.0658
27460SOL    HW185012   8.897   6.803   4.199 -0.2980  0.2426  0.4958
27460SOL    HW285013   9.038   6.750   4.211 -0.3947 -0.0700  0.2720
27461SOL     OW85014   9.935   4.024   2.221  0.3579  0.1422 -0.2611
27461SOL    HW185015   9.963   3.988   2.306  0.6956 -1.4812 -1.0207
27461SOL    HW285016   9.969   3.963   2.157 -0.8694  0.7201 -1.5196
27462SOL     OW85017   0.584   4.388  10.249  0.0041  0.1219 -0.1696
27462SOL    HW185018   0.600   4.303  10.291 -1.0839  0.2765  0.6004
27462SOL    HW285019   0.564   4.365  10.158 -2.2650 -0.6905  0.4550
27463SOL     OW85020   9.575   1.848   2.081 -0.2273  0.3526  0.4447
27463SOL    HW185021   9.541   1.929   2.119 -1.2137 -0.0691  0.5020
27463SOL    HW285022   9.670   1.857   2.086 -0.2564  2.2375 -1.0502
27464SOL     OW85023   4.262   4.093   1.612  0.3273  0.2517 -0.1686
27464SOL    HW185024   4.237   4.185   1.625  2.5624  0.8899  0.1272
27464SOL    HW285025   4.327   4.097   1.541  0.4925 -1.1064 -0.1062
27465SOL     OW85026   2.332   4.749   2.464 -0.2795  0.5001  0.4102
27465SOL    HW185027   2.362   4.786   2.381 -0.7814  0.3210  0.1440
27465SOL    HW285028   2.259   4.805   2.490  0.2330  0.8923  1.0169
27466SOL     OW85029   1.379   1.845   1.751 -0.8242  0.7238 -0.2838
27466SOL    HW185030   1.387   1.761   1.795 -1.8611  1.5771  1.6831
27466SOL    HW285031   1.338   1.824   1.667  2.3288 -1.0947 -1.5157
27467SOL     OW85032   6.010   1.703   0.112 -0.1146 -0.1796  0.1645
27467SOL    HW185033   5.978   1.614   0.120 -0.8639  0.0950  0.2882
27467SOL    HW285034   5.934   1.758   0.132  0.1126  0.4922 -0.7416
27468SOL     OW85035   2.073   2.902   6.763  0.1102 -0.3037  0.2541
27468SOL    HW185036   2.114   2.986   6.742  0.6009 -0.6152 -0.0604
27468SOL    HW285037   1.997   2.897   6.705  0.1834 -0.1600  0.1454
27469SOL     OW85038   7.435   2.862   5.866 -0.6108  0.0662 -0.1312
27469SOL    HW185039   7.515   2.856   5.919 -1.2269 -1.0441  0.6948
27469SOL    HW285040   7.384   2.930   5.908  0.4250  1.7567 -1.4435
27470SOL     OW85041   8.543   2.618   9.413  0.2358  0.3227 -0.0329
27470SOL    HW185042   8.465   2.646   9.365 -0.7957  0.8079  1.8291
27470SOL    HW285043   8.580   2.700   9.447  0.2511 -0.0846  0.9682
27471SOL     OW85044   0.209  10.086   2.096  0.5579  0.6357  0.0291
27471SOL    HW185045   0.126  10.132   2.091  0.0878 -0.0509  1.1158
27471SOL    HW285046   0.203  10.019   2.027  0.1810  0.5404  0.1529
27472SOL     OW85047   3.070   1.147   9.147  0.6871 -0.7622  0.1140
27472SOL    HW185048   3.138   1.087   9.116  1.7566  0.4368  0.0215
27472SOL    HW285049   3.032   1.184   9.068  0.5823 -0.7343  0.1775
27473SOL     OW85050   2.342   6.810   3.522  0.2713 -0.0223  0.5440
27473SOL    HW185051   2.344   6.822   3.617 -1.1605 -0.3930  0.6434
27473SOL    HW285052   2.344   6.899   3.487  1.2501  0.1083  0.8799
27474SOL     OW85053   3.505   5.981   8.639 -0.0334  0.0970 -0.3943
27474SOL    HW185054   3.579   5.999   8.697  0.0179 -1.8308  0.1991
27474SOL    HW285055   3.532   6.017   8.554  0.4721  1.7052  0.4001
27475SOL     OW85056   0.818   4.343   2.228  0.6760 -0.6385 -0.4925
27475SOL    HW185057   0.841   4.425   2.186  1.6394  0.5936  2.1822
27475SOL    HW285058   0.767   4.295   2.163  3.3991  0.3341 -3.5748
27476SOL     OW85059   4.783   6.343   7.349 -0.4724 -0.2242  0.1999
27476SOL    HW185060   4.696   6.360   7.387 -0.3163  2.8132 -0.5572
27476SOL    HW285061   4.774   6.370   7.258  1.4507  1.0344  0.3326
27477SOL     OW85062   7.937   4.877   9.835  0.1534  0.0601 -0.1343
27477SOL    HW185063   8.000   4.812   9.804 -2.5012 -2.6957 -0.2384
27477SOL    HW285064   7.874   4.827   9.887 -1.3940  2.7813  0.8281
27478SOL     OW85065   8.554   8.299   0.592 -0.0652  0.0842  0.0689
27478SOL    HW185066   8.580   8.225   0.646  1.4427 -1.0865 -2.1023
27478SOL    HW285067   8.460   8.287   0.577  0.3262 -2.0133 -1.0535
27479SOL     OW85068   5.679   1.206   7.458  0.0102  0.0752  0.0513
27479SOL    HW185069   5.773   1.207   7.444  0.1993  0.6235  1.1876
27479SOL    HW285070   5.665   1.267   7.531 -1.1216 -0.6368  0.4638
27480SOL     OW85071   5.143   6.011   4.939 -0.0869 -0.2578  0.9287
27480SOL    HW185072   5.167   5.960   4.863  0.6789  1.0803  0.2419
27480SOL    HW285073   5.184   5.966   5.013 -1.7070 -2.1761  0.7660
27481SOL     OW85074   5.780   0.654   8.809  0.1691  0.0920 -0.2253
27481SOL    HW185075   5.723   0.705   8.867 -0.2123 -0.6970  0.1196
27481SOL    HW285076   5.848   0.715   8.782 -0.4306  0.8557 -0.0536
27482SOL     OW85077   0.199   2.186  10.272  0.1171 -0.1913 -0.1321
27482SOL    HW185078   0.285   2.166  10.235 -0.6109 -0.0133 -2.0271
27482SOL    HW285079   0.144   2.204  10.196 -1.3227  0.8201  1.0945
27483SOL     OW85080   7.637   0.158   0.478 -0.0874  0.1121  0.3030
27483SOL    HW185081   7.593   0.237   0.509 -1.0936 -0.3064 -0.0193
27483SOL    HW285082   7.663   0.112   0.558 -1.6458 -0.3904  0.5700
27484SOL     OW85083   6.524   7.485   7.870  0.8282  0.0660  0.2176
27484SOL    HW185084   6.510   7.471   7.777  0.6946 -0.7335  0.3530
27484SOL    HW285085   6.438   7.473   7.910  1.0693 -0.5693  0.5560
27485SOL     OW85086   7.832   2.272   6.535 -0.2277 -0.3450  0.3284
27485SOL    HW185087   7.743   2.263   6.571 -0.2407  0.6393  0.5537
27485SOL    HW285088   7.854   2.364   6.548  0.1648 -0.1917 -1.2642
27486SOL     OW85089   3.805   4.614   6.013 -0.4625  0.1281  0.2130
27486SOL    HW185090   3.845   4.555   6.076  0.6386 -0.1633 -0.7218
27486SOL    HW285091   3.799   4.563   5.932  0.3001  1.1871 -0.5511
27487SOL     OW85092   6.804   4.030   8.485  0.0651  0.0851  0.3815
27487SOL    HW185093   6.777   3.941   8.510  1.7751 -0.8277 -0.8481
27487SOL    HW285094   6.785   4.035   8.391 -1.3922  1.5977  0.7079
27488SOL     OW85095   2.612   3.863   4.344  0.1082 -0.2711 -0.0350
27488SOL    HW185096   2.584   3.841   4.255 -1.3132 -2.0489  0.7848
27488SOL    HW285097   2.704   3.837   4.348  0.6898  1.3524 -1.4125
27489SOL     OW85098   1.247  10.064   6.620 -0.2970 -0.2590 -0.5058
27489SOL    HW185099   1.280  10.127   6.683 -1.0600  0.9088 -1.2266
27489SOL    HW285100   1.278  10.096   6.535 -1.4599 -0.3143 -0.9805
27490SOL     OW85101   3.064   7.157   0.556  0.6342  0.9545  0.1298
27490SOL    HW185102   3.128   7.159   0.485 -0.2183 -1.0050 -0.7824
27490SOL    HW285103   3.104   7.100   0.622  1.0776  2.1226  0.8901
27491SOL     OW85104   6.219   2.884   5.229  0.1809  0.7808 -0.2745
27491SOL    HW185105   6.291   2.823   5.244 -0.2279  0.4132  0.2259
27491SOL    HW285106   6.141   2.829   5.222 -0.1954  1.2372  0.1816
27492SOL     OW85107   6.102   4.167   1.878  0.1488  0.5412  0.1443
27492SOL    HW185108   6.147   4.213   1.807  1.8149  0.1952  0.9231
27492SOL    HW285109   6.030   4.120   1.834  0.2199  1.5056 -1.0750
27493SOL     OW85110   0.915   7.666   4.182 -0.0677 -0.3943  0.4974
27493SOL    HW185111   1.000   7.703   4.204  0.4068 -1.2963  0.2093
27493SOL    HW285112   0.927   7.572   4.187 -0.6042 -0.5854 -1.1535
27494SOL     OW85113   9.857   2.983   5.274  0.1337 -0.1553 -0.0130
27494SOL    HW185114   9.934   2.947   5.229  1.1524  0.4401  1.1744
27494SOL    HW285115   9.861   3.077   5.257 -1.4074 -0.3129 -1.4745
27495SOL     OW85116   2.257   8.377   7.997  0.0291  0.5933 -0.0735
27495SOL    HW185117   2.292   8.377   8.086 -0.8516 -1.9922  0.3508
27495SOL    HW285118   2.240   8.469   7.978  0.8485  1.2692  2.1759
27496SOL     OW85119   5.137   1.403   0.190  0.1839 -0.5825 -0.2588
27496SOL    HW185120   5.191   1.339   0.145  1.7660  1.1148 -0.9216
27496SOL    HW285121   5.083   1.442   0.121 -1.9973 -2.2595  0.3973
27497SOL     OW85122   8.147   3.034   1.774 -0.5571 -0.3127 -0.4132
27497SOL    HW185123   8.236   3.003   1.761 -1.1209 -2.7381  0.7926
27497SOL    HW285124   8.108   3.032   1.686  0.3997  0.2767 -0.8667
27498SOL     OW85125   5.955   3.384   9.190  0.1867  0.0566  0.2139
27498SOL    HW185126   5.934   3.291   9.197  1.7694 -0.3147  0.2988
27498SOL    HW285127   5.951   3.416   9.280  2.1367 -0.5270  0.5469
27499SOL     OW85128   2.924   0.850   9.162  0.0847  0.5549 -0.6211
27499SOL    HW185129   2.877   0.767   9.164  1.5232 -0.2729 -0.1534
27499SOL    HW285130   2.879   0.901   9.094  0.5329 -1.4313 -2.5270
27500SOL     OW85131   8.012   7.730   5.272 -0.3020  0.2666  0.1777
27500SOL    HW185132   8.103   7.749   5.251 -0.4590 -0.2699 -1.0818
27500SOL    HW285133   7.965   7.742   5.189 -1.2548 -0.1752  0.6384
27501SOL     OW85134   8.528   6.199   3.653 -0.2663  0.3550  0.3775
27501SOL    HW185135   8.434   6.197   3.672 -0.4761  3.0710  0.0290
27501SOL    HW285136   8.534   6.176   3.560 -0.4895 -0.6114  0.5949
27502SOL     OW85137   9.337   6.135   6.199  0.1831 -0.2537 -0.3790
27502SOL    HW185138   9.320   6.216   6.152 -0.3886  0.6580  1.3069
27502SOL    HW285139   9.252   6.111   6.236  0.7249 -0.5539  0.7299
27503SOL     OW85140   3.125   1.073   7.488 -0.8307  0.0455  0.0576
27503SOL    HW185141   3.120   1.028   7.572  1.0105 -3.1803 -1.3779
27503SOL    HW285142   3.162   1.159   7.509  1.0684 -1.2407  2.4250
27504SOL     OW85143   9.543   4.950   8.275 -0.4619  0.5199 -0.1677
27504SOL    HW185144   9.505   4.904   8.349 -1.9037  1.4080 -0.3050
27504SOL    HW285145   9.549   4.884   8.206 -0.2687 -0.0103  0.3479
27505SOL     OW85146   9.294   7.877   3.940  0.2229 -0.0468 -0.4933
27505SOL    HW185147   9.272   7.788   3.965  0.3103  0.0062 -0.2297
27505SOL    HW285148   9.238   7.932   3.994 -0.4350  0.0421 -1.2515
27506SOL     OW85149   2.285   1.687   3.058  0.2880  0.4032 -0.1616
27506SOL    HW185150   2.376   1.702   3.081 -0.5030  2.4529  1.9808
27506SOL    HW285151   2.281   1.701   2.963  2.3948 -1.1940 -0.5589
27507SOL     OW85152   0.720  10.226   0.657  0.5245  0.1422  0.0899
27507SOL    HW185153   0.651  10.172   0.696 -0.5056  1.1262 -0.3087
27507SOL    HW285154   0.678  10.269   0.582  2.3300 -1.3793 -1.9142
27508SOL     OW85155   3.288   7.149   7.744  0.1634  0.9746  0.1505
27508SOL    HW185156   3.368   7.097   7.755 -0.0211  0.3361 -1.3810
27508SOL    HW285157   3.319   7.231   7.706  0.0923  0.7067 -0.4921
27509SOL     OW85158   9.940   1.327   1.585  0.1630  0.5368 -0.0760
27509SOL    HW185159   9.972   1.291   1.668  0.5923 -0.6437 -0.7179
27509SOL    HW285160  10.017   1.328   1.529 -0.8305 -2.5343 -1.7160
27510SOL     OW85161   1.297   4.859   8.912 -0.2579 -0.2536  0.3207
27510SOL    HW185162   1.211   4.882   8.947  0.1583 -0.9628  1.8795
27510SOL    HW285163   1.359   4.897   8.974  0.5616  0.0097 -0.6370
27511SOL     OW85164   3.583   9.135   2.170  0.3758  0.4369 -0.4351
27511SOL    HW185165   3.638   9.202   2.131 -0.3047  0.4003 -1.5116
27511SOL    HW285166   3.507   9.184   2.204  1.4224  0.5945  1.7991
27512SOL     OW85167   6.373  10.027   2.315  0.1173  0.1248  0.1444
27512SOL    HW185168   6.400  10.010   2.405  1.0396  0.5561 -0.0399
27512SOL    HW285169   6.438   9.981   2.262 -0.4906 -0.2253 -0.3036
27513SOL     OW85170   4.260   5.837   4.634 -0.0396  0.5150  0.3943
27513SOL    HW185171   4.291   5.751   4.663 -1.1690  0.1448  0.5720
27513SOL    HW285172   4.334   5.874   4.586  1.1091  0.2238  1.8647
27514SOL     OW85173   1.064   5.032   2.639  0.2121  0.1839 -0.1465
27514SOL    HW185174   1.079   5.090   2.714  0.2173  2.3123 -1.6922
27514SOL    HW285175   0.969   5.020   2.637  0.0439  1.4366 -0.6783
27515SOL     OW85176   4.416   4.821   9.078 -0.2763  0.0452 -0.1709
27515SOL    HW185177   4.366   4.817   8.996  0.0643 -0.4389 -0.3548
27515SOL    HW285178   4.392   4.906   9.116 -0.3900  0.3016 -0.8005
27516SOL     OW85179   5.329   6.351   2.706  0.2708 -0.4682 -0.0997
27516SOL    HW185180   5.351   6.351   2.613 -1.9251  2.2623 -0.7361
27516SOL    HW285181   5.373   6.428   2.741  0.6193 -1.1583  1.0556
27517SOL     OW85182   8.452   2.469   6.752  0.0307  1.0544 -0.4583
27517SOL    HW185183   8.464   2.473   6.657 -0.6192  1.4379 -0.5327
27517SOL    HW285184   8.384   2.403   6.765 -0.1211  1.2439 -0.2844
27518SOL     OW85185   8.694   8.047   9.559 -0.5154 -0.3412  0.1503
27518SOL    HW185186   8.680   8.053   9.465  1.0360 -1.5313 -0.1711
27518SOL    HW285187   8.782   8.081   9.573 -0.9161  0.3110  1.2557
27519SOL     OW85188   7.629   6.194   3.965  0.5304 -0.3727  0.1082
27519SOL    HW185189   7.579   6.184   3.885  2.0262 -0.1990 -0.8836
27519SOL    HW285190   7.587   6.135   4.028 -0.3820 -0.8456 -0.9311
27520SOL     OW85191   1.785   1.916   1.719  0.0995  0.1032 -0.0023
27520SOL    HW185192   1.855   1.957   1.670  0.7547  1.0920  1.7045
27520SOL    HW285193   1.829   1.865   1.787 -0.7867 -1.0912 -0.2852
27521SOL     OW85194   7.926   1.974   6.052  0.0599  0.2472 -0.2347
27521SOL    HW185195   7.874   2.048   6.083  0.6614  0.1095  1.2057
27521SOL    HW285196   7.941   1.991   5.960  0.5135  2.1310  0.1593
27522SOL     OW85197   5.819   8.552   8.244  0.1786 -0.0958 -0.4403
27522SOL    HW185198   5.736   8.595   8.227  0.3436  0.5593  0.3528
27522SOL    HW285199   5.847   8.586   8.329  1.2506 -0.3080 -0.6887
27523SOL     OW85200   4.687   1.506   1.453  0.4645 -0.0536 -0.4617
27523SOL    HW185201   4.738   1.499   1.372  1.5940 -1.6636  0.3304
27523SOL    HW285202   4.661   1.598   1.457  3.4352  0.9280 -0.8592
27524SOL     OW85203   1.348   7.867   3.576 -0.0137 -0.2574  0.2342
27524SOL    HW185204   1.300   7.790   3.608 -0.3933  0.3896  1.2697
27524SOL    HW285205   1.326   7.872   3.483 -0.4688 -1.0471  0.2871
27525SOL     OW85206   5.282   9.157   0.162 -0.4472 -0.1849 -0.4033
27525SOL    HW185207   5.331   9.152   0.243  0.0334  1.4793 -0.5495
27525SOL    HW285208   5.299   9.074   0.117  0.1102 -0.6879  0.7176
27526SOL     OW85209   2.813   7.146   1.989  0.1021  0.4308 -0.1257
27526SOL    HW185210   2.831   7.209   2.059  1.3317  0.0159 -0.0415
27526SOL    HW285211   2.879   7.077   2.000 -0.5535 -0.3486 -0.8537
27527SOL     OW85212   9.189   4.708   8.466  0.3885  0.3960 -0.2844
27527SOL    HW185213   9.129   4.643   8.503  0.9941  0.2673  0.4924
27527SOL    HW285214   9.133   4.783   8.445  0.1651  0.9155  1.9490
27528SOL     OW85215   0.863   6.430   5.620 -0.9156 -0.0489  0.0859
27528SOL    HW185216   0.775   6.444   5.587 -0.7786 -0.0054 -0.2649
27528SOL    HW285217   0.851   6.407   5.712 -1.2799  0.1618  0.0931
27529SOL     OW85218   6.956   2.674   2.067 -0.1730  0.8492  0.5954
27529SOL    HW185219   6.885   2.694   2.007  0.2755 -1.0676 -0.6533
27529SOL    HW285220   6.913   2.643   2.146 -0.7347  1.1405  0.4053
27530SOL     OW85221   4.208   5.525   2.945 -0.0487  0.4160  0.7040
27530SOL    HW185222   4.278   5.518   2.880  0.7988  0.2780  1.6096
27530SOL    HW285223   4.136   5.566   2.898  1.2078  2.1592  0.1844
27531SOL     OW85224   7.202   0.564  10.092 -0.1742  0.0804 -0.5493
27531SOL    HW185225   7.159   0.532  10.013 -1.0415  1.6158 -0.7303
27531SOL    HW285226   7.275   0.617  10.060 -0.0898  0.1090 -0.3115
27532SOL     OW85227   4.245   9.780   5.578 -0.3063 -0.0751  0.6660
27532SOL    HW185228   4.338   9.792   5.600 -0.3798  0.6783  0.6098
27532SOL    HW285229   4.236   9.687   5.559  0.9358  0.1967 -1.5835
27533SOL     OW85230   7.885   1.809   2.795  0.2285 -0.4547  0.0598
27533SOL    HW185231   7.812   1.801   2.732 -1.1266 -1.0803  1.6327
27533SOL    HW285232   7.955   1.757   2.757 -0.3230 -0.3095 -1.2270
27534SOL     OW85233   1.510   1.500   0.446  0.0753  0.0416 -0.1094
27534SOL    HW185234   1.518   1.406   0.429  0.5544  0.0553  0.0109
27534SOL    HW285235   1.561   1.514   0.526  0.6136  0.5145 -0.5199
27535SOL     OW85236   5.659   5.336   2.080 -0.0715 -0.4282 -0.8435
27535SOL    HW185237   5.611   5.364   2.158  0.4903 -0.0949 -0.6097
27535SOL    HW285238   5.593   5.335   2.010 -1.2858 -3.6483  0.2056
27536SOL     OW85239   3.444   7.136   2.374 -0.0669 -0.2463 -0.6992
27536SOL    HW185240   3.535   7.126   2.345  0.1856  0.2310 -0.0878
27536SOL    HW285241   3.438   7.084   2.454 -0.0310  0.6001 -0.1372
27537SOL     OW85242   3.788   7.165   0.318  0.4529  0.2579 -0.1036
27537SOL    HW185243   3.851   7.215   0.370 -0.5193  0.0489  1.3246
27537SOL    HW285244   3.756   7.227   0.253  2.4160  0.2534 -1.1349
27538SOL     OW85245   8.521   7.254   8.531 -0.0723  0.3637  0.5561
27538SOL    HW185246   8.590   7.190   8.547  0.6389  0.7543 -0.7883
27538SOL    HW285247   8.451   7.204   8.489 -0.1297  0.1892  0.8589
27539SOL     OW85248   4.067   9.139   2.784  0.5935 -0.2423 -0.3529
27539SOL    HW185249   4.041   9.049   2.764 -0.2409  0.3524 -2.1219
27539SOL    HW285250   4.140   9.130   2.846  0.1265 -2.1000 -0.0109
27540SOL     OW85251   7.260   0.297   9.338  0.2931 -0.4973 -0.7677
27540SOL    HW185252   7.213   0.282   9.256  0.1202 -2.0867 -0.4037
27540SOL    HW285253   7.286   0.389   9.334  0.2921 -0.5466 -2.5945
27541SOL     OW85254   5.087   6.169   6.146  0.2919 -0.0764  0.7127
27541SOL    HW185255   4.997   6.138   6.155 -0.4543  0.7872 -2.3678
27541SOL    HW285256   5.083   6.262   6.165  0.6304 -0.1116  0.9710
27542SOL     OW85257   7.319   7.940   2.890  0.3339 -0.1888  0.1092
27542SOL    HW185258   7.317   7.974   2.800  1.3163  0.8465  0.4553
27542SOL    HW285259   7.332   7.846   2.880  2.3582  0.1383 -0.8460
27543SOL     OW85260   2.091   5.732   0.535 -0.1259 -0.2196  0.7306
27543SOL    HW185261   2.116   5.640   0.546  0.6146 -0.0653  0.4005
27543SOL    HW285262   2.126   5.776   0.612  1.1610  0.0987 -0.0177
27544SOL     OW85263   7.458   2.157   8.687 -0.3423 -0.7696 -0.5013
27544SOL    HW185264   7.396   2.219   8.648  1.0890  1.5948  0.7145
27544SOL    HW285265   7.484   2.101   8.614 -2.0624 -0.2676 -1.5736
27545SOL     OW85266   6.307   0.189   7.329  0.6061  0.2590  0.1228
27545SOL    HW185267   6.358   0.211   7.408  3.0033  0.1988 -1.2978
27545SOL    HW285268   6.307   0.270   7.278 -1.4043  0.4599  0.3669
27546SOL     OW85269   0.701   6.791   6.903 -0.8484 -0.0039 -0.2776
27546SOL    HW185270   0.625   6.845   6.925 -0.3557  0.6913 -0.2164
27546SOL    HW285271   0.776   6.843   6.933 -0.3333 -0.5053 -0.6738
27547SOL     OW85272   3.398   9.463  10.021 -0.2287 -0.1617  0.0950
27547SOL    HW185273   3.410   9.558  10.019  0.0284 -0.1845 -2.2168
27547SOL    HW285274   3.331   9.446   9.955  0.9206 -1.7209 -0.7347
27548SOL     OW85275   8.309   5.541   1.616 -0.0892  0.0767 -0.2302
27548SOL    HW185276   8.352   5.564   1.698 -0.5683  1.0263 -0.2298
27548SOL    HW285277   8.337   5.452   1.598  1.2603  0.3981  0.1657
27549SOL     OW85278   2.802   8.487   9.045 -0.0731 -0.6690  0.0189
27549SOL    HW185279   2.888   8.459   9.014 -0.2367 -0.6857 -0.4265
27549SOL    HW285280   2.821   8.551   9.113  0.2903 -0.5054 -0.2318
27550SOL     OW85281   6.831   7.654   7.075  0.3945  0.3688  0.6063
27550SOL    HW185282   6.760   7.711   7.045  0.6817 -0.6648 -2.3245
27550SOL    HW285283   6.894   7.714   7.115  0.0668  1.9782 -1.1233
27551SOL     OW85284   4.443   0.250   3.815  0.0637  0.2540  0.0433
27551SOL    HW185285   4.385   0.215   3.882 -1.1970  0.3011 -0.9934
27551SOL    HW285286   4.453   0.179   3.752  1.2451  0.2082  0.2594
27552SOL     OW85287   7.054   2.003   7.242  0.4121 -0.2385 -0.2330
27552SOL    HW185288   7.007   1.933   7.288  0.0937 -0.3386 -0.6905
27552SOL    HW285289   6.985   2.053   7.199  0.7486 -0.8876 -1.6113
27553SOL     OW85290   0.712   7.192   4.368  0.0387 -0.1822  0.4746
27553SOL    HW185291   0.676   7.176   4.281 -1.4575 -1.7904  1.3058
27553SOL    HW285292   0.679   7.279   4.393  0.7559  0.4316 -0.6520
27554SOL     OW85293   4.423   3.620   0.566  0.4042 -0.0298  0.3275
27554SOL    HW185294   4.486   3.626   0.494  1.6025 -0.0667  1.3515
27554SOL    HW285295   4.337   3.624   0.522  1.0841 -0.5506 -1.1464
27555SOL     OW85296  10.253   8.141   5.573  0.0978  0.5439 -0.5141
27555SOL    HW185297  10.166   8.146   5.613 -0.1244  2.5318 -1.1362
27555SOL    HW285298  10.235   8.131   5.479  0.5973 -0.9149 -0.4896
27556SOL     OW85299   1.403   9.109   7.545  0.2342 -0.0620  0.3667
27556SOL    HW185300   1.323   9.151   7.578  0.4241  0.6060 -0.0082
27556SOL    HW285301   1.443   9.071   7.623 -2.3048 -3.7317  0.1361
27557SOL     OW85302   3.228   7.109   0.129  0.1126  0.5520  0.5688
27557SOL    HW185303   3.268   7.166   0.195  1.1277  0.1630  0.2985
27557SOL    HW285304   3.300   7.083   0.072 -0.5905  0.1256 -0.1462
27558SOL     OW85305   8.958   5.581   6.066 -0.1640  0.2388  0.6392
27558SOL    HW185306   8.888   5.546   6.122 -0.8509  1.1207  0.3520
27558SOL    HW285307   8.970   5.671   6.096 -1.2566  1.0878 -1.2480
27559SOL     OW85308   2.880   3.262   7.702  0.4414  0.0556  0.3504
27559SOL    HW185309   2.870   3.281   7.795 -0.2404 -0.8721  0.4874
27559SOL    HW285310   2.826   3.184   7.688  4.9619 -3.5439  0.4091
27560SOL     OW85311   7.753   1.863   5.555  0.3347  0.3509 -0.0874
27560SOL    HW185312   7.773   1.776   5.590  0.8556  0.6434  0.3491
27560SOL    HW285313   7.768   1.854   5.461  3.5845  0.7997  0.2963
27561SOL     OW85314   0.987   0.366   1.564  0.2873 -0.1180 -0.4603
27561SOL    HW185315   1.051   0.418   1.516  0.3974  1.2109  1.0389
27561SOL    HW285316   1.038   0.322   1.632 -0.1178 -0.6070 -0.4657
27562SOL     OW85317   0.316   7.020   8.769 -0.1054  0.8704 -0.1552
27562SOL    HW185318   0.273   7.106   8.771  0.8841  1.4385 -1.5808
27562SOL    HW285319   0.397   7.035   8.719  0.6836 -0.6361  0.6073
27563SOL     OW85320   9.740   5.496   7.213  0.1858 -0.3098  0.5374
27563SOL    HW185321   9.647   5.478   7.227  0.2103 -1.4566 -0.5581
27563SOL    HW285322   9.785   5.434   7.271  0.2702 -0.2525  0.5334
27564SOL     OW85323   1.057   3.332   7.557  0.1852  0.4129 -0.2179
27564SOL    HW185324   1.137   3.332   7.610  0.0340  0.7525  0.0154
27564SOL    HW285325   1.065   3.255   7.501  0.9643  0.7813 -0.6252
27565SOL     OW85326   4.331   1.373   8.968  0.1247 -1.0519  0.0901
27565SOL    HW185327   4.300   1.288   9.000  0.3111 -0.5376  1.7220
27565SOL    HW285328   4.394   1.351   8.899 -1.0827 -2.1789 -0.7154
27566SOL     OW85329   6.242   6.624   2.280 -0.2153  0.3712 -0.0054
27566SOL    HW185330   6.193   6.704   2.262 -0.0557  0.2550 -1.0063
27566SOL    HW285331   6.270   6.634   2.371  1.2604  2.2581 -0.5946
27567SOL     OW85332   3.247   8.728   9.628 -0.4584 -0.5561  0.3362
27567SOL    HW185333   3.327   8.682   9.600  0.6867  1.8109 -0.6009
27567SOL    HW285334   3.277   8.787   9.697 -2.1272 -1.9792  2.4130
27568SOL     OW85335   8.375   5.994   7.729 -0.6439  0.2056 -0.8111
27568SOL    HW185336   8.280   5.996   7.740 -0.5298  1.1173  0.2252
27568SOL    HW285337   8.408   5.957   7.811 -0.0580  1.0138 -0.6634
27569SOL     OW85338   7.184   0.094   5.743  0.5144 -0.6322  0.0341
27569SOL    HW185339   7.267   0.141   5.743 -0.3205  0.9482  1.2253
27569SOL    HW285340   7.144   0.114   5.659  0.4954  0.2273  0.2390
27570SOL     OW85341   1.973   6.103   8.767 -0.5185 -0.3605  0.7498
27570SOL    HW185342   1.890   6.058   8.754 -0.7051 -0.3606  1.8476
27570SOL    HW285343   2.038   6.046   8.725 -1.1265 -0.0285 -0.7075
27571SOL     OW85344   2.519   1.317   4.520  0.1385 -0.3333 -0.5489
27571SOL    HW185345   2.606   1.347   4.492 -0.3562  1.0853 -0.6503
27571SOL    HW285346   2.511   1.350   4.610  0.4623 -2.1520  0.1865
27572SOL     OW85347   6.664   0.595   6.593  0.6067  0.3330  0.0980
27572SOL    HW185348   6.676   0.562   6.682  1.6827  0.3044 -0.0413
27572SOL    HW285349   6.742   0.648   6.577 -0.7323  2.3913  0.0594
27573SOL     OW85350   6.100   2.955   8.793  0.4494  0.2133 -0.0656
27573SOL    HW185351   6.170   2.905   8.834  0.1246  0.5797  0.9658
27573SOL    HW285352   6.137   2.985   8.710  1.8968  1.3135  0.9336
27574SOL     OW85353   0.825   7.918   1.837  0.1051 -0.2144  0.3516
27574SOL    HW185354   0.739   7.878   1.830  0.7160 -1.8563  1.5189
27574SOL    HW285355   0.838   7.963   1.754 -1.6964 -0.2621  0.0134
27575SOL     OW85356   0.828   9.968   4.245 -0.6070 -0.5388 -0.4989
27575SOL    HW185357   0.743   9.948   4.206 -0.9726 -1.2067  0.6065
27575SOL    HW285358   0.832   9.913   4.324  0.3909  0.2666  0.0331
27576SOL     OW85359   9.835   0.421   4.786 -0.3081 -0.3961  0.3101
27576SOL    HW185360   9.837   0.517   4.780 -3.5479 -0.2377 -0.4032
27576SOL    HW285361   9.900   0.399   4.852 -0.3772  2.4323  1.4468
27577SOL     OW85362   4.596   0.559   4.725 -0.1404 -0.9664 -0.2386
27577SOL    HW185363   4.636   0.646   4.720 -0.9341 -0.6530 -1.4271
27577SOL    HW285364   4.671   0.499   4.731  0.4177 -0.2381  0.3059
27578SOL     OW85365   0.586   8.745   6.424 -0.1908 -0.2642  0.1173
27578SOL    HW185366   0.496   8.716   6.439 -0.7554  1.5188  0.3986
27578SOL    HW285367   0.595   8.824   6.478  2.2090 -1.5064  1.7268
27579SOL     OW85368   7.233   1.645   9.593 -0.0897  0.0672 -0.5117
27579SOL    HW185369   7.251   1.603   9.508  0.7248 -1.8466  0.5378
27579SOL    HW285370   7.190   1.727   9.570  1.3638  0.2979 -2.8521
27580SOL     OW85371   2.986   7.714   9.359 -0.1288 -0.5265  0.2766
27580SOL    HW185372   3.005   7.788   9.301 -0.4492  0.1461  1.0037
27580SOL    HW285373   3.034   7.641   9.322  2.5408  0.6837  1.0943
27581SOL     OW85374   8.977  10.025   3.547  0.3134 -0.3345 -0.3726
27581SOL    HW185375   8.910  10.088   3.521  0.8406  0.2414 -0.3453
27581SOL    HW285376   8.930   9.961   3.602 -0.1754  0.1469 -0.2241
27582SOL     OW85377   4.851   3.422   0.872  0.1745  0.5515 -0.5354
27582SOL    HW185378   4.833   3.345   0.926  0.2502  1.4531  0.8198
27582SOL    HW285379   4.766   3.464   0.861  0.5702  2.1746  1.7769
27583SOL     OW85380   8.332   6.267   1.543 -0.1840  0.7790 -0.0916
27583SOL    HW185381   8.270   6.282   1.615 -0.2041 -1.2506  0.3722
27583SOL    HW285382   8.386   6.194   1.573  1.7663  1.7954 -0.9369
27584SOL     OW85383   3.472   9.730   3.527 -0.2180  0.4404  0.1940
27584SOL    HW185384   3.564   9.725   3.553 -0.3855  0.4182  0.8065
27584SOL    HW285385   3.460   9.821   3.501 -0.0724  0.4982  0.3246
27585SOL     OW85386   0.546   7.153   0.060 -0.3094  0.2708 -0.2405
27585SOL    HW185387   0.632   7.123   0.031 -0.3967 -0.5658  0.3381
27585SOL    HW285388   0.537   7.241   0.022  0.0814 -0.2982 -1.7316
27586SOL     OW85389   7.031   4.649   8.768 -0.3530  0.2872  0.3799
27586SOL    HW185390   7.096   4.596   8.813 -0.6217 -0.5422 -0.1705
27586SOL    HW285391   6.973   4.680   8.837  1.3979  2.2410  1.0679
27587SOL     OW85392   4.948   0.941   6.563 -0.3026 -0.0791 -0.1067
27587SOL    HW185393   4.904   0.862   6.595 -3.3315  1.4527 -0.0830
27587SOL    HW285394   4.986   0.981   6.641 -1.3972 -0.0246  0.4269
27588SOL     OW85395   2.796   3.397   6.721  0.1044 -0.1250  0.2884
27588SOL    HW185396   2.719   3.406   6.777  0.2279  1.1084  0.2797
27588SOL    HW285397   2.858   3.462   6.754  0.5622 -0.0575 -0.6529
27589SOL     OW85398   1.794   5.680   0.794 -0.1416  0.1343  0.2104
27589SOL    HW185399   1.858   5.738   0.837 -0.6945 -0.6967  2.2500
27589SOL    HW285400   1.720   5.737   0.773 -1.2260  0.0650  3.3556
27590SOL     OW85401   2.903   3.510   6.402  0.3821  0.0848 -0.2779
27590SOL    HW185402   2.967   3.500   6.331  1.0442 -0.8726  0.4182
27590SOL    HW285403   2.954   3.546   6.475 -0.2450  0.8572 -0.2118
27591SOL     OW85404   8.551   4.819   9.433  0.9215 -0.8275 -0.0503
27591SOL    HW185405   8.552   4.913   9.452 -0.2206 -0.3864 -1.9558
27591SOL    HW285406   8.560   4.777   9.519  1.3373  1.0038  0.8456
27592SOL     OW85407   3.674   5.307   3.871  0.0759 -0.0726  0.2856
27592SOL    HW185408   3.625   5.318   3.953 -2.1245 -0.6269 -0.8641
27592SOL    HW285409   3.720   5.389   3.859 -0.9282  0.6603  1.2681
27593SOL     OW85410   7.960   1.404   1.138 -0.3290 -0.2254 -0.3384
27593SOL    HW185411   7.982   1.466   1.208 -2.6718  2.5997 -1.8666
27593SOL    HW285412   7.886   1.354   1.174 -0.3928 -0.0288 -0.1937
27594SOL     OW85413  10.137   6.548   2.450 -0.2654  0.1913  0.0861
27594SOL    HW185414  10.135   6.636   2.488 -0.9004 -0.5284  1.8350
27594SOL    HW285415  10.227   6.539   2.418 -0.0620  1.3141  0.2753
27595SOL     OW85416   3.264   1.176   8.407  0.6139 -0.5015 -0.4011
27595SOL    HW185417   3.184   1.128   8.427 -1.5183  2.9884  0.2532
27595SOL    HW285418   3.298   1.205   8.492  1.9519 -0.9457 -0.7514
27596SOL     OW85419   7.966   2.235   0.755 -0.3403 -0.4700  0.1879
27596SOL    HW185420   7.935   2.145   0.757 -0.4289 -0.4647 -0.6042
27596SOL    HW285421   8.044   2.235   0.810  0.1824 -1.2360 -0.5229
27597SOL     OW85422   4.557   9.194   1.879  0.0588  0.0716  0.4170
27597SOL    HW185423   4.528   9.104   1.893 -1.5912  0.6749  1.1259
27597SOL    HW285424   4.594   9.194   1.791 -0.9675 -1.0618 -0.0412
27598SOL     OW85425   7.279   3.551   8.397 -0.2365 -0.1631 -0.1073
27598SOL    HW185426   7.303   3.561   8.305 -0.9696  3.3945 -0.0870
27598SOL    HW285427   7.356   3.580   8.446  0.0690 -1.8102  0.4252
27599SOL     OW85428   4.186   1.760   5.388 -0.1460 -0.9595  0.5175
27599SOL    HW185429   4.191   1.838   5.333 -0.7423  0.1688  1.9772
27599SOL    HW285430   4.120   1.782   5.454  0.6478 -2.1770  1.7764
27600SOL     OW85431   6.216  10.283   3.105 -0.2519 -0.1810 -0.1639
27600SOL    HW185432   6.137  10.283   3.052 -0.1084 -0.3705 -0.3808
27600SOL    HW285433   6.217  10.369   3.148 -0.6780 -0.2586 -0.0012
27601SOL     OW85434   3.664   5.677  10.207  0.4370  0.2726  0.1400
27601SOL    HW185435   3.756   5.692  10.226  0.9733 -1.2915 -0.9845
27601SOL    HW285436   3.664   5.617  10.132 -1.4990  0.5596 -0.1574
27602SOL     OW85437   0.828   3.413   0.376 -0.4829  0.2270 -0.7413
27602SOL    HW185438   0.755   3.445   0.429  0.5792 -0.0454  0.9538
27602SOL    HW285439   0.843   3.483   0.312 -2.8042 -0.1225 -1.7994
27603SOL     OW85440   3.514   4.675   5.512  0.4368 -0.1162 -0.1090
27603SOL    HW185441   3.578   4.746   5.517 -0.5032  0.7777 -0.5394
27603SOL    HW285442   3.480   4.668   5.601  0.9262 -0.4200  0.0623
27604SOL     OW85443   8.740   4.179   6.142  0.3633 -0.0600 -0.3704
27604SOL    HW185444   8.714   4.161   6.232  1.0853  0.9041  0.0558
27604SOL    HW285445   8.661   4.211   6.099  0.3881  1.1068  0.4061
27605SOL     OW85446   2.583   2.680   6.786 -0.7814  0.4303  0.0285
27605SOL    HW185447   2.676   2.674   6.807 -0.3278  0.4781 -1.7883
27605SOL    HW285448   2.538   2.648   6.864  0.6817  2.0914  1.6214
27606SOL     OW85449   6.194   8.345   2.989  0.1371  0.0118  0.3507
27606SOL    HW185450   6.213   8.373   3.078  2.3001  3.2274 -0.9477
27606SOL    HW285451   6.168   8.425   2.943 -2.0178 -1.7232 -1.7152
27607SOL     OW85452   8.998   3.113   5.676  0.2950  0.1189 -0.0368
27607SOL    HW185453   8.940   3.143   5.745  1.0971 -1.2892  1.3054
27607SOL    HW285454   9.039   3.193   5.643 -2.4521  1.1847 -1.1749
27608SOL     OW85455   8.761   4.179   0.566 -0.0218 -0.6427 -0.0160
27608SOL    HW185456   8.842   4.128   0.557  0.6449  0.4564 -0.5039
27608SOL    HW285457   8.786   4.253   0.622  0.0137  1.0774 -2.1824
27609SOL     OW85458   0.209   5.019   3.044 -0.0221  0.1605 -0.1631
27609SOL    HW185459   0.147   5.067   3.098 -0.8534 -0.4063 -0.5750
27609SOL    HW285460   0.167   5.015   2.958  0.7445  0.0461 -0.5405
27610SOL     OW85461   5.862   9.118   4.810  0.1710 -0.0862  0.3501
27610SOL    HW185462   5.909   9.037   4.790  1.0867  0.9138 -1.7487
27610SOL    HW285463   5.913   9.158   4.881 -0.1697 -1.2052  1.2585
27611SOL     OW85464   7.517   1.282   4.152  0.0262  0.0511  0.1447
27611SOL    HW185465   7.456   1.221   4.194 -0.3154  0.9229  0.9319
27611SOL    HW285466   7.575   1.225   4.101  0.0348 -0.9907  1.2641
27612SOL     OW85467   9.630   9.758   9.758 -0.2732  0.2038  0.1655
27612SOL    HW185468   9.692   9.779   9.688 -1.6911  0.8160 -0.9713
27612SOL    HW285469   9.544   9.760   9.715 -0.9556 -2.9592  1.0938
27613SOL     OW85470   1.325   6.233   5.403 -0.4189 -0.2514 -0.0182
27613SOL    HW185471   1.330   6.328   5.401 -0.8598 -0.2197 -2.0163
27613SOL    HW285472   1.416   6.204   5.399 -0.1674  0.0236  2.3174
27614SOL     OW85473   6.940   0.224   6.929  0.4714  0.2148  0.1246
27614SOL    HW185474   6.862   0.198   6.881  0.5796 -0.0058  0.0674
27614SOL    HW285475   6.991   0.144   6.938 -0.3044 -0.1108  2.0482
27615SOL     OW85476   6.054   5.144   4.523 -0.2657  0.2413  0.1297
27615SOL    HW185477   5.992   5.136   4.450 -0.8351 -1.6985  0.7613
27615SOL    HW285478   6.137   5.114   4.487 -0.4203 -0.1798  0.1172
27616SOL     OW85479   6.172   6.559   7.657 -0.0629 -0.1550  0.1032
27616SOL    HW185480   6.144   6.650   7.649 -1.0231 -0.3783  0.7415
27616SOL    HW285481   6.091   6.508   7.652  0.1950 -0.8263  1.9092
27617SOL     OW85482   9.150   6.498   8.740 -0.4479  0.2376  0.2333
27617SOL    HW185483   9.189   6.547   8.667  1.8248 -1.8903 -0.1213
27617SOL    HW285484   9.109   6.422   8.699 -0.8904  0.0331  1.0337
27618SOL     OW85485   8.575   5.972   9.600 -0.2477  0.0752  0.2171
27618SOL    HW185486   8.593   5.887   9.640  0.2333  0.0655 -0.0066
27618SOL    HW285487   8.506   5.954   9.536 -0.4681 -0.0578  0.4914
27619SOL     OW85488   2.467   7.569   4.337 -0.1599 -0.0663  0.1384
27619SOL    HW185489   2.460   7.486   4.290  0.6610 -0.1629  0.1674
27619SOL    HW285490   2.560   7.590   4.333 -0.2986  0.6297  0.5209
27620SOL     OW85491   8.173   1.188   6.364 -0.3456 -0.4039 -0.0855
27620SOL    HW185492   8.209   1.238   6.437  1.1220 -0.8895 -0.4488
27620SOL    HW285493   8.106   1.245   6.326  0.6140  0.8689  0.1007
27621SOL     OW85494   4.395   1.801   1.619 -0.2879 -0.2058 -0.4748
27621SOL    HW185495   4.329   1.864   1.590  0.5996  0.8386 -0.3176
27621SOL    HW285496   4.407   1.821   1.712  1.8608  1.2027 -0.9870
27622SOL     OW85497   1.136   8.884   8.746 -0.3467  0.0574  0.5855
27622SOL    HW185498   1.079   8.856   8.818  0.4638 -1.0039  0.8397
27622SOL    HW285499   1.135   8.811   8.685 -0.9877  0.9320 -0.4799
27623SOL     OW85500   4.451   0.473   1.651 -0.2880  0.3300 -0.6873
27623SOL    HW185501   4.453   0.569   1.652 -0.4426  0.3267 -0.0916
27623SOL    HW285502   4.542   0.447   1.659 -0.3650  0.4158  0.5441
27624SOL     OW85503   9.161   2.835   9.974  0.4282 -0.3314 -0.0746
27624SOL    HW185504   9.145   2.928   9.994 -1.7558 -0.6144 -0.2910
27624SOL    HW285505   9.084   2.790  10.009  0.7742 -1.8990 -1.2591
27625SOL     OW85506   6.936   0.559   0.253  0.3113 -0.4218 -0.0896
27625SOL    HW185507   6.993   0.613   0.199 -0.0936  1.1872  1.0371
27625SOL    HW285508   6.849   0.599   0.244 -0.0853 -1.1324  0.4469
27626SOL     OW85509   8.314   3.832   0.820  0.0941  0.8084  0.2634
27626SOL    HW185510   8.228   3.871   0.837  0.5481  2.1183 -0.3043
27626SOL    HW285511   8.369   3.865   0.891  0.3074  0.5900  0.1996
27627SOL     OW85512   8.479   3.910   2.111  0.0380  0.4368 -0.1234
27627SOL    HW185513   8.563   3.873   2.083  1.0318  1.5805  1.1967
27627SOL    HW285514   8.470   3.884   2.203 -1.4236 -0.2706 -0.4374
27628SOL     OW85515   0.202   4.677   3.549  0.1887 -0.0181  0.2696
27628SOL    HW185516   0.107   4.674   3.558 -0.2558  1.3726 -2.7985
27628SOL    HW285517   0.229   4.745   3.612 -1.2156  1.4644 -0.6398
27629SOL     OW85518   3.078   8.772   4.696  0.3191 -0.1825  0.5099
27629SOL    HW185519   3.171   8.775   4.716  0.8605 -1.0737 -1.6732
27629SOL    HW285520   3.054   8.680   4.710  0.1504 -0.2917 -0.4719
27630SOL     OW85521   1.705   6.649   1.163 -0.4205  0.4882  0.5053
27630SOL    HW185522   1.685   6.585   1.095 -1.8979 -0.3793  1.6844
27630SOL    HW285523   1.638   6.717   1.153 -0.1329  0.7876  0.5822
27631SOL     OW85524   0.210   2.061   0.596  0.8537  0.1455 -0.6619
27631SOL    HW185525   0.283   2.059   0.535 -0.0861  1.0872 -1.8737
27631SOL    HW285526   0.152   2.129   0.563 -0.5193 -0.4694  0.3318
27632SOL     OW85527   1.954   7.851   1.323  0.4349 -0.0124 -0.0305
27632SOL    HW185528   1.899   7.829   1.248  0.9414 -0.1790 -0.3660
27632SOL    HW285529   1.931   7.941   1.345 -0.6822 -0.4038  0.4752
27633SOL     OW85530   6.145   4.037   6.865  0.7326  0.6708  0.1758
27633SOL    HW185531   6.082   4.010   6.932 -0.3549 -0.8221 -1.3652
27633SOL    HW285532   6.154   4.131   6.878 -1.8452  0.9676  0.4913
27634SOL     OW85533   7.971   2.775   8.518  0.1208  0.0896  0.6002
27634SOL    HW185534   8.061   2.765   8.549  1.0963 -0.0973 -1.9853
27634SOL    HW285535   7.979   2.829   8.439 -1.9518 -0.4509 -0.0466
27635SOL     OW85536   6.790   5.564   1.678  0.4551 -0.0727  0.5118
27635SOL    HW185537   6.856   5.513   1.631 -0.2401  0.9735 -1.7620
27635SOL    HW285538   6.732   5.498   1.716 -0.4759 -1.0870 -2.3972
27636SOL     OW85539   6.687   0.069   9.051 -0.6007 -0.0728  0.2429
27636SOL    HW185540   6.694   0.156   9.013  1.9750 -0.4599 -0.3580
27636SOL    HW285541   6.765   0.060   9.107 -1.3972 -1.5743  1.1994
27637SOL     OW85542   8.927   7.513   1.681 -0.0438  0.1559  0.6816
27637SOL    HW185543   8.832   7.506   1.676  0.0706 -1.8750  0.3141
27637SOL    HW285544   8.949   7.590   1.629 -1.4763  0.7335  0.8916
27638SOL     OW85545   6.792   6.051   4.671 -0.2650 -0.5502  0.2781
27638SOL    HW185546   6.815   6.071   4.581  0.6721  2.3711  1.0499
27638SOL    HW285547   6.703   6.085   4.682 -0.3487 -0.8263  0.4636
27639SOL     OW85548  10.252   9.716   3.729 -0.3512  0.1776  0.0931
27639SOL    HW185549  10.298   9.632   3.733  3.0454  1.7418 -1.7353
27639SOL    HW285550  10.242   9.742   3.820  2.9666 -0.1037  0.6505
27640SOL     OW85551   8.819   7.943   8.441 -0.2720  0.0047 -0.0367
27640SOL    HW185552   8.885   7.985   8.496 -0.6073  1.2520 -0.5512
27640SOL    HW285553   8.776   7.881   8.499 -0.3855  1.0473  1.0222
27641SOL     OW85554   5.227   7.584   0.982  0.2798  0.1077  0.5254
27641SOL    HW185555   5.182   7.646   1.040  0.4330  0.6932  0.0170
27641SOL    HW285556   5.267   7.521   1.042 -0.3724  0.1533  1.0235
27642SOL     OW85557   4.527   6.384   2.448  0.2418  0.3670  0.3661
27642SOL    HW185558   4.620   6.405   2.459  0.2586 -0.7069  3.0491
27642SOL    HW285559   4.493   6.377   2.537 -2.5510  1.1492 -0.5340
27643SOL     OW85560   3.991   8.878   3.180  0.1364 -0.1928 -0.0103
27643SOL    HW185561   4.027   8.835   3.103 -1.5250  0.9868 -1.5164
27643SOL    HW285562   3.934   8.813   3.221  0.4426 -0.5749 -0.1851
27644SOL     OW85563   0.910   9.855   9.338 -0.1993  0.1573 -0.0267
27644SOL    HW185564   0.902   9.766   9.304  0.9444 -0.8994  2.2431
27644SOL    HW285565   0.857   9.854   9.418  0.6747  1.1735  0.5897
27645SOL     OW85566   3.030   5.867   6.483  0.0449 -0.2216  0.0875
27645SOL    HW185567   2.988   5.786   6.454  1.7230 -0.5652 -1.5726
27645SOL    HW285568   3.000   5.933   6.420 -0.4210  0.2114  0.7556
27646SOL     OW85569   6.319   5.565   6.400  0.1487  0.0287 -0.7753
27646SOL    HW185570   6.327   5.471   6.388 -0.9379 -0.0003 -1.3792
27646SOL    HW285571   6.236   5.588   6.358 -1.1465  0.7652  1.9425
27647SOL     OW85572   7.065   5.192   6.097  0.2372  0.0498  0.5047
27647SOL    HW185573   7.136   5.128   6.093  1.2026  1.1198 -0.2175
27647SOL    HW285574   7.098   5.268   6.048 -1.4585  0.5303  0.0270
27648SOL     OW85575   7.752   5.345   3.030 -0.1758 -0.0940 -0.1945
27648SOL    HW185576   7.768   5.259   3.068 -0.6558  0.0158  0.2695
27648SOL    HW285577   7.737   5.329   2.937  1.7307 -0.2968 -0.5124
27649SOL     OW85578   1.696   7.842   9.573 -0.1576 -0.0685 -0.4134
27649SOL    HW185579   1.694   7.858   9.479 -0.7850 -1.7368 -0.7118
27649SOL    HW285580   1.781   7.800   9.588  0.1778  0.6870 -0.1266
27650SOL     OW85581   5.308   1.209   7.919  0.4425  0.1008 -0.6204
27650SOL    HW185582   5.238   1.154   7.954  1.0878 -0.3616  0.0094
27650SOL    HW285583   5.265   1.269   7.858 -0.3506 -0.8179 -0.9898
27651SOL     OW85584   2.891   8.959   6.453  0.0246 -0.2534 -0.2177
27651SOL    HW185585   2.975   8.983   6.414  0.2261  1.1678  1.0070
27651SOL    HW285586   2.913   8.899   6.523  0.2992  1.7844  1.5273
27652SOL     OW85587   6.134   0.197   5.727 -0.5747 -0.9703 -0.0654
27652SOL    HW185588   6.147   0.153   5.811  1.7556 -1.1928 -0.4659
27652SOL    HW285589   6.107   0.286   5.750 -0.2206 -1.1065  0.9178
27653SOL     OW85590   7.808   5.935   9.842 -0.2553 -0.2545 -0.2499
27653SOL    HW185591   7.803   5.854   9.792  0.7996  0.2980 -1.2837
27653SOL    HW285592   7.811   6.004   9.777 -1.4171  0.6659  0.6221
27654SOL     OW85593   5.561   6.521   6.510  0.3192  0.0017 -0.3210
27654SOL    HW185594   5.570   6.537   6.604 -0.0740 -1.1880 -0.0634
27654SOL    HW285595   5.473   6.486   6.500  0.7842 -1.0475 -0.9558
27655SOL     OW85596   7.821   5.045   0.991 -0.2134  0.0718 -0.3934
27655SOL    HW185597   7.889   5.028   1.056 -0.5819 -1.3941 -0.3384
27655SOL    HW285598   7.863   5.027   0.907  0.0723  1.3025 -0.5220
27656SOL     OW85599   8.560   9.516   6.615  0.4628 -0.0888  0.5757
27656SOL    HW185600   8.565   9.587   6.550 -2.5069 -0.3544 -0.0950
27656SOL    HW285601   8.580   9.559   6.698  0.6000  1.1233 -0.0535
27657SOL     OW85602   1.723   0.304   0.793 -0.2989  0.1363 -0.2410
27657SOL    HW185603   1.635   0.327   0.822 -0.2318  0.0669  0.0175
27657SOL    HW285604   1.765   0.267   0.871  0.7301  2.2706  0.2889
27658SOL     OW85605   1.350   2.534  10.208  0.0596  0.1334  0.4535
27658SOL    HW185606   1.275   2.569  10.160  0.3763  0.7506  0.4039
27658SOL    HW285607   1.420   2.599  10.195  0.2854  0.0812  1.3654
27659SOL     OW85608   6.501   0.381   6.517  0.0205  0.3319  0.4743
27659SOL    HW185609   6.549   0.456   6.552  0.7613 -0.2853  0.8021
27659SOL    HW285610   6.558   0.346   6.448  0.0452 -0.3958  0.8522
27660SOL     OW85611   7.188   0.934   8.037  0.0894  0.0023 -0.0325
27660SOL    HW185612   7.126   1.006   8.050  1.8073  1.3811  0.8017
27660SOL    HW285613   7.270   0.976   8.014  1.1880 -1.6994  0.5723
27661SOL     OW85614   1.060   6.562   6.429 -0.0845 -0.5846 -0.5157
27661SOL    HW185615   1.096   6.534   6.514 -0.1560  0.4985 -0.1154
27661SOL    HW285616   1.047   6.480   6.381 -2.3740 -1.4794  1.4200
27662SOL     OW85617   5.139   2.275   6.546  0.1843 -0.0408 -0.5562
27662SOL    HW185618   5.083   2.282   6.468 -1.9885 -2.0521  0.6827
27662SOL    HW285619   5.190   2.195   6.532 -0.5319 -0.6494  0.2455
27663SOL     OW85620   8.860   0.209   5.177 -0.0582 -0.0257  0.1660
27663SOL    HW185621   8.787   0.232   5.120  0.6373 -0.5804 -0.9952
27663SOL    HW285622   8.898   0.131   5.136  1.3230  0.3981  0.5924
27664SOL     OW85623   3.312   9.582   1.486 -0.4787 -0.8448  0.2633
27664SOL    HW185624   3.320   9.495   1.447 -2.0075 -0.4612 -1.0625
27664SOL    HW285625   3.356   9.640   1.424  2.5247 -0.8239  2.2190
27665SOL     OW85626   7.326   7.403   3.447  0.0857  0.5031 -0.2047
27665SOL    HW185627   7.257   7.470   3.443  0.5975  0.9930 -1.4739
27665SOL    HW285628   7.358   7.397   3.357  2.3402  0.9753  0.5084
27666SOL     OW85629   6.790   6.492  10.054 -0.5982 -0.0330 -0.2614
27666SOL    HW185630   6.833   6.560  10.002  0.1256 -0.4464 -0.2246
27666SOL    HW285631   6.793   6.524  10.144  0.2442 -0.3506 -0.1656
27667SOL     OW85632   7.136   9.106   5.445 -0.7720 -0.2740  0.0478
27667SOL    HW185633   7.170   9.179   5.496 -1.4209  0.8254 -1.0105
27667SOL    HW285634   7.197   9.034   5.461  0.5159  0.8237  0.2740
27668SOL     OW85635   4.785   6.704   7.738  0.3114  0.2239  0.1104
27668SOL    HW185636   4.743   6.691   7.654  0.0111 -2.1083  0.5559
27668SOL    HW285637   4.879   6.711   7.717  0.0939  1.5379 -0.5330
27669SOL     OW85638   8.734   4.417   5.726  0.0634  0.4250 -0.1887
27669SOL    HW185639   8.734   4.393   5.819 -0.1292 -0.3402 -0.3766
27669SOL    HW285640   8.791   4.351   5.685 -1.4452 -0.4726 -0.9032
27670SOL     OW85641   2.561   2.122   2.218  0.2783  0.7354 -0.0869
27670SOL    HW185642   2.621   2.145   2.147 -1.1460  1.7346 -1.0194
27670SOL    HW285643   2.618   2.102   2.292  1.7717  0.9765 -1.1321
27671SOL     OW85644   4.869   3.850   2.387  0.1014  0.3669 -0.2925
27671SOL    HW185645   4.805   3.913   2.354  0.9753  0.9682 -0.8921
27671SOL    HW285646   4.883   3.789   2.314  0.8987  0.7992 -0.5211
27672SOL     OW85647   5.816   1.662   6.902 -0.2822  0.0227 -0.4397
27672SOL    HW185648   5.789   1.623   6.985  1.3094  0.5724  0.3855
27672SOL    HW285649   5.894   1.612   6.876  0.6938  1.4232 -0.3122
27673SOL     OW85650   8.955   0.936   4.257  0.4183 -0.1065 -1.0005
27673SOL    HW185651   8.907   0.902   4.182  1.5943  2.6025 -3.1794
27673SOL    HW285652   8.909   1.017   4.280  0.8843 -0.1974  0.3762
27674SOL     OW85653   3.151   5.190   3.226  0.2638  0.7321  0.0644
27674SOL    HW185654   3.146   5.204   3.321 -2.0844 -0.6388  0.2261
27674SOL    HW285655   3.208   5.114   3.216  2.4297  2.2543  0.1273
27675SOL     OW85656   9.679   2.340   4.297 -0.0149 -0.6756  0.0464
27675SOL    HW185657   9.760   2.304   4.333  0.2106 -0.0741  0.1375
27675SOL    HW285658   9.697   2.352   4.204  0.0487 -0.4046  0.0940
27676SOL     OW85659  10.230   0.898   6.064  0.7995 -0.5771 -0.1690
27676SOL    HW185660  10.268   0.980   6.032 -2.7646  0.6521 -1.7606
27676SOL    HW285661  10.265   0.889   6.153  1.9945  2.2496 -0.2477
27677SOL     OW85662   0.682   4.607   0.692  0.2302 -0.4924  0.3611
27677SOL    HW185663   0.623   4.533   0.699  0.3922 -0.9273 -2.1951
27677SOL    HW285664   0.679   4.632   0.600  1.7167  1.4132  0.7680
27678SOL     OW85665   0.463   6.857   5.723 -0.2812  0.1039 -0.5194
27678SOL    HW185666   0.395   6.924   5.736  0.3868  0.7491 -0.2709
27678SOL    HW285667   0.523   6.869   5.797 -0.9527 -1.7942  0.3800
27679SOL     OW85668   4.029   3.067   9.756  0.2050 -0.4384 -0.2271
27679SOL    HW185669   3.952   3.096   9.707  1.1444 -0.1688 -1.5956
27679SOL    HW285670   4.017   3.103   9.843 -1.0753 -0.1589 -0.4982
27680SOL     OW85671   6.760   3.626   6.964  0.1022 -0.2302 -0.0257
27680SOL    HW185672   6.801   3.687   6.903  0.1676 -0.1685  0.0805
27680SOL    HW285673   6.793   3.652   7.050  1.0089 -1.1134 -0.0883
27681SOL     OW85674   6.119   3.284   7.568 -0.0238  0.1342 -0.6010
27681SOL    HW185675   6.068   3.276   7.648 -1.7330  1.0723 -1.5324
27681SOL    HW285676   6.060   3.257   7.498  1.3021 -0.3138 -1.6022
27682SOL     OW85677   5.555   6.433   4.041  0.1453 -0.1165  0.0383
27682SOL    HW185678   5.465   6.410   4.062 -0.5700  0.8927 -1.6600
27682SOL    HW285679   5.574   6.511   4.093 -0.0753 -0.1244  0.1278
27683SOL     OW85680   4.505   8.702   7.091 -0.8368 -0.1044  0.1386
27683SOL    HW185681   4.451   8.710   7.012  0.2436 -1.4107 -0.7677
27683SOL    HW285682   4.444   8.671   7.158 -1.4676 -0.3811 -0.5433
27684SOL     OW85683  10.248   8.307   8.653  0.1321  0.4446  1.1350
27684SOL    HW185684  10.288   8.368   8.714 -0.1186 -0.5482  2.3317
27684SOL    HW285685  10.261   8.221   8.693  1.1338 -0.3948 -0.8560
27685SOL     OW85686   3.764   6.625   7.967  0.2189  0.0656 -0.2658
27685SOL    HW185687   3.692   6.649   7.909 -0.8943 -1.5014  0.4245
27685SOL    HW285688   3.741   6.539   8.001  2.0321 -0.1242  0.6146
27686SOL     OW85689   9.677   6.697   6.873  0.2044  0.2266  0.7475
27686SOL    HW185690   9.622   6.770   6.846 -1.1414 -1.1676 -0.5264
27686SOL    HW285691   9.628   6.654   6.943 -1.8166 -2.5163 -2.0603
27687SOL     OW85692   6.715   0.266   4.144 -0.2947  0.0041 -0.1067
27687SOL    HW185693   6.633   0.249   4.191  0.1881 -0.6437  0.5237
27687SOL    HW285694   6.697   0.345   4.093 -1.3584 -0.2153 -0.1013
27688SOL     OW85695   1.979   7.444   5.611  0.2927 -0.1103 -0.0983
27688SOL    HW185696   2.049   7.409   5.555  0.3408  0.5745 -0.4787
27688SOL    HW285697   1.934   7.367   5.644  0.4967 -0.5370 -0.7971
27689SOL     OW85698   0.680   7.805   8.867  0.1237  0.2390  0.4437
27689SOL    HW185699   0.679   7.739   8.797  1.2277  0.3876  0.2761
27689SOL    HW285700   0.598   7.854   8.854 -1.1329 -1.5813  1.0735
27690SOL     OW85701   9.065   1.961   7.176  0.2898  0.1820 -0.4511
27690SOL    HW185702   9.088   1.994   7.263  1.6561 -1.3142 -0.2000
27690SOL    HW285703   9.110   1.877   7.170 -2.3966 -1.3241 -1.3425
27691SOL     OW85704   8.897   9.903   4.274 -0.2664  0.1033 -0.5039
27691SOL    HW185705   8.921   9.994   4.255  0.8311 -0.1327 -0.2866
27691SOL    HW285706   8.917   9.891   4.366 -4.9552  1.0330  0.9179
27692SOL     OW85707  10.115   9.002   4.167 -0.2053  0.6503  1.1288
27692SOL    HW185708  10.121   8.911   4.138  0.1535  1.3719 -1.3258
27692SOL    HW285709  10.034   9.007   4.217 -0.0751 -1.0519  1.5533
27693SOL     OW85710   7.085   8.820   6.767 -0.0177 -0.0221 -0.4656
27693SOL    HW185711   7.106   8.727   6.779  0.8500  0.0503 -1.2851
27693SOL    HW285712   7.152   8.852   6.706  0.7909  1.5509  1.1381
27694SOL     OW85713   9.021   6.745   1.711  0.0801 -0.3828 -0.1460
27694SOL    HW185714   8.934   6.776   1.735  1.0800  0.5146  2.7029
27694SOL    HW285715   9.064   6.821   1.673  0.4703 -0.0414  0.9543
27695SOL     OW85716   0.038  10.238   3.986 -0.4003 -0.8563 -0.3304
27695SOL    HW185717   0.113  10.296   3.969 -0.0120 -1.3574 -0.3524
27695SOL    HW285718   0.059  10.196   4.070 -1.4100  0.1836  0.4845
27696SOL     OW85719   9.226   6.800   8.985  0.9066 -0.0321  0.0528
27696SOL    HW185720   9.292   6.732   8.975  1.5225  0.4122  0.9179
27696SOL    HW285721   9.275   6.882   8.985  0.0029  0.6109 -2.9354
27697SOL     OW85722   0.398   7.465   1.331 -0.0344  0.0149  0.2644
27697SOL    HW185723   0.367   7.548   1.295  1.8392  1.1926  1.2147
27697SOL    HW285724   0.343   7.450   1.407  1.0881  1.6623  1.4704
27698SOL     OW85725   8.942   2.952   9.366  0.2524 -0.5167  0.1490
27698SOL    HW185726   8.903   3.014   9.305  1.1755 -1.3332 -1.3295
27698SOL    HW285727   9.025   2.992   9.392  1.1670 -1.3515 -1.3224
27699SOL     OW85728  10.230   7.053  10.295 -0.3946 -0.3892 -0.2721
27699SOL    HW185729  10.203   7.054  10.387  0.3651 -0.5392 -0.0368
27699SOL    HW285730  10.321   7.081  10.297 -0.2501 -0.7895 -0.9371
27700SOL     OW85731   5.546   2.831   3.192 -0.3190  0.0244 -0.0533
27700SOL    HW185732   5.524   2.803   3.281 -3.3962 -2.1707 -1.3279
27700SOL    HW285733   5.637   2.803   3.180  0.6363  1.5702  2.7564
27701SOL     OW85734   4.420   8.130   3.399  0.0337 -0.5365  0.3108
27701SOL    HW185735   4.330   8.108   3.423 -0.1823  0.8168  0.8309
27701SOL    HW285736   4.456   8.172   3.478  0.2786  1.2596 -0.7048
27702SOL     OW85737   0.627   9.456   7.374 -0.0951 -0.2741 -0.1827
27702SOL    HW185738   0.629   9.384   7.436 -1.2093 -0.4438 -0.3301
27702SOL    HW285739   0.602   9.532   7.426 -0.4333 -0.2979 -0.3100
27703SOL     OW85740   3.780   2.347   8.185  0.8750 -0.1847  1.1011
27703SOL    HW185741   3.826   2.275   8.227  0.3253 -1.2259 -0.0226
27703SOL    HW285742   3.849   2.403   8.150  1.3108 -0.4822  1.4824
27704SOL     OW85743   8.436   5.945   9.142 -0.2438 -0.9529  0.3757
27704SOL    HW185744   8.530   5.962   9.146 -0.3593 -0.1186 -0.3142
27704SOL    HW285745   8.407   5.950   9.233  0.3532 -1.1231  0.5834
27705SOL     OW85746   1.322   7.648   1.469 -0.2327 -0.9504  0.5870
27705SOL    HW185747   1.379   7.645   1.546 -1.4407  0.5838  1.6189
27705SOL    HW285748   1.312   7.741   1.451 -0.7684 -1.2635 -0.8498
27706SOL     OW85749   6.251   5.764   9.476  0.0917 -0.1758  0.5158
27706SOL    HW185750   6.333   5.768   9.429  0.0250 -2.3192  0.0951
27706SOL    HW285751   6.264   5.695   9.541 -1.9137 -1.9275 -0.8079
27707SOL     OW85752   4.718   0.941   9.942 -0.1143  0.2022 -0.7776
27707SOL    HW185753   4.754   0.853   9.957  1.2042  0.6787 -0.9854
27707SOL    HW285754   4.627   0.935   9.970 -0.6480 -1.7823 -2.5886
27708SOL     OW85755   0.264  10.270   0.161 -0.0925  0.2606  0.8260
27708SOL    HW185756   0.185  10.218   0.176 -0.9103  1.3072  0.2396
27708SOL    HW285757   0.307  10.227   0.087 -1.2623  0.9453 -0.2839
27709SOL     OW85758   1.668   1.030   1.525  0.1773 -0.1077 -0.2939
27709SOL    HW185759   1.648   1.079   1.445  1.4683  2.2960  0.7450
27709SOL    HW285760   1.755   0.993   1.509  0.8823  1.2175  0.3022
27710SOL     OW85761   7.057   4.219   4.899  0.4357  0.6974 -0.0500
27710SOL    HW185762   7.149   4.230   4.923  0.4208  1.1586 -0.1895
27710SOL    HW285763   7.019   4.306   4.912  0.1974  0.7034 -0.7438
27711SOL     OW85764   6.234   3.011   4.244  0.1773  0.0945  0.3756
27711SOL    HW185765   6.275   2.950   4.305 -0.1121  0.3105  0.7855
27711SOL    HW285766   6.278   3.094   4.260  0.3018  0.0871  0.0849
27712SOL     OW85767   2.072   9.485   3.614  0.5294 -0.5143 -0.1088
27712SOL    HW185768   2.118   9.420   3.562  2.4608  1.3965 -0.9654
27712SOL    HW285769   2.009   9.524   3.554  2.1057  1.0343 -0.8651
27713SOL     OW85770   8.263  10.196   4.603 -0.0140 -0.1674 -0.6279
27713SOL    HW185771   8.205  10.135   4.651  1.4178  0.0548  1.5176
27713SOL    HW285772   8.350  10.158   4.613  0.2565 -0.9417 -4.5200
27714SOL     OW85773   1.640   4.773   3.432 -0.1423 -0.4489 -0.1194
27714SOL    HW185774   1.578   4.729   3.489 -1.1069  0.6946 -0.2392
27714SOL    HW285775   1.618   4.743   3.344 -1.0444  0.4968 -0.2416
27715SOL     OW85776   7.238   8.400   8.715 -0.2774 -0.3319 -0.6489
27715SOL    HW185777   7.183   8.351   8.776  0.3013  1.1585  1.1550
27715SOL    HW285778   7.294   8.334   8.675 -0.2037 -1.3005  0.9454
27716SOL     OW85779   1.154   0.630   5.472  0.0283 -0.0678  0.2536
27716SOL    HW185780   1.070   0.606   5.511 -0.3701 -0.6755 -0.9528
27716SOL    HW285781   1.132   0.660   5.384  1.0042  0.4634  0.1788
27717SOL     OW85782   3.262   5.770   2.881 -0.4348 -0.3663  0.0817
27717SOL    HW185783   3.323   5.840   2.858 -1.7614  0.6309 -0.5652
27717SOL    HW285784   3.316   5.702   2.920  0.8368  1.3153  1.3895
27718SOL     OW85785  10.311   2.414   1.329 -0.1047 -0.6975 -0.6393
27718SOL    HW185786  10.252   2.430   1.255 -0.2599  2.0299 -0.0105
27718SOL    HW285787  10.389   2.466   1.309  0.8280 -1.7871  0.0473
27719SOL     OW85788   7.625   3.814   5.507 -0.1741 -0.0881  0.0836
27719SOL    HW185789   7.623   3.785   5.416 -1.1288  0.1594  0.0153
27719SOL    HW285790   7.656   3.904   5.503  2.1076 -0.8081  0.2340
27720SOL     OW85791   6.431  10.222   7.471  0.4990 -0.1143 -0.4960
27720SOL    HW185792   6.456  10.295   7.528  2.6759  0.2012 -1.7610
27720SOL    HW285793   6.378  10.166   7.527  0.7538  1.2469  1.2049
27721SOL     OW85794   6.321   2.456   5.333  0.0963 -0.1130  0.8253
27721SOL    HW185795   6.249   2.517   5.325 -0.1656 -0.2382  2.0041
27721SOL    HW285796   6.334   2.421   5.245 -1.2690 -0.0712  0.5923
27722SOL     OW85797   2.103   2.146   2.278 -0.2932 -0.5269  0.0284
27722SOL    HW185798   2.071   2.124   2.366  0.5081  2.2081  1.1188
27722SOL    HW285799   2.168   2.078   2.258 -0.3742 -1.1178  1.6168
27723SOL     OW85800   1.322   9.068   9.393  0.2886  0.2231  0.2665
27723SOL    HW185801   1.277   9.108   9.467  1.6118  1.9166  0.2204
27723SOL    HW285802   1.362   8.989   9.430 -0.1296  0.3605  1.0417
27724SOL     OW85803   6.257   6.210   9.801  0.3557  0.4394  0.9150
27724SOL    HW185804   6.205   6.231   9.878 -0.9594 -0.0607  0.1956
27724SOL    HW285805   6.234   6.119   9.781  1.3409  0.2787  0.4336
27725SOL     OW85806   4.123   8.870   7.882 -0.3408 -0.2409  0.0932
27725SOL    HW185807   4.027   8.876   7.884 -0.3299 -0.1396  0.3622
27725SOL    HW285808   4.147   8.909   7.798 -0.4858  0.4705  0.3791
27726SOL     OW85809   5.579   5.247   8.517  0.0132 -0.4697 -0.0260
27726SOL    HW185810   5.502   5.189   8.516  0.7580 -1.5113  0.6352
27726SOL    HW285811   5.652   5.189   8.540  0.6303  0.9208  1.8120
27727SOL     OW85812   0.934   5.682   4.376 -0.2777  0.7305  0.6008
27727SOL    HW185813   0.991   5.689   4.300 -0.7435  1.7444  0.3312
27727SOL    HW285814   0.859   5.631   4.346  0.8593 -1.4610  1.2144
27728SOL     OW85815   2.297   0.421   0.018 -0.4748 -0.7253  0.1727
27728SOL    HW185816   2.265   0.353   0.078  1.4753 -1.2451  0.7002
27728SOL    HW285817   2.300   0.378  -0.068 -0.3376 -0.9577  0.2920
27729SOL     OW85818   6.795   3.121   5.024  0.4146 -0.0623 -0.2879
27729SOL    HW185819   6.888   3.111   5.045  0.4103 -0.6224 -0.5064
27729SOL    HW285820   6.787   3.089   4.934  0.4045  2.1547 -1.1302
27730SOL     OW85821   0.003   9.203   7.571 -0.6117 -0.2689 -0.2507
27730SOL    HW185822  -0.049   9.228   7.495  0.8011 -0.3320 -1.2931
27730SOL    HW285823   0.087   9.174   7.534  0.3790  0.3862  1.3628
27731SOL     OW85824   6.696   3.225   0.279 -0.0485 -0.4530  0.5260
27731SOL    HW185825   6.729   3.270   0.356 -0.7387  1.2656 -0.1393
27731SOL    HW285826   6.644   3.153   0.314  2.0243 -1.5176  1.6023
27732SOL     OW85827   9.462   5.115   1.254 -0.6288 -0.0338 -0.7571
27732SOL    HW185828   9.483   5.208   1.249  1.9255 -0.4579  0.2125
27732SOL    HW285829   9.426   5.103   1.342 -0.0087 -0.1140 -0.5130
27733SOL     OW85830   3.015   2.799   1.805 -0.2107  0.3916  0.2029
27733SOL    HW185831   3.066   2.799   1.725  0.5436 -1.8463  0.6347
27733SOL    HW285832   2.932   2.757   1.781  0.6730 -1.8984  0.9067
27734SOL     OW85833   2.826   3.633   1.712  0.4863 -0.5572 -0.1168
27734SOL    HW185834   2.779   3.601   1.636  1.6594 -2.8467  0.0281
27734SOL    HW285835   2.869   3.713   1.682 -1.3895  0.1692 -0.9637
27735SOL     OW85836   2.052   8.578   0.298 -0.4984 -0.0426 -0.1099
27735SOL    HW185837   2.018   8.619   0.218 -1.8181 -0.3567  0.2663
27735SOL    HW285838   2.054   8.649   0.362 -0.2808  0.0194 -0.1872
27736SOL     OW85839   1.402   4.245   2.708  0.1552  0.1257 -0.2318
27736SOL    HW185840   1.341   4.319   2.710  0.3578  0.2862  0.1701
27736SOL    HW285841   1.420   4.231   2.615  0.1958  0.6492 -0.3051
27737SOL     OW85842   3.014   5.103   1.755 -0.2045 -0.8805 -0.5262
27737SOL    HW185843   2.953   5.034   1.731  0.1118 -1.0121 -0.9574
27737SOL    HW285844   2.958   5.172   1.793 -0.5940 -1.0820 -0.7250
27738SOL     OW85845   0.665   2.673   1.391 -0.3915  0.5243  0.3741
27738SOL    HW185846   0.666   2.612   1.317  0.9433  1.1249 -0.1302
27738SOL    HW285847   0.752   2.664   1.430 -0.7288  0.9779  1.2530
27739SOL     OW85848   3.435   9.386   5.851 -0.4979  0.1255  0.5141
27739SOL    HW185849   3.414   9.476   5.876 -0.5774  0.4376 -0.6128
27739SOL    HW285850   3.411   9.334   5.927 -0.6996  1.0320  1.0853
27740SOL     OW85851   3.995   3.211   7.735  0.3183 -0.4474  0.2780
27740SOL    HW185852   3.909   3.226   7.773 -0.2148 -1.7586 -0.3560
27740SOL    HW285853   4.056   3.231   7.806 -0.5236 -0.0268  0.9025
27741SOL     OW85854   9.095   3.916   9.633  0.2655 -0.1377  0.0980
27741SOL    HW185855   9.014   3.866   9.630 -0.1749  0.5966 -1.3034
27741SOL    HW285856   9.088   3.969   9.713  1.2236 -2.9627  2.2295
27742SOL     OW85857   4.909   0.252   6.525  0.5254 -0.1790  0.5009
27742SOL    HW185858   4.876   0.178   6.473 -0.8932 -0.3078  1.5181
27742SOL    HW285859   4.963   0.211   6.593  0.0359 -0.2851  0.8407
27743SOL     OW85860   4.862   8.791   6.111  0.5215  0.0178  0.0868
27743SOL    HW185861   4.777   8.830   6.090  0.2855 -0.8185 -0.5483
27743SOL    HW285862   4.925   8.843   6.061  0.5884  1.6115  1.7108
27744SOL     OW85863   7.356   2.690   5.133 -0.1378 -0.5617 -0.0544
27744SOL    HW185864   7.418   2.624   5.164 -0.1494 -0.1887  0.8009
27744SOL    HW285865   7.289   2.641   5.086 -1.3951 -1.4659  2.4879
27745SOL     OW85866   4.787   8.373   3.487  0.3295  0.3863  0.0085
27745SOL    HW185867   4.800   8.279   3.474  0.3800  0.5695 -1.3979
27745SOL    HW285868   4.856   8.414   3.437  0.4607  1.1921  0.8216
27746SOL     OW85869   4.995   4.374   0.640  0.5484 -0.2914 -0.6211
27746SOL    HW185870   5.051   4.447   0.614 -0.1690  0.8470  0.8452
27746SOL    HW285871   5.001   4.312   0.568  2.6875  0.3512 -1.0752
27747SOL     OW85872   9.399   6.935   2.804  0.1499 -0.0642 -0.2005
27747SOL    HW185873   9.456   7.005   2.836 -0.5344  0.3866  0.0435
27747SOL    HW285874   9.363   6.894   2.883  0.6091 -0.7501 -0.3397
27748SOL     OW85875   5.246   5.881   4.437  0.2348 -0.6542  0.5277
27748SOL    HW185876   5.281   5.836   4.360  0.5799  0.3593  0.0679
27748SOL    HW285877   5.296   5.963   4.442 -1.3542  0.3874  0.4407
27749SOL     OW85878   3.684   3.013   1.877  0.8119 -0.1608  0.3932
27749SOL    HW185879   3.759   3.065   1.904  2.3842 -2.3165  0.4239
27749SOL    HW285880   3.642   3.065   1.808  1.7122  1.5446  1.0822
27750SOL     OW85881   1.228   0.583   4.963  0.1206 -0.1003  0.5301
27750SOL    HW185882   1.275   0.616   4.887  2.1813 -0.6458  1.4906
27750SOL    HW285883   1.146   0.548   4.928 -0.3818  2.3889 -0.9947
27751SOL     OW85884  10.035   7.182   1.027  0.0347 -0.1652  0.7661
27751SOL    HW185885   9.989   7.229   0.958  0.1738  1.0745  1.4819
27751SOL    HW285886   9.985   7.102   1.040 -1.6708  0.9440  1.2329
27752SOL     OW85887   8.396   6.091   1.778  0.0759  0.9294  0.0073
27752SOL    HW185888   8.360   6.161   1.832  0.8777  2.4223 -1.2963
27752SOL    HW285889   8.490   6.109   1.776  0.2513 -0.0252 -0.5767
27753SOL     OW85890   6.032   2.691   6.583 -0.1688  0.3330  0.6733
27753SOL    HW185891   6.096   2.666   6.649  0.1689 -0.1976  0.1555
27753SOL    HW285892   6.049   2.632   6.510 -0.7728  0.6731  0.2511
27754SOL     OW85893   6.471   9.006   7.327 -0.3396 -0.1409  0.1453
27754SOL    HW185894   6.429   8.924   7.350 -0.0087 -0.1774  0.6431
27754SOL    HW285895   6.565   8.990   7.339 -0.4044  1.2231  3.4324
27755SOL     OW85896  10.100   3.745   3.692 -0.5235  0.1929 -0.5700
27755SOL    HW185897  10.147   3.743   3.609 -2.0292  1.8240 -1.5160
27755SOL    HW285898  10.142   3.816   3.741  0.7382 -1.1326  0.3565
27756SOL     OW85899   2.326   7.110   6.105 -0.4309  0.4439 -0.0315
27756SOL    HW185900   2.368   7.183   6.059 -1.5391  0.1163 -1.6531
27756SOL    HW285901   2.390   7.039   6.101 -0.7641  0.1850 -1.8153
27757SOL     OW85902   1.570   5.597   9.318 -0.1802 -0.2884 -0.5540
27757SOL    HW185903   1.495   5.549   9.354 -0.6921  1.9448  1.6784
27757SOL    HW285904   1.538   5.633   9.235 -0.3428 -2.2333 -1.3849
27758SOL     OW85905   3.667   6.008   2.002 -0.3635  1.0490 -0.2675
27758SOL    HW185906   3.737   6.069   2.025  0.4038  1.1426 -2.5345
27758SOL    HW285907   3.702   5.921   2.024  0.2227  1.1447 -0.8057
27759SOL     OW85908   7.386   4.543   2.768 -0.3545  0.6432  0.5533
27759SOL    HW185909   7.407   4.450   2.778 -0.7361  0.7407  2.9184
27759SOL    HW285910   7.442   4.587   2.831 -1.4182  1.8190  0.7300
27760SOL     OW85911   7.727   9.687   0.361 -0.0327 -0.1583  0.3523
27760SOL    HW185912   7.656   9.624   0.355  1.1646 -1.4537 -1.2215
27760SOL    HW285913   7.774   9.662   0.441  0.2183 -1.0600 -0.0653
27761SOL     OW85914   7.812   4.594   8.429 -0.1668 -0.0215  0.1863
27761SOL    HW185915   7.808   4.684   8.400  0.0498  0.7209  2.2533
27761SOL    HW285916   7.730   4.579   8.475  1.2631  0.4647  3.1804
27762SOL     OW85917   9.487  10.069   3.029 -0.7397 -0.1566  0.0782
27762SOL    HW185918   9.529  10.121   2.961  0.8427  0.1184  1.1949
27762SOL    HW285919   9.530   9.984   3.025 -1.6026 -0.5934 -0.1407
27763SOL     OW85920   7.138   8.628   1.650  0.0410  0.1113 -0.1603
27763SOL    HW185921   7.219   8.579   1.641 -0.9885 -1.7649  0.2030
27763SOL    HW285922   7.138   8.689   1.575  1.7590  0.1747 -0.1389
27764SOL     OW85923   5.241   7.822   5.919 -0.5979 -0.1552  0.0721
27764SOL    HW185924   5.152   7.808   5.951 -0.5292  0.6192  0.6232
27764SOL    HW285925   5.233   7.821   5.823 -1.5705  2.0480  0.0837
27765SOL     OW85926   3.536   7.588  10.195  0.3498 -0.4763 -0.2137
27765SOL    HW185927   3.489   7.671  10.183  1.0001 -0.1392 -0.4843
27765SOL    HW285928   3.587   7.578  10.114  3.2462  0.7933  1.2845
27766SOL     OW85929   3.800   9.474   7.510 -1.0192 -0.9666 -0.0130
27766SOL    HW185930   3.722   9.453   7.562 -1.1354 -1.7807 -0.4824
27766SOL    HW285931   3.834   9.388   7.484  1.1038 -0.7093  1.7184
27767SOL     OW85932   7.776   0.016   4.243  0.0264  0.3065 -0.6937
27767SOL    HW185933   7.827   0.077   4.189 -2.0493  1.4480 -1.4424
27767SOL    HW285934   7.838  -0.055   4.262  1.9856  1.7530 -1.2856
27768SOL     OW85935   7.646   6.759   5.007 -0.1638  0.6368  0.7409
27768SOL    HW185936   7.584   6.692   4.977 -0.0337  0.4618  0.8533
27768SOL    HW285937   7.704   6.711   5.067  0.5729  0.6233  0.0259
27769SOL     OW85938   1.054  10.007   4.093 -1.0046 -0.2154 -0.5058
27769SOL    HW185939   0.971   9.998   4.139 -2.2383 -0.8512 -2.7221
27769SOL    HW285940   1.038   9.969   4.007  1.8119 -1.0467 -0.7636
27770SOL     OW85941   8.415   5.211   8.844 -0.2374 -0.3280 -0.2612
27770SOL    HW185942   8.421   5.287   8.787 -0.9941 -0.8036 -0.9873
27770SOL    HW285943   8.450   5.241   8.928 -0.0535  0.6641 -0.6831
27771SOL     OW85944   5.993   8.691   3.959  0.1383 -0.3228 -0.2143
27771SOL    HW185945   5.926   8.678   3.892  1.9929 -0.2976 -2.1669
27771SOL    HW285946   6.059   8.624   3.940  2.3763  1.8593 -0.6415
27772SOL     OW85947   0.496   1.407   0.112 -0.3351  0.3369  0.5987
27772SOL    HW185948   0.555   1.352   0.163 -2.2923 -1.4113  1.1055
27772SOL    HW285949   0.541   1.418   0.028  1.4548  0.5274  1.5291
27773SOL     OW85950   5.693   3.537   9.789  0.4752 -0.2866  0.2390
27773SOL    HW185951   5.646   3.531   9.873 -0.0131 -0.5006 -0.0452
27773SOL    HW285952   5.742   3.619   9.795 -0.7029  0.4447  0.1591
27774SOL     OW85953   2.353   7.106   6.534 -0.6458 -0.1876 -0.2323
27774SOL    HW185954   2.282   7.119   6.471  0.8815  0.1938 -1.9516
27774SOL    HW285955   2.369   7.012   6.533 -0.5718 -0.1725 -0.4730
27775SOL     OW85956   8.516   4.837   2.278  0.4320  0.7663  0.1880
27775SOL    HW185957   8.426   4.850   2.248  0.1060 -0.5209  0.5865
27775SOL    HW285958   8.560   4.920   2.256 -0.7862  1.3378 -0.1835
27776SOL     OW85959   2.493   5.941   4.514  0.0401  0.5765  0.2379
27776SOL    HW185960   2.412   5.973   4.476 -0.3869 -1.1254 -0.3834
27776SOL    HW285961   2.466   5.879   4.581  0.8224  0.3021  0.3117
27777SOL     OW85962   4.614   4.544   6.749  0.5041 -0.4598 -0.2455
27777SOL    HW185963   4.620   4.601   6.826  0.3371 -1.2454  0.3698
27777SOL    HW285964   4.590   4.459   6.785 -2.5591 -0.2018 -1.4176
27778SOL     OW85965   1.827   1.523   5.598 -0.1214  0.5340  0.4301
27778SOL    HW185966   1.847   1.587   5.666 -0.2006  1.6318 -0.5470
27778SOL    HW285967   1.856   1.564   5.517 -1.0799 -0.2553 -0.3422
27779SOL     OW85968   1.469   7.760   3.187 -0.1055  0.5757 -0.2172
27779SOL    HW185969   1.559   7.741   3.214  0.4339  3.2983  0.2895
27779SOL    HW285970   1.417   7.748   3.266  0.1223  0.6151 -0.0590
27780SOL     OW85971   3.776   8.695   6.836  0.4312 -0.2567 -0.0418
27780SOL    HW185972   3.680   8.699   6.831  0.4210 -1.3991 -1.7351
27780SOL    HW285973   3.806   8.746   6.760  1.2065  0.7748  0.9344
27781SOL     OW85974   0.835   7.359   1.810 -0.2525  0.1936  0.2157
27781SOL    HW185975   0.868   7.305   1.882  0.8050  0.6193  0.0647
27781SOL    HW285976   0.813   7.443   1.851  1.1749  0.7313 -0.0896
27782SOL     OW85977   9.279   3.874   8.551  0.1330 -0.0966 -0.5333
27782SOL    HW185978   9.220   3.799   8.556  1.0030 -0.7837 -0.4654
27782SOL    HW285979   9.299   3.882   8.457 -0.5566  0.5402 -0.6406
27783SOL     OW85980   0.021   3.535   9.255  0.4703 -0.6974  0.1355
27783SOL    HW185981   0.062   3.491   9.330  1.8325  0.2401 -0.0206
27783SOL    HW285982   0.000   3.623   9.288  1.5751 -0.0917 -0.7045
27784SOL     OW85983   3.152   0.848   0.979 -0.7917 -0.5053 -0.3442
27784SOL    HW185984   3.154   0.753   0.990 -0.3738 -0.5126 -0.4546
27784SOL    HW285985   3.127   0.882   1.065 -1.4986 -0.7409 -0.4536
27785SOL     OW85986   3.791   5.371   0.332 -0.1332  0.2732 -0.2208
27785SOL    HW185987   3.810   5.459   0.365 -1.1457  0.4915 -0.1633
27785SOL    HW285988   3.874   5.338   0.299  0.6905  0.5051  1.5073
27786SOL     OW85989   4.276   5.050   6.832  0.0371  0.7943  0.6830
27786SOL    HW185990   4.328   5.036   6.911  0.4636 -0.5700  0.2022
27786SOL    HW285991   4.252   5.143   6.834 -0.6942  0.6231  2.8395
27787SOL     OW85992   7.336   4.553   7.344  0.2347 -0.8250 -0.0346
27787SOL    HW185993   7.371   4.641   7.331  0.9878 -1.3356 -1.7767
27787SOL    HW285994   7.351   4.534   7.437  3.7503 -0.6078 -0.4314
27788SOL     OW85995   1.342   4.382   3.722  0.0186 -0.2568  0.2850
27788SOL    HW185996   1.281   4.442   3.765 -0.6661 -0.9742  0.3438
27788SOL    HW285997   1.366   4.319   3.791  0.4199 -0.2862  0.1201
27789SOL     OW85998   9.676   2.908   2.479 -0.0305 -0.3159  0.0034
27789SOL    HW185999   9.592   2.926   2.519  0.4402  1.7513  0.1676
27789SOL    HW286000   9.689   2.979   2.415  2.1414  0.2379  0.9399
27790SOL     OW86001   7.281   6.288   4.151  0.2592 -0.1684  0.4140
27790SOL    HW186002   7.326   6.205   4.170 -1.1654 -1.3829 -1.2212
27790SOL    HW286003   7.255   6.322   4.236  0.5620 -1.5945  1.0956
27791SOL     OW86004   2.120   7.475   3.354 -0.0452  0.4701  0.2180
27791SOL    HW186005   2.092   7.566   3.343  0.2012  0.4616 -0.5388
27791SOL    HW286006   2.038   7.425   3.354 -0.2172  0.7396  1.2303
27792SOL     OW86007   1.559   1.992  10.193 -0.1916  0.5226  0.1577
27792SOL    HW186008   1.573   2.054  10.121  1.2974  0.1549  0.1148
27792SOL    HW286009   1.629   1.927  10.183 -1.7340 -1.2331  0.1569
27793SOL     OW86010   4.281   1.758   3.652 -0.5172  0.0697  0.3210
27793SOL    HW186011   4.234   1.675   3.637 -0.2628  0.3605 -2.8780
27793SOL    HW286012   4.213   1.825   3.649 -0.7719  0.0814  3.2519
27794SOL     OW86013   4.765   9.553   5.330  0.3597  0.4635 -0.2290
27794SOL    HW186014   4.675   9.578   5.352  0.4681 -0.2763  1.1576
27794SOL    HW286015   4.783   9.599   5.248 -0.3485  2.8126  0.8415
27795SOL     OW86016   5.660   2.571   1.430 -0.3821 -0.7634 -0.7404
27795SOL    HW186017   5.605   2.619   1.492 -0.0482 -0.0501 -0.9908
27795SOL    HW286018   5.731   2.631   1.410  0.4975 -1.6772 -0.4227
27796SOL     OW86019   5.720   8.672   6.397  0.3794  0.3612 -0.0687
27796SOL    HW186020   5.666   8.734   6.348  2.1334  0.1267 -2.4985
27796SOL    HW286021   5.677   8.588   6.386  0.1656  0.4997 -0.2973
27797SOL     OW86022   7.696   5.509   3.263  0.2979  0.3677  0.1015
27797SOL    HW186023   7.754   5.486   3.336 -0.5216 -0.6419  0.4633
27797SOL    HW286024   7.721   5.449   3.193 -0.2977 -0.0541  0.2521
27798SOL     OW86025   7.056   2.064   4.009 -0.3430 -0.0357  0.2851
27798SOL    HW186026   7.138   2.019   4.031  0.5408  1.0173 -0.7693
27798SOL    HW286027   7.046   2.130   4.078 -0.7044 -0.6197  0.8126
27799SOL     OW86028   0.736   6.248   7.918  0.2665  0.0723 -0.2450
27799SOL    HW186029   0.719   6.219   7.828  1.4122  0.1130 -0.4936
27799SOL    HW286030   0.690   6.185   7.973 -1.1269  0.5015 -0.8527
27800SOL     OW86031   4.260   1.913   6.480 -0.3912  0.4605  0.0214
27800SOL    HW186032   4.186   1.970   6.499 -0.4647  0.0476  1.0409
27800SOL    HW286033   4.336   1.972   6.479 -0.6451  0.7812 -0.3305
27801SOL     OW86034   9.611   4.457   1.899 -0.5392 -0.1283 -0.1325
27801SOL    HW186035   9.571   4.434   1.982  0.8314  0.6308  0.7643
27801SOL    HW286036   9.705   4.448   1.913 -0.3279 -1.6834 -2.1363
27802SOL     OW86037   3.083   8.237   5.285 -0.0834 -0.5757 -0.4387
27802SOL    HW186038   3.096   8.143   5.300 -0.6990 -0.5550  0.2800
27802SOL    HW286039   3.085   8.247   5.190  1.1800 -1.1359 -0.4983
27803SOL     OW86040   1.881   6.779   3.958 -0.1732 -0.3619  0.0581
27803SOL    HW186041   1.938   6.766   4.034 -1.4287 -1.4539  0.8725
27803SOL    HW286042   1.834   6.860   3.976 -0.3987 -0.5699  0.4162
27804SOL     OW86043  10.320   2.591   6.558  0.2007 -0.5286  0.1188
27804SOL    HW186044  10.385   2.658   6.540  0.8253 -1.1403  0.0867
27804SOL    HW286045  10.310   2.592   6.653 -0.5804  0.3345  0.0460
27805SOL     OW86046   4.529   6.520   8.001  0.2852 -0.1052 -0.1213
27805SOL    HW186047   4.514   6.438   7.956  1.7100 -0.2717 -0.3485
27805SOL    HW286048   4.449   6.571   7.988 -1.3543 -2.0932  1.5289
27806SOL     OW86049   8.403   6.522   0.090 -0.0541 -0.3443  0.2351
27806SOL    HW186050   8.486   6.489   0.055  0.0388  0.3038 -0.1613
27806SOL    HW286051   8.336   6.486   0.032  0.1340  1.1187 -0.9248
27807SOL     OW86052   1.529   6.972   9.216  0.1270 -0.1366 -0.5041
27807SOL    HW186053   1.489   7.058   9.223 -2.3674 -1.2715  0.4555
27807SOL    HW286054   1.455   6.911   9.210  1.7319 -2.3451  0.5143
27808SOL     OW86055   7.120   6.582   9.397  0.5872 -0.0736  0.1686
27808SOL    HW186056   7.168   6.511   9.354  0.6359 -0.4951  0.9036
27808SOL    HW286057   7.182   6.654   9.400  0.7096 -0.1659 -0.1248
27809SOL     OW86058   9.538   2.858   4.518 -0.1312  0.3154 -0.1308
27809SOL    HW186059   9.452   2.817   4.528  0.7110 -1.7286 -0.7117
27809SOL    HW286060   9.542   2.922   4.588 -2.2681  0.7553 -0.3286
27810SOL     OW86061   8.266   1.366   2.255  0.1407  0.5038  0.7866
27810SOL    HW186062   8.285   1.402   2.169 -0.5336  0.4325  0.5994
27810SOL    HW286063   8.343   1.388   2.308  0.5724  0.5172  0.1647
27811SOL     OW86064   9.096   5.209   5.278  0.1702  0.7504  0.4040
27811SOL    HW186065   9.041   5.175   5.207  0.8716  0.2374  0.0903
27811SOL    HW286066   9.172   5.245   5.233  1.6565 -1.5058  0.9604
27812SOL     OW86067   1.989   6.993   1.992  0.0753  0.2121 -0.0821
27812SOL    HW186068   2.019   7.034   2.073 -0.7159 -0.4284  0.5488
27812SOL    HW286069   1.901   6.962   2.011 -0.0145 -0.2088 -1.0984
27813SOL     OW86070   7.637   2.761   1.415 -0.3009 -0.8371 -0.5793
27813SOL    HW186071   7.726   2.782   1.384 -0.7004  0.7294 -0.7808
27813SOL    HW286072   7.579   2.803   1.351 -1.1588  0.1687  0.7883
27814SOL     OW86073   5.117   4.371   1.269  0.6153  0.0949  0.6799
27814SOL    HW186074   5.155   4.391   1.183  0.8548 -1.3889  0.4114
27814SOL    HW286075   5.026   4.349   1.250  1.0695 -1.7957  0.5698
27815SOL     OW86076   9.657   1.581   1.027 -0.1099 -0.6968  0.2410
27815SOL    HW186077   9.565   1.592   1.002  0.1210  2.0362  0.3693
27815SOL    HW286078   9.695   1.528   0.956 -1.2552  0.1375 -1.0458
27816SOL     OW86079   5.864   5.650   7.511 -0.6412  0.4219  0.6159
27816SOL    HW186080   5.771   5.633   7.524 -0.3067 -1.4514  0.8547
27816SOL    HW286081   5.885   5.604   7.430  0.3135 -0.1824  1.1872
27817SOL     OW86082   9.076  10.296   4.279  0.0381  0.5223 -0.0461
27817SOL    HW186083   9.136  10.234   4.321  0.7536  0.6611 -0.8423
27817SOL    HW286084   9.033  10.339   4.353  1.1803  0.6692  0.5736
27818SOL     OW86085   2.132   3.913   8.721 -0.1633  0.1308  0.0590
27818SOL    HW186086   2.159   4.004   8.727 -1.0552  0.3756  0.5502
27818SOL    HW286087   2.088   3.895   8.804  0.9913 -1.0944  0.4580
27819SOL     OW86088   1.296   7.413   5.488 -0.1128 -0.0742  0.0602
27819SOL    HW186089   1.289   7.398   5.394  1.0671 -1.4488  0.1505
27819SOL    HW286090   1.304   7.325   5.526 -0.7788  0.4383  1.4714
27820SOL     OW86091   0.272   1.688   2.539  0.2703 -0.6863 -0.4671
27820SOL    HW186092   0.359   1.709   2.504  0.6477  0.2217  0.9289
27820SOL    HW286093   0.217   1.761   2.510  0.9248  0.8979  1.9428
27821SOL     OW86094   3.791   5.099   9.181  0.0948 -0.6122  0.1575
27821SOL    HW186095   3.806   5.192   9.167 -3.0768  0.1184  0.9207
27821SOL    HW286096   3.861   5.056   9.131  1.7331  2.1149 -0.1073
27822SOL     OW86097   6.550   3.657   7.646  0.0950  0.2257  0.1832
27822SOL    HW186098   6.607   3.679   7.572 -0.4491  0.6005 -0.1272
27822SOL    HW286099   6.587   3.705   7.720 -1.4353  2.7551 -0.6048
27823SOL     OW86100   1.948   4.221   0.386  0.3248 -0.0312 -0.2314
27823SOL    HW186101   1.894   4.214   0.465  1.5800 -0.9042  0.5843
27823SOL    HW286102   1.886   4.226   0.314 -0.8359 -0.4605  0.7232
27824SOL     OW86103   0.446   8.028   9.189 -0.3464 -0.0469 -0.8967
27824SOL    HW186104   0.533   7.988   9.184 -0.9962 -1.7425  0.2969
27824SOL    HW286105   0.455   8.097   9.255 -0.0563 -0.6961 -0.2416
27825SOL     OW86106   9.521   9.976   6.274 -0.1181 -0.1829  0.1135
27825SOL    HW186107   9.491  10.060   6.237  3.3036  0.7847 -0.8424
27825SOL    HW286108   9.529   9.993   6.368  1.4594  0.9690 -0.1827
27826SOL     OW86109   5.467   8.536  10.041 -0.2508 -0.9989 -0.3362
27826SOL    HW186110   5.546   8.542  10.094 -0.1909 -2.3098 -0.2415
27826SOL    HW286111   5.435   8.626  10.034  1.3290 -0.4200 -0.5151
27827SOL     OW86112   6.072   5.577   8.316  0.0769 -0.1402 -0.1529
27827SOL    HW186113   5.987   5.533   8.317  0.0320 -0.0498  0.1742
27827SOL    HW286114   6.110   5.556   8.402  1.0381 -1.4397 -0.8561
27828SOL     OW86115   7.279   2.555   7.246  0.0310  0.1247 -0.3649
27828SOL    HW186116   7.270   2.517   7.334  0.2343  0.3627 -0.2371
27828SOL    HW286117   7.194   2.543   7.205 -0.1485  0.2557 -0.0335
27829SOL     OW86118   8.014   4.420   8.382 -0.0845  0.4178  0.3331
27829SOL    HW186119   7.954   4.493   8.397 -0.1751  0.3713  0.1995
27829SOL    HW286120   8.100   4.455   8.404 -0.2517  0.2383  1.3536
27830SOL     OW86121   8.906   6.010   9.567 -0.2583  0.0341 -0.4178
27830SOL    HW186122   8.813   6.030   9.558 -0.3358 -0.3527 -0.5038
27830SOL    HW286123   8.913   5.918   9.543  0.1194  0.0136 -0.2399
27831SOL     OW86124   8.731   7.025   4.338 -0.8788 -0.1434 -0.2757
27831SOL    HW186125   8.753   6.967   4.411  0.8935  1.6297  0.7369
27831SOL    HW286126   8.772   7.109   4.362 -2.1190  1.1211 -2.3010
27832SOL     OW86127   3.378   9.658  10.346 -0.2564  0.4834 -0.2850
27832SOL    HW186128   3.364   9.568  10.375 -1.3979  1.2955  1.9677
27832SOL    HW286129   3.294   9.685  10.308 -0.3235  0.9643  0.1892
27833SOL     OW86130   6.782   4.785   5.504  0.2051 -0.1425  0.3700
27833SOL    HW186131   6.786   4.771   5.409  0.9228 -1.9205  0.6190
27833SOL    HW286132   6.689   4.790   5.524 -0.0121 -1.3582 -0.2469
27834SOL     OW86133   9.919  10.083   8.721  0.8856 -0.0218  0.0239
27834SOL    HW186134   9.823  10.088   8.722  0.8685  0.3587 -1.1545
27834SOL    HW286135   9.945  10.100   8.811 -0.1978 -1.5385  0.6657
27835SOL     OW86136   7.463   4.586   0.302  0.0818  0.2654 -0.1477
27835SOL    HW186137   7.405   4.645   0.349 -0.0758 -0.2213  0.2774
27835SOL    HW286138   7.551   4.612   0.329  0.0356  0.6251 -0.3426
27836SOL     OW86139   9.694   0.990   7.690  0.6410 -0.3889  0.0645
27836SOL    HW186140   9.668   1.001   7.782  0.4081 -1.7496  0.1880
27836SOL    HW286141   9.769   0.931   7.693  1.0157  0.0484 -0.5839
27837SOL     OW86142  10.131  10.312   3.617 -0.1623 -0.3794 -0.0224
27837SOL    HW186143  10.092  10.397   3.639  0.8583  0.0064  0.3350
27837SOL    HW286144  10.172  10.325   3.532  0.6817 -0.2771  0.3912
27838SOL     OW86145   6.430   1.471   6.025  0.2619  0.3048  0.2530
27838SOL    HW186146   6.419   1.519   6.107  1.6492  0.2866  0.4610
27838SOL    HW286147   6.380   1.522   5.961 -0.9367  0.2584  1.1062
27839SOL     OW86148   1.330   2.499   8.353  0.1488  0.0412  0.6244
27839SOL    HW186149   1.362   2.530   8.269 -2.0270 -1.0253 -0.6871
27839SOL    HW286150   1.308   2.407   8.338  1.4792 -0.7265  2.9183
27840SOL     OW86151   1.295   5.119   7.517  0.1719 -0.2041 -0.0723
27840SOL    HW186152   1.225   5.105   7.453 -0.2969  0.2864  0.3232
27840SOL    HW286153   1.267   5.195   7.567  1.9692  1.3311 -1.2607
27841SOL     OW86154   6.749   2.530   6.243 -0.1178 -0.1108 -0.4176
27841SOL    HW186155   6.832   2.564   6.210  1.8875 -2.7724  1.4215
27841SOL    HW286156   6.712   2.602   6.295  1.2608  0.9709 -0.8840
27842SOL     OW86157   2.533   3.828   9.190 -0.6066  0.1822 -0.0776
27842SOL    HW186158   2.452   3.879   9.183 -0.0652  0.8718 -3.5781
27842SOL    HW286159   2.588   3.862   9.119  2.3771 -0.9801  1.4973
27843SOL     OW86160   6.048   4.424   5.691  0.5379  0.1596 -0.3785
27843SOL    HW186161   5.966   4.458   5.657 -0.1655  1.9466  2.7371
27843SOL    HW286162   6.034   4.330   5.700 -0.8949  0.3414 -0.6029
27844SOL     OW86163   3.777   2.851   5.040  0.0570 -0.2350  0.1959
27844SOL    HW186164   3.721   2.921   5.006  0.2296 -1.2161 -2.2987
27844SOL    HW286165   3.722   2.804   5.103 -1.0518  0.3819 -0.2836
27845SOL     OW86166   1.944   1.000   0.820  0.2627  0.7576  0.9741
27845SOL    HW186167   1.999   0.926   0.794  0.1407 -0.1431  3.0662
27845SOL    HW286168   1.966   1.069   0.758  1.8048 -0.4089  0.1391
27846SOL     OW86169   0.999   3.286   0.985 -0.3474 -0.0687  0.1947
27846SOL    HW186170   1.059   3.236   0.931 -0.7557  0.1814 -0.5021
27846SOL    HW286171   1.043   3.294   1.070  0.8969  0.6674 -0.4976
27847SOL     OW86172   9.303   2.314   1.254 -0.0692  0.0320 -0.3105
27847SOL    HW186173   9.298   2.332   1.160  1.2619  0.7090 -0.2833
27847SOL    HW286174   9.280   2.222   1.262 -0.3445 -0.0012 -1.2849
27848SOL     OW86175   2.116   5.951   4.766 -0.0585 -0.3999 -0.6244
27848SOL    HW186176   2.138   5.946   4.859 -0.4520  0.3060 -0.4898
27848SOL    HW286177   2.126   5.861   4.734  1.2775 -0.4267 -0.1778
27849SOL     OW86178   1.877   0.836   0.019 -0.3458 -0.3761 -0.4342
27849SOL    HW186179   1.903   0.744   0.033  0.9780  0.0465  0.0249
27849SOL    HW286180   1.947   0.873  -0.033  1.7067  1.5780  3.2968
27850SOL     OW86181  10.345   5.338   8.795  0.6797  0.1070  0.1501
27850SOL    HW186182  10.332   5.244   8.777 -1.8121  0.0536  1.7802
27850SOL    HW286183  10.353   5.344   8.890 -0.0919  1.6002  0.1579
27851SOL     OW86184   3.211   6.658   4.085 -0.2742 -0.1197 -0.2178
27851SOL    HW186185   3.175   6.587   4.030  0.2318  0.0581 -0.7927
27851SOL    HW286186   3.145   6.671   4.153  0.3674 -2.2857  0.9072
27852SOL     OW86187   5.718   9.334   3.662  0.6497 -0.2235  0.2263
27852SOL    HW186188   5.721   9.317   3.756 -0.4815 -0.3035  0.2624
27852SOL    HW286189   5.638   9.291   3.632 -0.5414  2.1850 -0.2776
27853SOL     OW86190   4.486   7.547   0.079  0.6339 -0.8204  0.4354
27853SOL    HW186191   4.443   7.574   0.160 -1.0174 -0.0969 -0.6386
27853SOL    HW286192   4.415   7.518   0.022  1.7679 -1.3999 -0.7432
27854SOL     OW86193   6.912   2.160   2.169  0.1198 -0.3915  0.5835
27854SOL    HW186194   6.908   2.117   2.083  0.0650 -0.1612  0.4714
27854SOL    HW286195   6.919   2.253   2.149  0.0397 -0.3320  0.8295
27855SOL     OW86196   8.635   4.106   6.395 -0.0888 -0.1241  0.3857
27855SOL    HW186197   8.605   4.015   6.394 -1.7116  0.3711  0.1684
27855SOL    HW286198   8.572   4.152   6.451  0.2186  1.0062 -0.1526
27856SOL     OW86199   2.843   6.576   3.085 -0.1468  0.6807  0.1625
27856SOL    HW186200   2.854   6.638   3.157  0.5230  1.0449 -0.2421
27856SOL    HW286201   2.800   6.500   3.125  0.3785  0.7992  0.9786
27857SOL     OW86202   4.604   5.579   9.262  0.3958 -0.1373  0.1378
27857SOL    HW186203   4.598   5.643   9.191 -2.5511  0.2465  0.6232
27857SOL    HW286204   4.550   5.615   9.332  4.3354  0.2622  3.3594
27858SOL     OW86205   2.896   2.915   7.648 -0.3125  0.3423 -0.3242
27858SOL    HW186206   2.877   2.973   7.574 -0.9353  0.4883 -0.0618
27858SOL    HW286207   2.821   2.926   7.707 -0.3386 -0.5582 -0.1662
27859SOL     OW86208   4.473   9.243   9.439 -0.1678  0.4001 -0.3522
27859SOL    HW186209   4.541   9.296   9.398  0.2730 -0.5247 -0.8634
27859SOL    HW286210   4.516   9.204   9.515  0.1918 -0.9661 -1.2287
27860SOL     OW86211   2.753   7.603   1.446 -0.2943 -0.0050  0.6138
27860SOL    HW186212   2.723   7.610   1.356  0.1895  0.3409  0.4755
27860SOL    HW286213   2.767   7.509   1.460  0.0002 -0.0190  0.2088
27861SOL     OW86214   3.148   0.731   7.341  0.7771 -0.5632 -0.5456
27861SOL    HW186215   3.157   0.637   7.355 -1.4105 -0.8008 -0.4915
27861SOL    HW286216   3.148   0.742   7.246  0.1085 -0.7370 -0.5690
27862SOL     OW86217   3.349   1.944   5.911  0.3996  0.2231 -0.5315
27862SOL    HW186218   3.321   2.029   5.945  0.4579 -0.1311  0.4256
27862SOL    HW286219   3.408   1.910   5.977 -0.4636 -1.0472 -0.3849
27863SOL     OW86220   9.237   6.825   3.315  0.4349  0.2726 -0.4996
27863SOL    HW186221   9.243   6.795   3.406  2.4854  0.9981 -0.3358
27863SOL    HW286222   9.195   6.753   3.268  0.9428 -0.8529  0.7225
27864SOL     OW86223   1.534   7.923   0.146 -0.4927  0.7658 -0.0515
27864SOL    HW186224   1.481   7.844   0.135  3.4104 -1.8758 -3.0885
27864SOL    HW286225   1.525   7.946   0.238 -1.5542 -3.5290  1.1483
27865SOL     OW86226   8.365   5.643   2.933 -0.1091  0.1308  0.7496
27865SOL    HW186227   8.288   5.592   2.909 -0.9157  1.5724  0.1640
27865SOL    HW286228   8.402   5.673   2.850  1.3212 -0.8163  0.9958
27866SOL     OW86229   6.037  10.309   4.462  0.0374 -0.2943 -0.1728
27866SOL    HW186230   6.034  10.235   4.523  1.5424 -0.1946  0.0798
27866SOL    HW286231   6.051  10.386   4.518  1.3948 -0.1942 -0.6011
27867SOL     OW86232   8.409   0.796   7.511  0.4812 -0.1091  0.4088
27867SOL    HW186233   8.343   0.860   7.487  0.5057 -0.5299 -0.8606
27867SOL    HW286234   8.475   0.846   7.560  0.4047  0.7902 -0.3891
27868SOL     OW86235  10.305   2.409   0.130 -0.1910  0.3114  0.0619
27868SOL    HW186236  10.241   2.350   0.169 -0.3576  1.2795  1.3404
27868SOL    HW286237  10.322   2.474   0.199  2.3571 -0.0616 -0.1429
27869SOL     OW86238   3.946  10.174   3.402 -0.4298  0.0984 -0.0799
27869SOL    HW186239   3.994  10.095   3.375  2.3858  0.9408  1.9877
27869SOL    HW286240   3.883  10.142   3.467 -0.6759 -0.6818 -0.6837
27870SOL     OW86241   1.877   2.706   7.396 -0.3002 -0.3015 -0.4672
27870SOL    HW186242   1.912   2.633   7.345  1.0639  0.7280 -1.0334
27870SOL    HW286243   1.933   2.711   7.473 -1.2072 -0.6572  0.2469
27871SOL     OW86244   8.517   4.395   1.614  0.1095 -0.3043 -0.0715
27871SOL    HW186245   8.438   4.344   1.632 -1.2973  0.8393 -2.3920
27871SOL    HW286246   8.547   4.364   1.529  1.6575 -0.0840  0.3597
27872SOL     OW86247   6.806   9.533   1.463  0.1353 -0.7752 -0.1446
27872SOL    HW186248   6.762   9.503   1.543 -0.3185  1.3744  0.4944
27872SOL    HW286249   6.764   9.484   1.393 -3.7656  1.3707  0.3811
27873SOL     OW86250   3.757   4.633   0.932  0.5297  0.0841  0.6299
27873SOL    HW186251   3.762   4.562   0.868 -1.0992  0.9946 -0.5914
27873SOL    HW286252   3.751   4.590   1.017  1.3657 -1.1791  0.0714
27874SOL     OW86253   4.421   1.873   4.609  0.5686 -0.1699 -0.3762
27874SOL    HW186254   4.506   1.878   4.653  0.5728 -1.8867 -0.0933
27874SOL    HW286255   4.372   1.808   4.659 -0.8879  0.6997 -0.6128
27875SOL     OW86256   8.087   0.783   9.285 -0.4928  0.4532  0.0079
27875SOL    HW186257   8.084   0.744   9.198 -0.5483  1.9400 -0.6961
27875SOL    HW286258   7.999   0.820   9.298  0.0134  1.7408 -0.0625
27876SOL     OW86259   0.604   6.581   5.954 -0.3510 -0.6219  0.1430
27876SOL    HW186260   0.573   6.492   5.970  3.1252 -2.0266 -0.0423
27876SOL    HW286261   0.536   6.621   5.900 -1.4498 -3.6389 -0.9321
27877SOL     OW86262   0.033   7.868   7.684  0.1279  0.4910 -0.0762
27877SOL    HW186263   0.092   7.794   7.703 -0.2834  0.4957  1.3270
27877SOL    HW286264   0.090   7.935   7.645  0.9204  0.2397  0.6242
27878SOL     OW86265   1.998   6.630   2.599  0.5411 -0.3509  0.0604
27878SOL    HW186266   2.066   6.662   2.659  2.6274 -0.1402 -2.2270
27878SOL    HW286267   2.032   6.651   2.512 -1.9698 -1.3241 -1.2448
27879SOL     OW86268   6.545   4.879  10.262  0.1570  0.1487  0.3336
27879SOL    HW186269   6.531   4.787  10.285  0.1289  0.4871  1.7657
27879SOL    HW286270   6.636   4.882  10.232  1.0825  0.0715  2.8632
27880SOL     OW86271   9.229   7.636   0.406  0.2688  0.2215  0.3610
27880SOL    HW186272   9.181   7.600   0.331 -0.0007 -2.0465  1.5279
27880SOL    HW286273   9.278   7.710   0.370 -1.2533  0.3474 -1.6453
27881SOL     OW86274   6.558   0.963   4.836  0.7008 -0.0409 -0.1380
27881SOL    HW186275   6.599   1.050   4.838  1.2675 -0.2187  3.6292
27881SOL    HW286276   6.468   0.978   4.867  0.6916 -0.7486  0.1926
27882SOL     OW86277   6.938   5.675   5.651 -0.3459  0.2632  0.4004
27882SOL    HW186278   7.001   5.641   5.587  0.1079  1.2642  0.2934
27882SOL    HW286279   6.905   5.597   5.695  0.0825 -0.3725 -0.3618
27883SOL     OW86280   0.793   7.196   2.848  0.9283 -0.0724 -0.5169
27883SOL    HW186281   0.764   7.255   2.918 -1.0384 -0.7477 -0.7167
27883SOL    HW286282   0.873   7.155   2.883  1.1630  1.1593  0.4460
27884SOL     OW86283   8.759   7.762   6.249 -0.2118 -0.4453  0.4631
27884SOL    HW186284   8.667   7.747   6.227 -0.2251  0.9670 -0.5631
27884SOL    HW286285   8.808   7.726   6.175 -0.0554  0.4873  0.0895
27885SOL     OW86286   3.122   4.082   5.093 -0.5922 -0.0531  0.6309
27885SOL    HW186287   3.181   4.007   5.103 -0.7951 -0.1752  0.9125
27885SOL    HW286288   3.037   4.050   5.121 -0.2716  0.8694  2.8914
27886SOL     OW86289   9.290   8.424   3.737  0.1227  0.3893 -0.6874
27886SOL    HW186290   9.376   8.391   3.711 -0.4606 -1.5804 -0.2879
27886SOL    HW286291   9.308   8.510   3.774  1.9355 -0.0222 -0.5029
27887SOL     OW86292   5.231   1.742   4.959 -0.0800 -0.2828 -0.0710
27887SOL    HW186293   5.253   1.686   4.884 -0.5434  0.2540 -0.6236
27887SOL    HW286294   5.203   1.824   4.919  0.3685  0.2572  0.7286
27888SOL     OW86295   1.095   9.618   4.140  0.3267 -0.4385  0.1429
27888SOL    HW186296   1.010   9.635   4.100  1.2713 -0.8010 -2.1415
27888SOL    HW286297   1.105   9.523   4.138  0.9071 -0.3829  0.1155
27889SOL     OW86298   3.697   5.672   9.092 -0.3030 -0.8371 -0.4723
27889SOL    HW186299   3.771   5.731   9.103 -2.3646  1.4831  2.3483
27889SOL    HW286300   3.705   5.609   9.163 -0.8957 -0.6979 -0.2745
27890SOL     OW86301   5.056   6.620   6.436  0.3706 -0.0929  0.2658
27890SOL    HW186302   5.088   6.710   6.448 -2.1830  1.2973 -2.1605
27890SOL    HW286303   4.982   6.613   6.496  0.9385 -0.8639  0.9025
27891SOL     OW86304   3.399   5.286   4.419 -0.1735  0.2280  0.5824
27891SOL    HW186305   3.388   5.208   4.474  0.9482 -0.6953 -0.4646
27891SOL    HW286306   3.489   5.315   4.436 -0.2998  0.8004  0.3094
27892SOL     OW86307   8.049   1.012   6.536  0.1644  0.1665  0.3374
27892SOL    HW186308   8.094   0.988   6.617  0.0055  1.0131  0.6859
27892SOL    HW286309   8.111   1.069   6.490 -0.5493  1.3969  0.8513
27893SOL     OW86310   6.998   9.070   0.765 -0.8277  0.6546 -0.2037
27893SOL    HW186311   6.906   9.094   0.774 -0.7065  1.5596 -1.1861
27893SOL    HW286312   7.011   9.061   0.670  0.2201  1.0997 -0.1120
27894SOL     OW86313   7.722   4.444   7.881  0.2298  0.4530  0.5691
27894SOL    HW186314   7.708   4.362   7.928 -0.5217 -0.6696 -1.4761
27894SOL    HW286315   7.808   4.434   7.840 -0.8223 -0.4012 -1.5957
27895SOL     OW86316   5.399   3.075   5.476  0.1063 -0.1675  0.5587
27895SOL    HW186317   5.411   3.161   5.515 -0.3545  0.1891 -0.0740
27895SOL    HW286318   5.377   3.092   5.384 -1.4510 -0.9003  0.7667
27896SOL     OW86319   5.692   8.180   6.508 -0.2892  0.7019 -0.4556
27896SOL    HW186320   5.716   8.148   6.595 -1.4853 -0.0028 -0.3646
27896SOL    HW286321   5.685   8.101   6.454 -0.4167  1.0583 -0.9729
27897SOL     OW86322   3.385   6.402   4.155 -0.4374  0.5492 -0.3467
27897SOL    HW186323   3.310   6.461   4.146  0.4575  1.6382 -1.0540
27897SOL    HW286324   3.448   6.435   4.091  0.7853 -0.1056  0.4871
27898SOL     OW86325   9.152   9.465   4.766  0.1135 -0.0345 -0.1006
27898SOL    HW186326   9.108   9.548   4.779 -1.2752 -0.8729  0.8212
27898SOL    HW286327   9.106   9.404   4.824  0.0328 -1.7931 -1.8864
27899SOL     OW86328   6.763   4.173   9.798 -1.1701 -0.5768 -0.9244
27899SOL    HW186329   6.810   4.229   9.860 -1.1618 -1.9675  0.3990
27899SOL    HW286330   6.684   4.223   9.776 -1.2060 -0.0598  0.2863
27900SOL     OW86331   7.256   9.457  10.151 -0.1325 -0.2728 -0.8027
27900SOL    HW186332   7.203   9.439  10.229 -1.6878 -0.7552 -1.9120
27900SOL    HW286333   7.316   9.383  10.145 -0.0732 -0.2850 -0.1315
27901SOL     OW86334   1.852   9.048   1.219  0.0739  0.2679 -0.0108
27901SOL    HW186335   1.828   9.115   1.283 -0.2925 -0.2753  0.4303
27901SOL    HW286336   1.796   9.065   1.144 -1.4763 -0.7645  0.8642
27902SOL     OW86337   8.672  10.355   9.771  0.2900 -0.5834 -0.1851
27902SOL    HW186338   8.640  10.359   9.681 -0.6953 -2.1502  0.0601
27902SOL    HW286339   8.640  10.435   9.812  2.1286  0.9728 -1.6130
27903SOL     OW86340   8.202   4.742   2.695  1.1952  0.2647 -0.2232
27903SOL    HW186341   8.160   4.811   2.643 -1.0497  0.2836  1.4483
27903SOL    HW286342   8.186   4.768   2.786  2.7427 -1.0685  0.4758
27904SOL     OW86343   2.358   6.874   1.583 -0.6082 -0.1963 -0.0530
27904SOL    HW186344   2.433   6.847   1.637 -1.0123  0.4336  0.8448
27904SOL    HW286345   2.291   6.809   1.602 -1.9058  1.7910  2.8254
27905SOL     OW86346   5.084   8.697   0.251 -0.6452  0.1492 -0.4008
27905SOL    HW186347   5.007   8.751   0.233  0.5371  2.0417  0.0114
27905SOL    HW286348   5.156   8.759   0.259  0.2117 -1.0641  3.7243
27906SOL     OW86349   3.392   2.447   2.106 -0.3784 -0.3319 -0.5759
27906SOL    HW186350   3.464   2.401   2.063  0.2309 -0.6462  0.7025
27906SOL    HW286351   3.435   2.499   2.175 -1.1535  1.3783 -1.3297
27907SOL     OW86352   8.013   8.304   2.354  0.0358 -0.3154  0.1448
27907SOL    HW186353   7.941   8.331   2.411 -0.7524  0.0438 -0.9880
27907SOL    HW286354   8.011   8.209   2.358 -0.5811 -0.3147  0.0420
27908SOL     OW86355   9.925   9.137   3.501 -0.0099 -0.4950 -0.9326
27908SOL    HW186356   9.882   9.204   3.450  0.1127  0.0106 -0.3901
27908SOL    HW286357   9.866   9.062   3.499 -0.7710  0.0838 -0.4473
27909SOL     OW86358   3.526   1.076   7.473 -0.4133 -0.4732  0.0007
27909SOL    HW186359   3.594   1.107   7.414 -0.4789 -2.0579 -0.9935
27909SOL    HW286360   3.445   1.084   7.422 -0.4779 -1.8374 -0.1453
27910SOL     OW86361   5.431   5.111   2.352  0.2281 -0.2645  0.6428
27910SOL    HW186362   5.460   5.043   2.413  1.3339 -1.0068 -0.6357
27910SOL    HW286363   5.472   5.191   2.385  2.2797 -0.9572 -0.0246
27911SOL     OW86364   0.615   9.345   5.604 -0.3735 -0.3137  0.4706
27911SOL    HW186365   0.625   9.392   5.687 -1.3459 -1.6036  1.3633
27911SOL    HW286366   0.545   9.391   5.558 -0.4545 -0.1342  0.7723
27912SOL     OW86367   3.809   9.900   4.625 -0.0774  0.5990 -0.2024
27912SOL    HW186368   3.812   9.817   4.577  2.7686  0.9018 -0.7225
27912SOL    HW286369   3.736   9.948   4.585 -0.6796 -0.9698 -1.0596
27913SOL     OW86370   1.549   6.151   6.166  0.4037 -0.1208  0.1448
27913SOL    HW186371   1.485   6.082   6.188 -0.1078  0.5974  1.0016
27913SOL    HW286372   1.591   6.171   6.249 -1.6398  2.7503  0.6221
27914SOL     OW86373  10.290   5.645   6.010  0.1220 -0.1729  0.3817
27914SOL    HW186374  10.223   5.645   6.079 -0.8571  1.6507 -0.4767
27914SOL    HW286375  10.240   5.632   5.929  0.5030  2.6634 -0.4267
27915SOL     OW86376   4.910   2.355   6.677  0.6052 -0.3456 -0.8254
27915SOL    HW186377   4.852   2.282   6.699 -0.2685  0.2228 -1.2041
27915SOL    HW286378   4.992   2.313   6.649 -0.3419 -1.2367 -2.3824
27916SOL     OW86379  10.058   3.386   8.801 -0.0001  0.1767 -0.3467
27916SOL    HW186380  10.066   3.338   8.883 -1.2230  0.3334 -0.1152
27916SOL    HW286381  10.043   3.477   8.828 -1.7277  0.0234 -0.6976
27917SOL     OW86382   7.690   4.208   7.070 -0.2102 -0.1056 -0.5114
27917SOL    HW186383   7.686   4.131   7.127 -0.6728  0.8520  0.8107
27917SOL    HW286384   7.751   4.267   7.114 -0.1282  0.4286 -1.3276
27918SOL     OW86385   5.795   0.570   5.174 -0.7038  0.9882  0.3550
27918SOL    HW186386   5.797   0.625   5.096  0.0488 -0.7395 -0.9042
27918SOL    HW286387   5.789   0.480   5.140 -2.2298  0.2670  2.3242
27919SOL     OW86388   0.636   1.516   9.073  0.6253  0.1586 -0.6038
27919SOL    HW186389   0.630   1.603   9.033  0.6813 -0.1220 -1.2206
27919SOL    HW286390   0.712   1.475   9.031  0.1897 -0.4455 -0.8120
27920SOL     OW86391   4.992   8.250   4.740 -0.0232 -0.3011 -0.5567
27920SOL    HW186392   4.909   8.292   4.760  0.3855  0.0614  0.4956
27920SOL    HW286393   5.029   8.229   4.826  0.9527 -0.4779 -1.0042
27921SOL     OW86394   6.729   9.826   4.196  0.2541 -0.5993  0.0596
27921SOL    HW186395   6.824   9.815   4.186  0.3491 -0.7231  1.0063
27921SOL    HW286396   6.719   9.907   4.246 -0.1189 -0.7983  0.3168
27922SOL     OW86397   4.784   1.284   4.006  0.7869 -0.2183  0.2697
27922SOL    HW186398   4.722   1.328   3.948  1.8425 -1.9303 -2.3698
27922SOL    HW286399   4.862   1.339   4.003  0.6526 -0.0174  0.4988
27923SOL     OW86400   4.875   6.330   5.284  0.0719  0.0765  0.7198
27923SOL    HW186401   4.920   6.371   5.210  2.2437 -3.3643 -0.1087
27923SOL    HW286402   4.925   6.358   5.361 -0.7684  1.8085  0.6782
27924SOL     OW86403   3.079  10.050   1.580  0.2814 -0.7069  0.3806
27924SOL    HW186404   3.082  10.145   1.583 -0.6603 -0.6765  0.6049
27924SOL    HW286405   3.099  10.028   1.488  1.3302 -0.3520  0.5028
27925SOL     OW86406   1.465   2.940   9.697  0.2563 -0.1211  0.0815
27925SOL    HW186407   1.407   2.865   9.684 -0.6958  0.2712  1.7503
27925SOL    HW286408   1.427   3.009   9.643  1.6815 -1.0336 -2.2294
27926SOL     OW86409   7.477   7.245   1.337  0.3914 -0.0850 -0.4105
27926SOL    HW186410   7.469   7.182   1.408  0.3852 -0.6253 -0.8804
27926SOL    HW286411   7.450   7.328   1.375  1.0983 -0.2219  0.4204
27927SOL     OW86412   2.362   2.806   2.207 -0.5589 -0.0987  0.4546
27927SOL    HW186413   2.443   2.758   2.224 -0.3102 -0.1880 -0.8296
27927SOL    HW286414   2.293   2.740   2.215 -0.1351 -1.0274 -2.3187
27928SOL     OW86415   1.169   9.874   3.717 -0.3361 -0.4041 -0.0666
27928SOL    HW186416   1.222   9.887   3.639 -0.0974  2.8987  0.4791
27928SOL    HW286417   1.220   9.814   3.772  1.0792 -0.1814 -1.0852
27929SOL     OW86418   8.002   3.895   4.910  0.3320 -0.3362 -0.2795
27929SOL    HW186419   8.004   3.808   4.950 -0.0363 -1.3267 -2.2736
27929SOL    HW286420   8.067   3.891   4.840  0.8056  1.2439  0.0407
27930SOL     OW86421   7.135   3.018   6.901  0.4804 -0.3140  0.7422
27930SOL    HW186422   7.148   2.941   6.957  0.7555  0.0320  1.1623
27930SOL    HW286423   7.215   3.070   6.912  0.4388 -0.1268  0.2022
27931SOL     OW86424  10.041   1.103   2.526 -0.1343  0.4668  0.6431
27931SOL    HW186425   9.952   1.068   2.531  0.0366  0.0236  0.6294
27931SOL    HW286426  10.081   1.080   2.610  0.2225 -0.0500  0.3363
27932SOL     OW86427   8.195   0.200   2.408 -0.3455 -0.1085  0.1557
27932SOL    HW186428   8.274   0.145   2.412  0.1659  0.6333  0.7400
27932SOL    HW286429   8.223   0.284   2.445 -0.9337  0.7613 -1.2892
27933SOL     OW86430  10.346   4.880   7.795 -0.2043  0.2636 -0.2976
27933SOL    HW186431  10.327   4.787   7.783  1.5588  0.0199 -1.4395
27933SOL    HW286432  10.314   4.899   7.884 -0.5021 -1.4432  0.0012
27934SOL     OW86433   7.740   8.997   9.821 -0.2170  0.1016  0.0900
27934SOL    HW186434   7.728   8.927   9.756  1.5577  1.4998 -1.8904
27934SOL    HW286435   7.692   9.071   9.785 -0.1162  0.5914  0.9444
27935SOL     OW86436   4.707   8.945   8.784  0.2546 -0.4593  0.1182
27935SOL    HW186437   4.796   8.956   8.818  0.0257 -1.0828  0.9342
27935SOL    HW286438   4.695   8.850   8.779  0.0668 -0.3963 -1.1700
27936SOL     OW86439   9.036   2.568   1.037 -0.1250  0.0210  0.5437
27936SOL    HW186440   9.082   2.573   1.121  0.2424  1.9048  0.2617
27936SOL    HW286441   8.984   2.647   1.033  0.1717  0.1626 -1.1768
27937SOL     OW86442   4.188   3.581   5.152  0.1022  0.4307  0.3597
27937SOL    HW186443   4.246   3.507   5.165 -0.5703 -0.3176 -0.7292
27937SOL    HW286444   4.247   3.654   5.130  0.6175 -0.5775 -1.8797
27938SOL     OW86445   0.757   9.130   1.097  0.0698 -0.2973  0.1000
27938SOL    HW186446   0.683   9.189   1.115 -1.7156 -2.7716  1.4679
27938SOL    HW286447   0.761   9.124   1.002 -1.3419  0.0803  0.0004
27939SOL     OW86448   3.966   3.636  10.092  0.0585 -0.3919  0.0163
27939SOL    HW186449   4.006   3.629  10.178  0.1991  2.4264  0.2627
27939SOL    HW286450   3.872   3.630  10.108  0.0112  1.3474  0.5910
27940SOL     OW86451   8.833   8.770   6.768  0.3107 -0.5854 -0.1576
27940SOL    HW186452   8.864   8.702   6.709  2.1860  0.0625  0.0327
27940SOL    HW286453   8.840   8.851   6.718  1.7587 -0.0552  0.8433
27941SOL     OW86454   3.388   3.954   3.665 -0.5041  0.3564  0.2040
27941SOL    HW186455   3.356   3.878   3.617  0.2508  0.8031 -1.0512
27941SOL    HW286456   3.484   3.942   3.666 -0.4379  0.9092  0.6606
27942SOL     OW86457   5.482   0.369   0.415 -0.5484 -0.0269  0.1824
27942SOL    HW186458   5.480   0.364   0.510  0.9307  0.1302  0.2411
27942SOL    HW286459   5.429   0.294   0.386 -1.8378  0.4879  1.0939
27943SOL     OW86460   0.521   2.069   4.682  0.4053 -0.1076 -0.2227
27943SOL    HW186461   0.437   2.100   4.716  0.6628 -0.1728  0.4944
27943SOL    HW286462   0.586   2.108   4.741  0.8509 -0.3772 -0.5340
27944SOL     OW86463   1.919   2.095   0.064  0.4911 -0.1142  0.0985
27944SOL    HW186464   1.984   2.025   0.055 -0.3877 -0.9280 -0.1567
27944SOL    HW286465   1.937   2.154  -0.009 -0.3772 -1.4749 -1.2802
27945SOL     OW86466   7.256   4.162   5.638 -0.5603 -0.0776  0.3661
27945SOL    HW186467   7.209   4.196   5.715 -0.6633 -0.0981  0.3127
27945SOL    HW286468   7.248   4.067   5.646  1.3764 -0.1871  1.5550
27946SOL     OW86469   5.300   1.225   4.663 -0.2488 -0.5000  0.2582
27946SOL    HW186470   5.241   1.247   4.735  0.2844 -0.8097  0.8000
27946SOL    HW286471   5.290   1.297   4.600 -0.1634  0.1543  0.9822
27947SOL     OW86472   2.271   8.125   5.138 -0.2166  0.1179 -0.2792
27947SOL    HW186473   2.349   8.080   5.105  0.9966  0.7004  1.5856
27947SOL    HW286474   2.231   8.165   5.061  0.5604 -1.3218 -1.4781
27948SOL     OW86475   0.594   2.890   2.401 -0.3541  0.2838  0.1544
27948SOL    HW186476   0.596   2.923   2.311 -2.1076  2.8837  0.9844
27948SOL    HW286477   0.512   2.841   2.407  1.4002 -3.0448 -0.5491
27949SOL     OW86478   0.688  10.145   9.386  0.2650 -0.0056  0.0286
27949SOL    HW186479   0.647  10.232   9.379  0.6325  0.0718 -1.5920
27949SOL    HW286480   0.724  10.129   9.299 -1.6996 -2.7454 -0.3929
27950SOL     OW86481   8.916   7.641   0.392 -0.4248 -0.3131  0.3919
27950SOL    HW186482   8.928   7.551   0.361  1.6511 -0.2456  0.8899
27950SOL    HW286483   8.841   7.673   0.341  2.0128 -0.5725 -3.8804
27951SOL     OW86484   0.206   0.653   9.567 -0.9162  0.3637  0.4231
27951SOL    HW186485   0.111   0.657   9.560 -1.0469 -1.2176  0.8494
27951SOL    HW286486   0.222   0.599   9.645  0.2936 -0.3153 -0.2615
27952SOL     OW86487   3.416   0.050   3.461 -0.3526  0.4893 -0.5356
27952SOL    HW186488   3.508   0.047   3.432 -0.3805  0.7837 -0.6660
27952SOL    HW286489   3.395   0.144   3.460 -0.6573  0.4199 -0.5164
27953SOL     OW86490   7.186   9.971   9.557 -0.8845  0.2173 -0.5311
27953SOL    HW186491   7.232   9.955   9.640 -0.4929 -1.0969 -0.9797
27953SOL    HW286492   7.094   9.960   9.580 -0.8329  0.5691 -0.1246
27954SOL     OW86493   9.167   0.364   5.771 -0.6967  0.2994  1.0053
27954SOL    HW186494   9.247   0.416   5.767 -1.9091  2.3021  1.7343
27954SOL    HW286495   9.135   0.363   5.680  0.4111 -1.0107  0.5974
27955SOL     OW86496   6.186   6.784   3.565 -0.3850  0.2330 -0.2643
27955SOL    HW186497   6.121   6.728   3.608  1.7135 -1.1293  1.3455
27955SOL    HW286498   6.264   6.729   3.558  1.1443  2.3188 -0.5506
27956SOL     OW86499   4.136   1.254   0.125  0.4681  0.0423 -0.4867
27956SOL    HW186500   4.097   1.307   0.056  2.0408  1.3239 -0.4603
27956SOL    HW286501   4.069   1.248   0.192  0.7984  3.7611  0.4097
27957SOL     OW86502   8.781   9.769   7.962  0.0318  0.9752  0.3974
27957SOL    HW186503   8.814   9.773   8.051  1.2689  1.3646 -0.0485
27957SOL    HW286504   8.831   9.699   7.921 -1.9071 -0.5322  0.5165
27958SOL     OW86505   2.726   2.104   4.134  0.6379 -0.0828 -0.3705
27958SOL    HW186506   2.716   2.079   4.227  2.4983 -1.1614 -0.4030
27958SOL    HW286507   2.732   2.199   4.135  0.8313 -0.0909  0.6507
27959SOL     OW86508   7.006   7.286   2.421 -0.8098  0.0835  0.1306
27959SOL    HW186509   6.938   7.237   2.374 -0.5942  0.1318 -0.2344
27959SOL    HW286510   7.087   7.265   2.375  0.1003 -2.9272  2.7560
27960SOL     OW86511   5.741   0.191   6.725 -0.1370  0.2403  0.9747
27960SOL    HW186512   5.780   0.152   6.803 -0.8317 -0.2659  1.0755
27960SOL    HW286513   5.655   0.151   6.718 -1.1792  2.2490  1.4899
27961SOL     OW86514   3.519   6.677   3.580  0.3210  0.4025 -0.1266
27961SOL    HW186515   3.553   6.754   3.627  1.3278  0.6850 -1.2629
27961SOL    HW286516   3.459   6.636   3.642  2.5844 -0.0170  1.9427
27962SOL     OW86517   0.547   7.831   8.473 -0.1835  0.3159 -0.1688
27962SOL    HW186518   0.618   7.778   8.510  0.6354  2.2972  1.2695
27962SOL    HW286519   0.496   7.860   8.549  1.5469  4.5284 -0.3341
27963SOL     OW86520   7.068   2.924   9.026 -0.2241 -0.2770  0.0761
27963SOL    HW186521   7.033   3.013   9.042  0.2044 -0.2035  0.6247
27963SOL    HW286522   7.018   2.868   9.086 -2.2173 -0.8108 -1.9611
27964SOL     OW86523   0.493   4.406   2.280  0.0067 -0.0716 -0.3193
27964SOL    HW186524   0.554   4.467   2.239 -0.5229 -0.5082 -1.8614
27964SOL    HW286525   0.548   4.334   2.310  0.5339  0.7523  0.7499
27965SOL     OW86526  10.308   6.106   8.392 -0.5029 -0.1870 -0.6037
27965SOL    HW186527  10.343   6.075   8.309 -1.4308  0.2364 -1.1787
27965SOL    HW286528  10.337   6.042   8.457  1.0958  0.0208 -1.0702
27966SOL     OW86529   9.280   7.737   1.301  0.2717  0.6249 -0.3047
27966SOL    HW186530   9.371   7.742   1.273  0.0272  0.0847 -1.2154
27966SOL    HW286531   9.276   7.661   1.359  0.6002  1.2582  0.5789
27967SOL     OW86532   3.895   5.050   3.750 -0.0558 -0.0579  0.0628
27967SOL    HW186533   3.813   5.039   3.798  0.0571  2.6225  1.0475
27967SOL    HW286534   3.876   5.121   3.688  0.7885 -1.2067 -1.5891
27968SOL     OW86535   9.742   5.861   8.839 -0.8268 -0.5992  0.2537
27968SOL    HW186536   9.732   5.896   8.928 -1.3426 -1.0359  0.3737
27968SOL    HW286537   9.786   5.931   8.791  2.4303 -1.5099  1.6280
27969SOL     OW86538   0.134   9.308   1.242 -0.1646  0.2604 -0.4079
27969SOL    HW186539   0.152   9.284   1.152  0.4338 -1.4048  0.1065
27969SOL    HW286540   0.038   9.317   1.246 -0.1595  0.7665 -1.2761
27970SOL     OW86541   9.249   7.957   7.982 -0.0253  0.1483 -0.1044
27970SOL    HW186542   9.208   7.929   8.065 -0.3246  3.2135  0.8974
27970SOL    HW286543   9.181   7.945   7.917 -1.5383  2.1898  0.9973
27971SOL     OW86544   3.890   5.906   1.653  0.2831  0.8791 -0.7266
27971SOL    HW186545   3.812   5.921   1.601 -0.2212 -0.7901 -0.5292
27971SOL    HW286546   3.910   5.991   1.692 -1.2359  1.4110 -1.0369
27972SOL     OW86547   8.352   9.287   8.254  0.1968 -0.1328  0.0017
27972SOL    HW186548   8.325   9.313   8.342  0.9766 -0.4057  0.3335
27972SOL    HW286549   8.274   9.301   8.200  0.3524  2.2315  0.2776
27973SOL     OW86550   1.361   3.353   5.164 -0.0962  0.2470 -0.3110
27973SOL    HW186551   1.410   3.311   5.094 -0.5642  0.7838 -0.9649
27973SOL    HW286552   1.270   3.348   5.137 -0.1393  2.2019 -0.7228
27974SOL     OW86553   9.231   5.976   7.149 -0.4676  0.4230  0.2802
27974SOL    HW186554   9.233   5.918   7.072 -0.5258 -0.4582  0.9191
27974SOL    HW286555   9.315   6.021   7.146 -0.4445  0.3570 -0.2711
27975SOL     OW86556   4.242   0.413   9.480  0.6930 -0.6038  0.3104
27975SOL    HW186557   4.303   0.373   9.543  0.6502 -1.1594  0.0059
27975SOL    HW286558   4.156   0.383   9.509  0.2674  2.0841  2.1733
27976SOL     OW86559   5.856   9.432   8.902 -0.6028 -0.2895 -0.9001
27976SOL    HW186560   5.811   9.500   8.951  2.1057  0.8728  0.1443
27976SOL    HW286561   5.893   9.374   8.969  0.9211 -0.1848 -1.6140
27977SOL     OW86562   8.724   0.546   3.768  0.3274  0.1911 -0.4713
27977SOL    HW186563   8.805   0.529   3.816 -0.7727 -2.7656  0.6104
27977SOL    HW286564   8.729   0.487   3.692 -0.9717 -0.4510 -0.0951
27978SOL     OW86565   5.726   2.778   9.596  0.1104 -0.0640  0.1332
27978SOL    HW186566   5.716   2.689   9.562  0.8461 -0.5277  1.0738
27978SOL    HW286567   5.793   2.818   9.541  0.0388 -0.2141 -0.0650
27979SOL     OW86568   4.338   0.585   0.509  0.3675  0.1299  0.1259
27979SOL    HW186569   4.302   0.553   0.591 -1.1916  0.3723 -0.4160
27979SOL    HW286570   4.350   0.679   0.523 -0.4126  0.2683 -0.0739
27980SOL     OW86571   2.894   3.940   7.542  0.1655  0.5553 -0.4246
27980SOL    HW186572   2.922   3.851   7.559  1.1409  0.6764 -1.2704
27980SOL    HW286573   2.806   3.932   7.505  0.4914 -0.1008 -1.0652
27981SOL     OW86574  10.085   4.166   7.837 -0.0041  0.1468  0.1160
27981SOL    HW186575  10.144   4.220   7.784  0.2550  1.9269  2.0619
27981SOL    HW286576  10.142   4.100   7.877  0.2999  0.5579  0.3649
27982SOL     OW86577   4.265   6.352   0.683  0.7808 -0.3221 -0.0358
27982SOL    HW186578   4.218   6.348   0.600 -0.0434  0.4297  0.3836
27982SOL    HW286579   4.277   6.446   0.699 -0.4031 -0.3884  1.4172
27983SOL     OW86580   9.421   7.067   6.103 -0.0622 -0.4474  0.2383
27983SOL    HW186581   9.381   7.051   6.017  0.3245 -0.6873  0.0950
27983SOL    HW286582   9.387   7.152   6.130  1.0073  0.3828 -0.8717
27984SOL     OW86583   3.502   1.727   7.770  0.2778 -0.0638 -0.1840
27984SOL    HW186584   3.535   1.651   7.818 -0.3209 -0.8111 -0.9198
27984SOL    HW286585   3.414   1.701   7.742 -0.5054  1.4505  0.7518
27985SOL     OW86586   5.579   2.901   4.647 -0.5012 -0.2362  0.2479
27985SOL    HW186587   5.505   2.904   4.586 -0.9367  0.4503  0.7997
27985SOL    HW286588   5.557   2.964   4.715  0.3197 -0.4649  0.7402
27986SOL     OW86589   8.405   7.508   7.783  0.3245 -0.1468 -0.0718
27986SOL    HW186590   8.415   7.550   7.868  0.8668 -0.2590 -0.0750
27986SOL    HW286591   8.452   7.425   7.791 -1.0039 -0.9262  0.0396
27987SOL     OW86592   3.131   5.058   5.248 -0.2021 -0.2520  0.1264
27987SOL    HW186593   3.040   5.078   5.227  0.6420  2.3131 -1.7133
27987SOL    HW286594   3.131   4.966   5.275 -2.8596 -1.3783 -3.0920
27988SOL     OW86595   6.339   0.105   4.901 -0.2553  0.0905  0.5455
27988SOL    HW186596   6.325   0.163   4.975 -1.0587 -1.1502  1.4105
27988SOL    HW286597   6.434   0.095   4.895 -0.2027 -0.9999  2.4317
27989SOL     OW86598   3.010   5.285   7.277  0.4332  0.3235  0.3732
27989SOL    HW186599   2.983   5.207   7.229 -0.3195  0.6288  0.2947
27989SOL    HW286600   3.084   5.256   7.330  0.8141 -0.1865 -0.4303
27990SOL     OW86601   3.867   9.324   2.764  0.4138 -0.0441  0.1132
27990SOL    HW186602   3.933   9.267   2.803 -0.9686 -2.2334 -0.5881
27990SOL    HW286603   3.890   9.329   2.672  0.3293  0.2483  0.1066
27991SOL     OW86604   4.679   0.112   0.703 -0.4278  0.5200  0.3979
27991SOL    HW186605   4.722   0.072   0.628 -1.3190 -0.4873  0.4014
27991SOL    HW286606   4.750   0.139   0.761  0.2050 -0.9343  0.3266
27992SOL     OW86607   0.270   3.007   5.893 -0.4221  0.3013  0.2526
27992SOL    HW186608   0.234   3.095   5.886 -0.8041  0.1037 -0.3775
27992SOL    HW286609   0.361   3.020   5.921 -0.1710  0.9609 -0.8120
27993SOL     OW86610   7.254   5.296   7.162 -0.1105 -0.3691  0.1863
27993SOL    HW186611   7.347   5.320   7.169  0.1213 -1.0442 -0.4762
27993SOL    HW286612   7.209   5.361   7.216  0.7705 -0.1810  0.7225
27994SOL     OW86613   9.305   5.383   2.522 -0.4079  0.0750  0.5412
27994SOL    HW186614   9.259   5.399   2.440  0.2689 -0.7622 -0.0197
27994SOL    HW286615   9.398   5.393   2.501 -0.1890 -0.7158  1.0536
27995SOL     OW86616   3.871   3.746   4.933  0.0974  0.2302 -0.1660
27995SOL    HW186617   3.803   3.689   4.896  0.3571 -1.7517  2.1617
27995SOL    HW286618   3.945   3.738   4.871 -1.0764  0.9245 -1.7249
27996SOL     OW86619   6.421   4.643  10.335  0.0524  0.6438 -0.6179
27996SOL    HW186620   6.492   4.598  10.381 -0.7155  1.5641  1.5913
27996SOL    HW286621   6.401   4.585  10.261  2.5662  0.0057 -0.8967
27997SOL     OW86622   3.443   4.658   7.121  0.0033  0.0456 -0.3059
27997SOL    HW186623   3.421   4.638   7.030  2.4288 -2.4764 -0.4687
27997SOL    HW286624   3.534   4.689   7.117 -0.5200  2.0063  1.1199
27998SOL     OW86625   8.601   7.016   9.790 -0.0609  0.0839  0.0898
27998SOL    HW186626   8.522   7.067   9.772  0.0848  0.3164  0.1005
27998SOL    HW286627   8.569   6.930   9.817 -0.3062  0.1231 -0.0751
27999SOL     OW86628   3.824   7.678   3.783 -0.1274 -0.1024  0.0165
27999SOL    HW186629   3.889   7.710   3.846 -2.1947 -0.2289  2.3717
27999SOL    HW286630   3.866   7.689   3.698  3.2054 -0.7540  1.4040
28000SOL     OW86631   1.825   2.299   5.824 -0.0032  0.0845 -0.4293
28000SOL    HW186632   1.752   2.323   5.881  1.0235  0.8749  0.6076
28000SOL    HW286633   1.831   2.204   5.833 -0.3924  0.1037  0.1218
28001SOL     OW86634   1.955   4.161   4.357 -0.6593  0.1918 -0.2519
28001SOL    HW186635   2.013   4.196   4.288 -0.0783  3.2016  1.5504
28001SOL    HW286636   1.867   4.174   4.322 -0.3480  0.5002 -0.9551
28002SOL     OW86637   9.321   3.920   6.108 -0.0320  0.0524 -0.1077
28002SOL    HW186638   9.265   3.955   6.177  0.0903 -1.6797  0.9219
28002SOL    HW286639   9.399   3.975   6.110 -0.4501  0.6422  0.4464
28003SOL     OW86640   0.979   1.942   3.921  0.9279 -0.0570  0.1117
28003SOL    HW186641   1.060   1.898   3.945  0.2345 -0.9500  0.8993
28003SOL    HW286642   0.922   1.932   3.997  0.9249  2.7772  0.6145
28004SOL     OW86643   0.807   9.119  10.058  0.9018  0.1504  0.4219
28004SOL    HW186644   0.792   9.209  10.085  2.5879  0.4769  0.3813
28004SOL    HW286645   0.825   9.071  10.139 -1.5437 -0.5487  0.6373
28005SOL     OW86646   5.433   6.409   6.124  0.5005  0.5438 -0.6297
28005SOL    HW186647   5.413   6.494   6.162  0.3406  0.3225 -0.2162
28005SOL    HW286648   5.378   6.405   6.045  0.7388  0.9492 -0.8190
28006SOL     OW86649   6.466   5.058   5.621  0.6152 -0.2409 -0.6089
28006SOL    HW186650   6.541   5.108   5.588  0.9259 -0.9127 -0.9346
28006SOL    HW286651   6.393   5.119   5.618  1.3079  0.6975  0.4985
28007SOL     OW86652   8.339   7.509   5.935 -0.2157 -0.1646  0.4926
28007SOL    HW186653   8.357   7.489   5.843 -2.8971  0.6474 -0.2946
28007SOL    HW286654   8.418   7.554   5.965  0.2863  0.6536 -1.7955
28008SOL     OW86655   8.748   3.116   3.071 -0.1950 -0.0496 -0.1648
28008SOL    HW186656   8.841   3.129   3.092 -0.4227  0.1482  0.8081
28008SOL    HW286657   8.747   3.089   2.980  0.9086 -1.1578  0.1267
28009SOL     OW86658   6.433   3.366   5.720  0.3522 -0.0964  0.2205
28009SOL    HW186659   6.457   3.278   5.691  0.9727 -0.0718  0.6375
28009SOL    HW286660   6.347   3.355   5.759  0.7878 -0.6995  1.0552
28010SOL     OW86661   0.391   3.523   7.442  0.2049  0.1822 -0.2466
28010SOL    HW186662   0.312   3.512   7.496  0.4637 -0.0658  0.0864
28010SOL    HW286663   0.460   3.544   7.505  0.5054 -0.0813 -0.4858
28011SOL     OW86664   2.964   2.623   2.917  0.4633  0.4350 -0.0762
28011SOL    HW186665   3.036   2.621   2.981 -0.7020  0.5149  1.2907
28011SOL    HW286666   2.956   2.715   2.893  0.3612  0.5303  0.3163
28012SOL     OW86667   7.807   9.790   9.281  0.5206  0.3120  0.5104
28012SOL    HW186668   7.751   9.792   9.359 -0.7067 -0.3745 -0.3286
28012SOL    HW286669   7.885   9.742   9.309  0.4274  0.7099  1.5092
28013SOL     OW86670   6.638   0.927   6.135 -0.0734 -0.9611 -0.7177
28013SOL    HW186671   6.663   0.999   6.194 -0.9832  0.2600 -1.7498
28013SOL    HW286672   6.600   0.861   6.193 -1.7432  0.5704  0.0493
28014SOL     OW86673   8.783   4.117   9.772  0.3691  0.6313  0.0371
28014SOL    HW186674   8.740   4.159   9.697  0.0159  0.3623  0.0863
28014SOL    HW286675   8.759   4.024   9.765  0.2234  0.6274  0.5613
28015SOL     OW86676   7.986   5.874   2.391 -0.2092 -0.2285 -0.6684
28015SOL    HW186677   7.931   5.919   2.456  1.5850  1.3574 -0.1790
28015SOL    HW286678   7.970   5.781   2.408 -1.7452  0.1746  0.3062
28016SOL     OW86679   6.661  10.070   9.244 -0.2740  0.1072  0.0847
28016SOL    HW186680   6.663  10.129   9.319 -2.6587  0.1085  0.2488
28016SOL    HW286681   6.709   9.992   9.272  2.2945  1.5995  0.1277
28017SOL     OW86682   9.302   7.669   2.898  0.0025 -0.0766 -0.0056
28017SOL    HW186683   9.242   7.676   2.971 -0.7522 -0.5361 -0.5669
28017SOL    HW286684   9.387   7.647   2.938 -0.6451 -1.4883  0.6641
28018SOL     OW86685   7.747   5.982   0.080 -0.3313 -0.3143 -0.5814
28018SOL    HW186686   7.676   5.990   0.144 -0.4256 -0.8281 -0.6138
28018SOL    HW286687   7.795   5.903   0.107  0.1693 -0.0304 -0.6192
28019SOL     OW86688   6.808   2.222   0.873  0.1830 -0.1284 -0.0803
28019SOL    HW186689   6.897   2.203   0.844  0.1132 -2.0411  0.8575
28019SOL    HW286690   6.757   2.225   0.792  0.9534  0.2275 -0.5621
28020SOL     OW86691   5.573   1.909   8.533 -0.1901  0.1870 -0.2213
28020SOL    HW186692   5.528   1.830   8.562 -0.8262  0.8763  0.7268
28020SOL    HW286693   5.607   1.887   8.446 -2.2594 -0.3998 -0.9488
28021SOL     OW86694   8.759   3.293   9.534  0.2838  0.1943  0.3481
28021SOL    HW186695   8.718   3.368   9.579  1.3868  0.3284  1.1660
28021SOL    HW286696   8.760   3.319   9.441  0.5322  1.1536  0.6026
28022SOL     OW86697   2.932   1.448   1.165 -0.4790  0.5500  0.2733
28022SOL    HW186698   2.914   1.361   1.201 -1.0442  0.2200 -0.7668
28022SOL    HW286699   3.006   1.435   1.105 -0.0529  0.9429  0.7025
28023SOL     OW86700   5.395   0.717   8.602 -0.2511  0.2020 -0.1431
28023SOL    HW186701   5.329   0.724   8.672  0.0652  2.0081  0.0146
28023SOL    HW286702   5.454   0.647   8.633 -1.0260 -0.1475  0.6082
28024SOL     OW86703   4.213   6.374   3.051 -0.0970 -0.2520  0.4046
28024SOL    HW186704   4.308   6.361   3.049 -0.0296  0.1812  0.7002
28024SOL    HW286705   4.199   6.458   3.008 -0.3781 -0.4762  0.0571
28025SOL     OW86706   5.847   1.700   3.439 -0.4574  0.4189 -0.2502
28025SOL    HW186707   5.887   1.693   3.352  1.9592  0.4446  0.7749
28025SOL    HW286708   5.804   1.785   3.439  1.2638  1.3453 -0.8044
28026SOL     OW86709   9.457   0.870   2.543 -0.2715 -0.5320  0.1309
28026SOL    HW186710   9.509   0.850   2.621  0.1933 -0.7148 -0.2219
28026SOL    HW286711   9.437   0.785   2.504  0.1855 -0.4032 -0.3920
28027SOL     OW86712   6.166   5.748   5.645 -0.2913 -0.2282  0.4046
28027SOL    HW186713   6.170   5.843   5.646  2.2899 -0.2497 -0.4994
28027SOL    HW286714   6.122   5.724   5.727 -0.8800  1.6937  0.6892
28028SOL     OW86715   0.276   2.021   4.935 -0.0761  0.3797 -0.1939
28028SOL    HW186716   0.224   2.056   5.007 -2.4861 -0.0423 -1.6399
28028SOL    HW286717   0.301   2.098   4.884 -0.6029  0.4796 -0.3108
28029SOL     OW86718   4.376   3.482   6.371 -0.3867 -0.0704 -0.1835
28029SOL    HW186719   4.422   3.495   6.288 -0.2690  0.4687 -0.0379
28029SOL    HW286720   4.296   3.435   6.347 -0.1354 -0.3195 -0.5429
28030SOL     OW86721   7.359   6.996   3.775  0.3246 -0.1901 -0.0755
28030SOL    HW186722   7.281   6.999   3.830  0.8785  2.4485  0.6870
28030SOL    HW286723   7.342   7.059   3.705  1.5992  0.1385 -0.1176
28031SOL     OW86724   3.362   7.266   6.258  0.2012  0.1606 -0.2612
28031SOL    HW186725   3.381   7.360   6.259 -3.3808  1.0270  1.5073
28031SOL    HW286726   3.389   7.235   6.345  1.7081 -0.5982 -0.9633
28032SOL     OW86727   9.945   3.153   0.131 -0.5494  0.2281  0.5343
28032SOL    HW186728   9.917   3.211   0.060 -0.0603  0.1246  0.2521
28032SOL    HW286729   9.926   3.065   0.099 -0.1168  0.1690  0.4314
28033SOL     OW86730   9.854   0.680   4.679  0.1345  0.1789  0.2400
28033SOL    HW186731   9.883   0.767   4.651  1.7415  0.3321  2.1174
28033SOL    HW286732   9.838   0.633   4.598  2.5558  1.1806 -0.9130
28034SOL     OW86733   0.167   9.106   8.024  0.0037  0.0108  0.1174
28034SOL    HW186734   0.230   9.037   8.007 -1.6161 -1.4193 -0.3452
28034SOL    HW286735   0.188   9.138   8.112  1.4034 -0.3606 -0.0726
28035SOL     OW86736   5.178   6.729   3.356 -0.5591  0.2577 -0.0801
28035SOL    HW186737   5.226   6.650   3.383  0.1106  1.2095  1.6817
28035SOL    HW286738   5.098   6.696   3.315 -0.3749 -1.3300  0.7710
28036SOL     OW86739   9.661   7.280   7.322 -0.2158 -0.1146 -0.5757
28036SOL    HW186740   9.740   7.320   7.358 -0.5381  0.3416 -0.3609
28036SOL    HW286741   9.636   7.213   7.385 -0.8757  0.7954  0.1716
28037SOL     OW86742   3.890   7.106   7.340 -0.2146  0.1324 -0.0373
28037SOL    HW186743   3.859   7.192   7.368  0.3334  1.2606 -2.5829
28037SOL    HW286744   3.810   7.055   7.328 -0.5611  0.3567  1.2334
28038SOL     OW86745   6.929   8.287   8.367  0.5471  0.0113  0.2060
28038SOL    HW186746   6.929   8.213   8.428 -1.6543  1.0093  1.5242
28038SOL    HW286747   6.868   8.261   8.298 -2.0235  1.3057  1.8002
28039SOL     OW86748   6.586   9.482   3.095 -0.4544 -0.2289 -0.5480
28039SOL    HW186749   6.624   9.568   3.077  1.6885 -1.2889 -1.4053
28039SOL    HW286750   6.498   9.487   3.057 -0.9136  2.0050  0.6461
28040SOL     OW86751   5.183   9.960  10.221  0.1394  0.1853 -0.7417
28040SOL    HW186752   5.131   9.916  10.154 -1.6412  0.8204  0.1747
28040SOL    HW286753   5.155  10.052  10.216 -0.7062  0.0899  1.4487
28041SOL     OW86754   2.792   0.259   1.177 -0.3815  0.4823  0.3855
28041SOL    HW186755   2.876   0.254   1.221 -0.0190  0.9346 -0.2399
28041SOL    HW286756   2.766   0.351   1.184 -1.3014  0.1658  1.4287
28042SOL     OW86757   8.750   8.543   4.864 -0.2355 -0.1500  0.2530
28042SOL    HW186758   8.799   8.625   4.854 -1.2057  0.7473  2.2359
28042SOL    HW286759   8.662   8.565   4.834 -1.2857  0.5179  3.3833
28043SOL     OW86760   1.865   1.974   7.481 -0.8232  0.1043 -0.2403
28043SOL    HW186761   1.945   1.941   7.439 -0.1293  0.7811  0.5176
28043SOL    HW286762   1.837   1.902   7.538  0.7447  0.7746  1.4927
28044SOL     OW86763   9.533   9.631   0.871  0.0944  0.6301 -0.5909
28044SOL    HW186764   9.622   9.641   0.837  0.5639 -2.6266 -0.5928
28044SOL    HW286765   9.537   9.556   0.930 -2.4829  0.9559  0.1340
28045SOL     OW86766   1.131   8.118   4.168  0.1188 -0.0757 -0.4728
28045SOL    HW186767   1.194   8.051   4.196 -2.4377 -1.2881  3.3352
28045SOL    HW286768   1.096   8.085   4.086 -0.3233 -3.0502  0.7796
28046SOL     OW86769   9.574   1.090   8.237 -0.7208 -0.0190 -0.3953
28046SOL    HW186770   9.490   1.062   8.275  0.0708 -1.3481  0.4414
28046SOL    HW286771   9.640   1.043   8.288  0.5517  1.1030 -0.9631
28047SOL     OW86772   9.658   4.043   2.247  0.5454 -0.2254  0.1689
28047SOL    HW186773   9.752   4.026   2.243  0.5289 -0.4563  0.6450
28047SOL    HW286774   9.633   4.018   2.336  0.1733  0.5441  0.2894
28048SOL     OW86775   0.132   5.684   5.648 -0.1543  0.5042  0.1256
28048SOL    HW186776   0.153   5.593   5.666 -0.4599  0.4293  0.1178
28048SOL    HW286777   0.052   5.680   5.596  1.1741  0.6589 -2.0590
28049SOL     OW86778   4.775   8.911   9.527 -0.4699  1.0665  0.9214
28049SOL    HW186779   4.695   8.907   9.474  0.0103  1.6824  0.1329
28049SOL    HW286780   4.771   8.832   9.582 -0.8028  0.2122 -0.2867
28050SOL     OW86781   4.802   0.907   7.631 -0.0098 -0.4691  0.2846
28050SOL    HW186782   4.760   0.944   7.708 -0.3865 -1.6468  0.6674
28050SOL    HW286783   4.741   0.924   7.559  0.3642  0.6718  0.2173
28051SOL     OW86784   4.526   4.399   2.817 -0.0222 -0.0232 -0.0700
28051SOL    HW186785   4.591   4.332   2.836  2.2796  2.3077  0.8511
28051SOL    HW286786   4.535   4.416   2.723  0.9520  0.4642  0.0973
28052SOL     OW86787   9.396   0.416   3.997  0.3866  0.4631  0.2481
28052SOL    HW186788   9.484   0.384   4.017  0.5923  0.6170 -0.4084
28052SOL    HW286789   9.343   0.386   4.071  0.8317 -0.2848  0.2717
28053SOL     OW86790   2.846   1.105   5.649  0.5312  0.1491 -0.1305
28053SOL    HW186791   2.883   1.185   5.688  1.9692 -0.0621 -0.9631
28053SOL    HW286792   2.790   1.137   5.578 -0.1974  0.4480  0.5610
28054SOL     OW86793   3.925   6.840   2.999  0.0656  0.3869  0.4256
28054SOL    HW186794   4.008   6.801   2.972 -0.1349  0.4749 -0.3651
28054SOL    HW286795   3.944   6.934   3.008  0.2186  0.3057  0.9408
28055SOL     OW86796   0.422   0.737   3.838  0.2069 -0.5289  0.3054
28055SOL    HW186797   0.368   0.703   3.767 -0.2983  0.6931  0.0756
28055SOL    HW286798   0.426   0.831   3.822  1.3996 -0.4404  1.0199
28056SOL     OW86799   7.210   9.831   9.128  0.1963  0.6332 -0.4198
28056SOL    HW186800   7.161   9.750   9.141 -2.0572  1.9356 -0.2285
28056SOL    HW286801   7.213   9.843   9.033 -0.9912  1.1693 -0.4003
28057SOL     OW86802   4.727   3.159   7.236  0.5185  0.0662  0.5676
28057SOL    HW186803   4.760   3.248   7.235 -1.3261  0.7971  0.2983
28057SOL    HW286804   4.740   3.127   7.147 -1.5732  1.2025 -0.2058
28058SOL     OW86805   4.217   1.286   2.373  0.5967 -0.1576 -0.2993
28058SOL    HW186806   4.201   1.220   2.306  0.6583 -0.4076 -0.0706
28058SOL    HW286807   4.139   1.284   2.428  0.7387 -0.2747 -0.1000
28059SOL     OW86808  10.259   0.377   0.501  0.5650 -0.1485 -0.2581
28059SOL    HW186809  10.252   0.347   0.591  0.3483  1.3350  0.2540
28059SOL    HW286810  10.172   0.361   0.463 -0.5873  2.5899  0.9578
28060SOL     OW86811   2.463   9.131   0.636 -0.3235  0.5535  0.6405
28060SOL    HW186812   2.382   9.165   0.674 -0.1812  1.6677 -0.0322
28060SOL    HW286813   2.452   9.036   0.639 -2.0494  0.6820 -0.2487
28061SOL     OW86814   0.835   8.660   8.369 -0.4449  0.2773 -0.3044
28061SOL    HW186815   0.745   8.627   8.372 -0.6762  0.7793 -1.1846
28061SOL    HW286816   0.864   8.642   8.280  0.2264  0.3825 -0.1138
28062SOL     OW86817   1.003   6.297   7.911  0.6237 -0.3166 -0.0684
28062SOL    HW186818   1.034   6.302   7.821 -0.1305 -0.1913 -0.3256
28062SOL    HW286819   0.908   6.302   7.904  0.5685 -0.0880  0.7521
28063SOL     OW86820   9.098   0.707   1.449 -0.0344  0.1772 -0.4706
28063SOL    HW186821   9.159   0.651   1.496 -0.5272 -2.9870 -3.2559
28063SOL    HW286822   9.154   0.769   1.402  0.8645 -0.7763 -0.6937
28064SOL     OW86823   9.340   4.823   0.075 -0.2819  0.2372 -0.1350
28064SOL    HW186824   9.367   4.817   0.167 -0.5121 -3.9679 -0.1514
28064SOL    HW286825   9.245   4.813   0.077 -0.2236 -0.5655 -0.8520
28065SOL     OW86826   5.764   4.702   1.066 -0.3212 -0.3988  0.2119
28065SOL    HW186827   5.693   4.639   1.051 -0.7964  0.1281  0.2193
28065SOL    HW286828   5.739   4.779   1.016  0.9244 -0.6730 -0.8982
28066SOL     OW86829   6.501   2.549   8.347 -0.1293 -0.2327  0.1865
28066SOL    HW186830   6.516   2.465   8.304 -0.1739  1.2242 -3.0324
28066SOL    HW286831   6.411   2.572   8.323  0.0828  0.9818  0.4879
28067SOL     OW86832   5.782   8.286   8.279 -0.0091 -0.4739  0.2888
28067SOL    HW186833   5.790   8.221   8.209  0.7133  0.3289 -0.4007
28067SOL    HW286834   5.783   8.370   8.233  1.8123  0.1307  1.3250
28068SOL     OW86835   5.660   3.827   6.249 -0.2288 -0.4154  0.2552
28068SOL    HW186836   5.597   3.761   6.278 -1.4929  0.5697 -0.1509
28068SOL    HW286837   5.609   3.908   6.241  0.3886 -0.2283 -3.0671
28069SOL     OW86838   2.135   1.787   6.307 -0.3333  0.0269  0.2104
28069SOL    HW186839   2.092   1.869   6.282 -0.4447 -0.2623 -0.5818
28069SOL    HW286840   2.226   1.811   6.321 -0.3624  0.2810 -0.0259
28070SOL     OW86841   3.066   9.834   9.771 -0.0992 -0.5845  0.5427
28070SOL    HW186842   3.142   9.778   9.757  0.0133 -0.4303  0.5382
28070SOL    HW286843   3.058   9.884   9.689 -0.5887 -1.0618  0.2934
28071SOL     OW86844   1.456   4.364   4.132 -0.0893 -0.1713 -0.3554
28071SOL    HW186845   1.454   4.305   4.057  0.5047 -0.7358  0.0607
28071SOL    HW286846   1.532   4.335   4.183  0.5728  1.3239 -0.4368
28072SOL     OW86847   1.126   8.228   8.317 -0.5718  0.0225  0.4867
28072SOL    HW186848   1.205   8.183   8.347 -0.3538  0.7110  0.9630
28072SOL    HW286849   1.060   8.209   8.384 -0.6407 -0.0384  0.4032
28073SOL     OW86850   0.383   3.876   7.071 -0.3444 -0.2009 -0.6949
28073SOL    HW186851   0.463   3.885   7.019  0.2242 -0.3945  0.1202
28073SOL    HW286852   0.405   3.811   7.137 -1.3603 -0.6578 -0.7801
28074SOL     OW86853   8.693   6.081   5.803 -0.4234  0.0159 -0.3061
28074SOL    HW186854   8.601   6.060   5.822 -0.8610  0.5464 -1.7498
28074SOL    HW286855   8.735   5.996   5.791 -0.7213 -0.2291  0.3057
28075SOL     OW86856   4.528   7.410   1.531  0.2533 -0.1868 -0.0201
28075SOL    HW186857   4.443   7.373   1.557  0.8140 -1.2336  0.4108
28075SOL    HW286858   4.517   7.432   1.438 -0.0493 -1.7428 -0.3941
28076SOL     OW86859   4.011   0.826   9.504 -0.1120 -0.7144  0.2117
28076SOL    HW186860   3.967   0.828   9.589 -0.5000  2.7266  0.0712
28076SOL    HW286861   3.940   0.831   9.440  0.2766  0.6344 -0.1453
28077SOL     OW86862   9.867   1.830   6.940  0.4939 -0.3951  0.1416
28077SOL    HW186863   9.943   1.861   6.988 -1.8011  0.8289  3.3798
28077SOL    HW286864   9.875   1.735   6.939  1.1422 -0.3993  2.1924
28078SOL     OW86865   2.853   8.278   9.772 -0.2212  0.8628 -0.3861
28078SOL    HW186866   2.932   8.253   9.821  0.2994  0.8366 -1.2229
28078SOL    HW286867   2.791   8.304   9.840  0.1112 -0.2122  0.3648
28079SOL     OW86868   2.394   1.728   1.677  0.1111 -0.4980  0.1736
28079SOL    HW186869   2.329   1.666   1.711 -0.8391  0.5207  0.2638
28079SOL    HW286870   2.343   1.797   1.635  1.2013 -0.5592 -1.3481
28080SOL     OW86871  10.354   6.305   4.105  0.1272 -0.5313 -0.1643
28080SOL    HW186872  10.427   6.360   4.075 -0.5264  0.7760  0.5457
28080SOL    HW286873  10.381   6.216   4.083  0.8461  0.1145 -2.1405
28081SOL     OW86874   1.945   6.019   1.938  0.0293 -0.3509  0.6399
28081SOL    HW186875   1.945   5.957   2.011 -0.9443 -1.1001  0.0210
28081SOL    HW286876   1.898   6.095   1.972 -0.2530 -0.6221  0.8654
28082SOL     OW86877   9.031   9.677   0.728  0.1424 -0.5677  0.3650
28082SOL    HW186878   9.101   9.660   0.791  0.2983 -0.0993  0.3164
28082SOL    HW286879   8.962   9.718   0.779  0.5442  0.4521  0.0989
28083SOL     OW86880   0.703   9.261   7.569  0.4484  0.2411 -0.3650
28083SOL    HW186881   0.693   9.332   7.633  2.0376  0.7370 -0.6157
28083SOL    HW286882   0.788   9.221   7.591  0.0162 -0.9756 -0.8258
28084SOL     OW86883   6.994   6.678   2.006 -0.0437 -0.0777  0.2133
28084SOL    HW186884   6.902   6.690   2.030 -0.1134 -0.8316  0.3586
28084SOL    HW286885   7.011   6.585   2.022  1.3724  0.4905  2.3857
28085SOL     OW86886   1.902   9.346   7.869 -0.1173  0.0659 -0.3683
28085SOL    HW186887   1.913   9.441   7.866 -1.5779  0.2429 -1.5860
28085SOL    HW286888   1.964   9.312   7.804 -0.4579  0.3062 -0.8264
28086SOL     OW86889   7.793   6.646   5.183  0.5890 -0.4102 -0.3314
28086SOL    HW186890   7.880   6.677   5.157  1.0958  0.9925  2.6405
28086SOL    HW286891   7.808   6.595   5.262 -1.3136  0.2550  0.5117
28087SOL     OW86892   6.831   3.862   0.889 -0.4595 -0.0248  0.3496
28087SOL    HW186893   6.807   3.811   0.812  0.6554  0.8921 -0.6491
28087SOL    HW286894   6.765   3.931   0.894 -1.5400 -1.0764  1.2712
28088SOL     OW86895   9.740   0.970   2.535  0.2750 -0.5236 -0.4895
28088SOL    HW186896   9.716   1.019   2.614  0.1358 -0.3718 -0.6250
28088SOL    HW286897   9.660   0.968   2.482  0.4109 -0.4839 -0.6982
28089SOL     OW86898   1.657   1.040   4.342  0.4243 -0.2979  0.2795
28089SOL    HW186899   1.579   0.994   4.310  1.7747 -3.5679  1.2535
28089SOL    HW286900   1.646   1.130   4.311 -3.0376 -0.9177 -0.7769
28090SOL     OW86901   7.481   1.446   7.551  0.0393 -0.1947 -0.7230
28090SOL    HW186902   7.426   1.383   7.504  0.4224 -0.7358 -0.4616
28090SOL    HW286903   7.499   1.515   7.487  0.6945 -1.0082 -1.4332
28091SOL     OW86904   6.879   1.286   6.475  0.4580 -0.9126 -0.2020
28091SOL    HW186905   6.826   1.263   6.399 -0.1687 -0.5120  0.1032
28091SOL    HW286906   6.928   1.364   6.446 -1.4699  0.6562  0.4907
28092SOL     OW86907  10.149   3.976  10.235 -0.0951 -0.0763  0.2931
28092SOL    HW186908  10.195   3.936  10.309 -1.1333 -0.4067  0.7802
28092SOL    HW286909  10.208   4.046  10.206  0.8766 -0.7246  0.6465
28093SOL     OW86910   8.889   5.128   6.325 -0.3432  0.6286  0.8950
28093SOL    HW186911   8.817   5.104   6.383 -0.1457  0.0278  0.8975
28093SOL    HW286912   8.959   5.066   6.346  0.0547  0.9823  0.6494
28094SOL     OW86913   6.424   7.332   2.272 -0.1746  0.0269 -0.1862
28094SOL    HW186914   6.435   7.239   2.293  1.2679 -0.1784 -1.7234
28094SOL    HW286915   6.512   7.364   2.257 -0.6765  1.6117  0.0649
28095SOL     OW86916  10.328   4.165   7.137  0.4132  0.1013 -0.4138
28095SOL    HW186917  10.247   4.153   7.087  1.2117  0.5231 -1.8819
28095SOL    HW286918  10.382   4.090   7.110  0.7186  0.1252  0.1357
28096SOL     OW86919   0.026   8.691   8.608 -0.5811  0.3177  0.5476
28096SOL    HW186920   0.005   8.621   8.670 -1.4255  1.2249  1.3214
28096SOL    HW286921  -0.017   8.769   8.645  1.2405  1.4890  0.2933
28097SOL     OW86922   0.212   6.688   3.943  0.1517 -0.1462  0.2556
28097SOL    HW186923   0.117   6.689   3.934 -0.0185 -1.2949  1.5289
28097SOL    HW286924   0.230   6.758   4.006  0.1523  0.1264 -0.0496
28098SOL     OW86925   9.023   9.473   1.642  0.0704 -0.2701 -0.0212
28098SOL    HW186926   9.038   9.380   1.658 -0.7580 -0.2416  1.0493
28098SOL    HW286927   9.109   9.507   1.617  0.1032 -1.5696 -1.8350
28099SOL     OW86928   5.648   9.289   4.893  0.2027  0.6048  0.1582
28099SOL    HW186929   5.657   9.217   4.830 -0.2999  0.1017  0.6448
28099SOL    HW286930   5.724   9.345   4.877  1.2455 -0.6423  0.5421
28100SOL     OW86931  10.218  10.296   9.938 -0.4801  0.1654 -0.0730
28100SOL    HW186932  10.285  10.265  10.000  1.8651  0.2096 -2.4107
28100SOL    HW286933  10.135  10.274   9.980  0.9884 -1.0086  2.4567
28101SOL     OW86934   6.836   8.321   7.179 -0.2329  0.3525  0.6055
28101SOL    HW186935   6.892   8.312   7.101  0.0343  0.1367  0.8204
28101SOL    HW286936   6.841   8.414   7.201 -2.3294  0.9803 -1.1261
28102SOL     OW86937   0.754   3.218   3.632 -0.0873  0.3100 -0.0705
28102SOL    HW186938   0.810   3.236   3.556 -1.1567  1.1298 -0.6992
28102SOL    HW286939   0.810   3.235   3.708  0.8139  0.1003 -0.6824
28103SOL     OW86940  10.006   3.461   3.579  0.2246  0.4195 -0.5417
28103SOL    HW186941  10.024   3.449   3.486  0.6122  1.7840 -0.6641
28103SOL    HW286942  10.075   3.520   3.609 -1.4224  2.1786 -0.0123
28104SOL     OW86943   6.133   2.380   8.111  0.4338  0.0619 -0.2915
28104SOL    HW186944   6.186   2.449   8.150 -1.0933  0.6295  0.9192
28104SOL    HW286945   6.168   2.299   8.148 -0.4684  0.5321  1.7490
28105SOL     OW86946   4.955   7.218   5.813  0.7505 -0.5829 -0.4658
28105SOL    HW186947   4.977   7.134   5.853  0.6130 -0.3526  0.1108
28105SOL    HW286948   4.998   7.283   5.869 -0.9886 -0.1357  0.4455
28106SOL     OW86949   7.115   5.469   9.128  0.4057  0.4024  0.0182
28106SOL    HW186950   7.100   5.531   9.199  1.0480  0.8627 -0.2325
28106SOL    HW286951   7.032   5.466   9.080  0.1756  0.5918  0.4008
28107SOL     OW86952   4.805   2.460   4.001 -0.1884 -0.0634 -0.0835
28107SOL    HW186953   4.831   2.451   3.909 -0.8812  0.8424 -0.3880
28107SOL    HW286954   4.887   2.458   4.050  0.2335  0.0102 -0.7711
28108SOL     OW86955   8.924   8.404   3.972  0.4891  0.5427  0.6807
28108SOL    HW186956   9.007   8.357   3.976  1.4408  2.1298  0.2582
28108SOL    HW286957   8.859   8.335   3.959  1.8583 -0.6331 -0.2580
28109SOL     OW86958  10.330   1.068   5.609 -0.3502  0.1417 -0.6006
28109SOL    HW186959  10.357   0.994   5.664  1.1293  0.8285 -0.3591
28109SOL    HW286960  10.248   1.098   5.649  0.4092  0.2771  0.9296
28110SOL     OW86961   4.733   5.352   3.370  0.4998 -0.1863 -0.4999
28110SOL    HW186962   4.766   5.382   3.454  3.2232 -0.6812 -1.2994
28110SOL    HW286963   4.753   5.423   3.309  1.1548 -0.9895 -1.2378
28111SOL     OW86964   8.689   1.787   1.179  0.3426  0.4941 -0.1336
28111SOL    HW186965   8.684   1.772   1.085  0.7948  2.6040 -0.5505
28111SOL    HW286966   8.597   1.786   1.208  0.2677 -1.5471 -0.2954
28112SOL     OW86967   3.178   6.272   2.387  0.2519 -0.1505  0.1428
28112SOL    HW186968   3.120   6.327   2.440  0.4283 -0.7841  1.0086
28112SOL    HW286969   3.264   6.312   2.397  0.3693 -0.5440  0.7234
28113SOL     OW86970   7.500   4.822   3.361  0.2458 -0.2093  0.2659
28113SOL    HW186971   7.427   4.836   3.421  0.4459  0.7747  0.2849
28113SOL    HW286972   7.468   4.755   3.300 -1.6878  2.0273 -1.3506
28114SOL     OW86973   5.879   3.285   6.373  0.6993 -0.3179 -0.2938
28114SOL    HW186974   5.958   3.270   6.321  0.6004  1.5227 -1.0640
28114SOL    HW286975   5.849   3.372   6.346 -1.3719 -0.8039  0.2762
28115SOL     OW86976   4.449   3.795   2.121  0.0567  0.0039  0.5729
28115SOL    HW186977   4.402   3.879   2.126 -0.6325 -0.3501  0.2855
28115SOL    HW286978   4.525   3.813   2.066 -1.0195  0.0426 -0.9620
28116SOL     OW86979   4.488  10.019   4.667 -0.0185  0.7335  0.3610
28116SOL    HW186980   4.474  10.042   4.576  0.1591 -1.2994 -0.2290
28116SOL    HW286981   4.583  10.014   4.677 -0.0551 -0.1819  0.3306
28117SOL     OW86982   0.439   8.077  10.288 -0.4543  0.0488  0.4351
28117SOL    HW186983   0.394   8.063  10.371 -0.5141  0.3999  0.4640
28117SOL    HW286984   0.421   8.169  10.266 -1.5922 -0.4099 -0.6482
28118SOL     OW86985   7.120   7.929   8.123  0.0387 -0.0373 -0.5645
28118SOL    HW186986   7.031   7.893   8.118 -0.3626  0.8304  0.0871
28118SOL    HW286987   7.113   8.016   8.084  0.8257 -0.3270 -1.3814
28119SOL     OW86988   8.245  10.101   0.007  0.5391 -0.1074 -0.2022
28119SOL    HW186989   8.258  10.007   0.023  2.0691  0.1982  0.5101
28119SOL    HW286990   8.320  10.143   0.049  0.0006  1.4300 -0.7179
28120SOL     OW86991   0.813   6.693   3.232 -0.0004  0.2530 -0.0796
28120SOL    HW186992   0.874   6.762   3.259  1.7514 -0.9741 -0.7207
28120SOL    HW286993   0.828   6.622   3.294 -2.0741  0.5274  0.8220
28121SOL     OW86994   8.479   9.782   9.231 -0.4595 -0.1334 -0.0611
28121SOL    HW186995   8.558   9.734   9.206  0.3215  0.4764  1.1600
28121SOL    HW286996   8.435   9.801   9.148  1.1298  0.2793 -0.8320
28122SOL     OW86997   3.139   3.323   3.985 -0.3380 -0.5446 -0.0435
28122SOL    HW186998   3.149   3.238   4.028 -0.0778 -1.2288 -1.3962
28122SOL    HW286999   3.226   3.340   3.948 -0.9459 -0.7352 -1.6104
28123SOL     OW87000   5.701   1.388   9.575 -0.1026 -0.0337  0.5556
28123SOL    HW187001   5.693   1.325   9.503  0.6491 -0.4016  0.7850
28123SOL    HW287002   5.631   1.363   9.636 -0.2761 -0.1831  0.2980
28124SOL     OW87003   3.999   1.981   6.291  0.0782  0.2383  0.1321
28124SOL    HW187004   4.060   1.908   6.278 -0.8821 -0.5292 -0.2607
28124SOL    HW287005   3.989   2.019   6.204  0.0529  0.4100  0.2101
28125SOL     OW87006   4.243   4.858   0.720 -0.2480 -0.5588  0.2173
28125SOL    HW187007   4.231   4.883   0.628 -1.7721  3.3321  1.2954
28125SOL    HW287008   4.155   4.853   0.756  0.3733 -0.5806  1.8197
28126SOL     OW87009  10.222   3.183   5.282  0.0907  1.0994  0.1049
28126SOL    HW187010  10.182   3.262   5.319  0.0148  1.8260 -1.4418
28126SOL    HW287011  10.278   3.216   5.211 -0.8224 -0.3112 -1.3287
28127SOL     OW87012   9.722   8.537   7.585  0.2310  0.5370 -0.7043
28127SOL    HW187013   9.641   8.499   7.551 -0.1230  1.7399 -1.2743
28127SOL    HW287014   9.747   8.480   7.657 -0.7774 -0.2217 -0.9277
28128SOL     OW87015   0.343   8.568   5.779  0.0390  0.8041  0.7400
28128SOL    HW187016   0.260   8.548   5.821  0.1806  3.6923  2.6931
28128SOL    HW287017   0.408   8.518   5.829 -0.2797  0.3717  0.7262
28129SOL     OW87018   1.412  10.254   4.350  0.2851  0.0903  0.0280
28129SOL    HW187019   1.402  10.347   4.331  0.4387 -0.0221 -0.6043
28129SOL    HW287020   1.506  10.241   4.358  0.2697 -0.0405 -0.0011
28130SOL     OW87021   6.776   2.672   5.739  0.5044  0.4469 -0.6646
28130SOL    HW187022   6.684   2.644   5.745  0.3365  0.9157 -1.0217
28130SOL    HW287023   6.825   2.599   5.777  0.0465 -0.1816 -1.2510
28131SOL     OW87024   3.664   1.306   8.096  0.3770  0.1223 -0.0116
28131SOL    HW187025   3.715   1.229   8.070  0.5063  0.0270  0.4992
28131SOL    HW287026   3.573   1.276   8.095 -0.2169  1.3383 -4.8120
28132SOL     OW87027   2.136   7.496   5.327 -0.2966 -0.2690  0.0829
28132SOL    HW187028   2.126   7.579   5.374  1.0051  1.7260 -2.8123
28132SOL    HW287029   2.230   7.491   5.307 -0.4668 -2.0683 -0.4507
28133SOL     OW87030   7.159   8.991  10.026 -0.7917 -0.2652  0.4847
28133SOL    HW187031   7.150   8.959  10.116 -1.5561 -0.2719  0.4121
28133SOL    HW287032   7.251   9.017  10.019 -0.5828 -0.8132  1.0861
28134SOL     OW87033   5.978   5.896   3.557  0.5756 -0.4727 -0.2342
28134SOL    HW187034   5.919   5.821   3.565  1.1465 -0.8607  0.4610
28134SOL    HW287035   5.951   5.939   3.476  1.0185 -2.1304 -1.3145
28135SOL     OW87036   1.416  10.325   3.646 -0.5595 -0.0393  0.1984
28135SOL    HW187037   1.413  10.414   3.681  0.5163 -0.2763  0.9310
28135SOL    HW287038   1.452  10.335   3.558 -1.4230  0.3497 -0.1227
28136SOL     OW87039   5.511   2.098   0.642  0.3624  0.5675 -0.1657
28136SOL    HW187040   5.558   2.169   0.598  0.1097  1.3229  0.7486
28136SOL    HW287041   5.506   2.126   0.733 -0.3824 -0.2955  0.0689
28137SOL     OW87042   7.376   5.893   3.646 -0.2308  0.4972  0.2017
28137SOL    HW187043   7.369   5.958   3.715 -0.2360  0.8643 -0.1411
28137SOL    HW287044   7.413   5.816   3.689  2.4640  1.6012  0.0590
28138SOL     OW87045   6.129   9.567   3.832 -0.0972 -0.0001  0.4775
28138SOL    HW187046   6.094   9.560   3.744  0.8817 -1.4414  0.1715
28138SOL    HW287047   6.147   9.661   3.844 -1.8949  0.4524 -0.1658
28139SOL     OW87048   5.781   9.208   6.733 -0.5197 -0.1405  0.3583
28139SOL    HW187049   5.746   9.248   6.812 -0.8402 -1.5163  0.9332
28139SOL    HW287050   5.736   9.253   6.662  0.7901  2.0796  0.8599
28140SOL     OW87051   8.005   9.681   3.889 -0.1113  0.5984 -0.0299
28140SOL    HW187052   7.986   9.775   3.882  2.5038  1.1530 -0.6369
28140SOL    HW287053   8.015   9.652   3.798 -0.9251 -0.3077  0.1511
28141SOL     OW87054   5.839   7.969   3.898 -0.5525  0.2190  0.4311
28141SOL    HW187055   5.927   7.934   3.904  0.3750  1.8682 -2.0312
28141SOL    HW287056   5.797   7.943   3.980  0.8720 -4.0462  0.0361
28142SOL     OW87057   5.340   3.443   8.176  0.7601 -0.3783  0.1126
28142SOL    HW187058   5.308   3.533   8.164 -2.5501 -1.3491  0.5736
28142SOL    HW287059   5.381   3.421   8.092  0.0137  0.9963 -0.6556
28143SOL     OW87060   6.860   3.403   3.823  0.3561 -0.4989  0.0665
28143SOL    HW187061   6.902   3.448   3.897  0.2228  1.1817 -0.8264
28143SOL    HW287062   6.834   3.318   3.858  0.0034  0.3699  2.0438
28144SOL     OW87063   5.112   3.623   9.015 -0.2944 -0.7072 -0.5943
28144SOL    HW187064   5.023   3.640   9.045  0.3811  1.0296  0.6037
28144SOL    HW287065   5.117   3.528   9.008 -1.9389 -0.8992  0.2771
28145SOL     OW87066   0.747   5.102   0.701  0.0138 -0.3922 -0.0246
28145SOL    HW187067   0.767   5.168   0.634 -0.2468 -0.1255  0.1607
28145SOL    HW287068   0.757   5.019   0.655 -0.5623 -0.2017 -0.5055
28146SOL     OW87069   3.824   1.970   8.682 -0.0635  0.7510 -0.4447
28146SOL    HW187070   3.816   2.056   8.641 -0.9920  1.2946  0.7997
28146SOL    HW287071   3.854   1.989   8.771  0.3516 -0.2652 -0.3526
28147SOL     OW87072   7.103   2.426   9.445 -0.1023  0.2477  0.0163
28147SOL    HW187073   7.037   2.380   9.394  0.5515  0.7547 -1.3308
28147SOL    HW287074   7.093   2.392   9.534 -0.5135 -1.5153 -0.6633
28148SOL     OW87075   0.717   7.831   0.904 -0.4127  0.2834  0.2779
28148SOL    HW187076   0.810   7.854   0.902  0.0456 -1.3829 -2.5956
28148SOL    HW287077   0.672   7.916   0.900  1.0640  1.0568 -1.4262
28149SOL     OW87078   4.731   8.420   3.754  0.2517 -0.2718  0.1266
28149SOL    HW187079   4.766   8.404   3.667  0.0374  1.1352 -0.2427
28149SOL    HW287080   4.777   8.498   3.785 -1.7039  0.9628  0.0855
28150SOL     OW87081   8.447   9.373   2.801  0.4159 -0.0839  0.0324
28150SOL    HW187082   8.539   9.375   2.825  0.3565 -0.1306  0.2689
28150SOL    HW287083   8.442   9.422   2.719  0.5503  0.5254  0.3753
28151SOL     OW87084   1.267   6.700   7.406 -0.0407  0.3040  0.0051
28151SOL    HW187085   1.313   6.617   7.390 -1.1373 -0.1660 -0.8494
28151SOL    HW287086   1.257   6.738   7.319  1.0503  1.7027  0.4549
28152SOL     OW87087   4.282   4.443   0.283  0.2308 -0.4757  0.2055
28152SOL    HW187088   4.225   4.519   0.281  0.8880  0.1347  2.2038
28152SOL    HW287089   4.269   4.400   0.198 -2.3045  0.2572  0.1683
28153SOL     OW87090   9.063   1.697  10.046  0.3249  0.3042  0.8197
28153SOL    HW187091   9.039   1.610  10.076  0.7335  0.5062  1.7649
28153SOL    HW287092   8.988   1.726   9.994 -0.1045 -0.3368  1.0709
28154SOL     OW87093   6.365   3.377   8.506 -0.1909 -0.0197  0.0577
28154SOL    HW187094   6.441   3.320   8.515  1.7573  2.3300 -0.5169
28154SOL    HW287095   6.309   3.354   8.580  1.8525 -0.7285  1.4759
28155SOL     OW87096   5.800   5.147   5.325 -0.2388 -0.3976 -0.1649
28155SOL    HW187097   5.771   5.065   5.286 -0.4028 -0.3462 -0.1529
28155SOL    HW287098   5.761   5.147   5.413 -0.0587 -0.4089 -0.0857
28156SOL     OW87099   6.407   7.152   9.454  0.5885  0.3844  0.2286
28156SOL    HW187100   6.374   7.238   9.428 -2.0197 -0.4850  0.3046
28156SOL    HW287101   6.471   7.129   9.386 -0.0457  1.6027 -0.8333
28157SOL     OW87102   6.234   9.384   2.134  0.2384  0.1857 -0.2293
28157SOL    HW187103   6.245   9.382   2.229  3.0082  0.1907 -0.4566
28157SOL    HW287104   6.237   9.477   2.111 -1.3542  0.2453 -0.2759
28158SOL     OW87105   3.052   6.139   3.508  0.0100  0.0741  0.3108
28158SOL    HW187106   3.119   6.207   3.504 -0.3735  0.4161 -0.5973
28158SOL    HW287107   3.088   6.067   3.457 -0.8315  0.7559 -1.3238
28159SOL     OW87108   7.546   5.162   4.964  1.1456 -0.1396 -0.8342
28159SOL    HW187109   7.619   5.136   5.021  0.2120 -1.6450 -0.2558
28159SOL    HW287110   7.567   5.252   4.938  0.7117  1.4601  3.4842
28160SOL     OW87111   4.850   1.472   1.231 -0.1239  0.3228  0.2216
28160SOL    HW187112   4.840   1.379   1.210  0.1351  0.6728 -1.6558
28160SOL    HW287113   4.915   1.503   1.168  0.2987  1.6426  1.2706
28161SOL     OW87114   5.966   4.618   4.561 -0.0052  0.0459  0.1906
28161SOL    HW187115   5.972   4.583   4.649 -0.6093  1.3993  0.7971
28161SOL    HW287116   5.955   4.541   4.505  2.0997 -0.9907  1.0685
28162SOL     OW87117   1.762   2.814   1.822 -0.6417 -0.0253 -0.4815
28162SOL    HW187118   1.679   2.773   1.800 -1.6480  1.3074  0.6888
28162SOL    HW287119   1.760   2.898   1.775 -0.4248  0.4636  0.3732
28163SOL     OW87120   6.473   5.863  10.023  0.6570  0.0771 -0.2905
28163SOL    HW187121   6.478   5.956  10.045  0.6698  0.0262 -0.0773
28163SOL    HW287122   6.464   5.819  10.107  0.8753 -0.1306 -0.3758
28164SOL     OW87123   2.081   6.689   3.574 -0.2556 -0.3787 -0.4550
28164SOL    HW187124   2.169   6.727   3.579 -0.7755  1.0222 -1.1430
28164SOL    HW287125   2.027   6.747   3.628 -0.9792 -0.4337 -1.0913
28165SOL     OW87126   7.513   4.465   6.279 -0.1220 -0.0198 -0.0298
28165SOL    HW187127   7.468   4.540   6.239 -1.0310  0.5079  1.8469
28165SOL    HW287128   7.463   4.448   6.359  0.7379 -1.9503  0.1340
28166SOL     OW87129   8.308   2.612   1.210  0.6668 -0.1618 -0.2175
28166SOL    HW187130   8.400   2.639   1.204  1.1130 -1.4467  0.4779
28166SOL    HW287131   8.268   2.676   1.269  1.2447  0.0776 -0.0810
28167SOL     OW87132   5.540   2.013   9.021 -0.6575  0.3379 -0.0287
28167SOL    HW187133   5.580   1.974   8.943  0.8189  0.2578  0.7309
28167SOL    HW287134   5.506   1.939   9.070 -1.2768  0.3583 -0.4187
28168SOL     OW87135   7.322  10.020   2.810  0.0153  1.0444  0.0302
28168SOL    HW187136   7.375  10.034   2.731  0.3112 -1.2704 -0.2713
28168SOL    HW287137   7.343  10.094   2.867  1.8913  1.3548 -0.9782
28169SOL     OW87138   2.035   3.255   2.373 -0.3177  0.0743 -0.3797
28169SOL    HW187139   2.097   3.183   2.385 -0.4614  0.2739  1.8517
28169SOL    HW287140   2.002   3.242   2.284  0.6090 -1.8515 -0.5066
28170SOL     OW87141   9.811   6.626   4.941  0.0242 -0.4156  0.2256
28170SOL    HW187142   9.832   6.593   5.028 -0.0909  0.4715  0.6004
28170SOL    HW287143   9.798   6.547   4.888  0.5902 -0.9607  0.8841
28171SOL     OW87144   4.506   1.805   9.579  0.2768 -0.0103  0.1120
28171SOL    HW187145   4.529   1.720   9.616  0.5576 -0.3285 -0.7650
28171SOL    HW287146   4.434   1.836   9.634 -0.9181 -1.5380 -0.5088
28172SOL     OW87147   4.704   9.182   1.159  0.0876 -0.2958 -0.6593
28172SOL    HW187148   4.789   9.222   1.174  0.4150 -1.2300  0.0389
28172SOL    HW287149   4.648   9.255   1.133  0.5682  0.7067  0.9663
28173SOL     OW87150   6.113   2.961   7.260 -0.0834 -0.3690  0.3580
28173SOL    HW187151   6.191   2.944   7.313  0.3377 -0.5614 -0.3185
28173SOL    HW287152   6.048   2.900   7.293  0.3489 -0.8778  0.2855
28174SOL     OW87153   7.174   3.020   8.355 -0.1373  0.2941 -0.0045
28174SOL    HW187154   7.243   2.984   8.298 -1.0876 -2.0424  0.2087
28174SOL    HW287155   7.205   3.108   8.376  2.3177 -0.3055 -0.6967
28175SOL     OW87156   4.766   2.558   9.675 -0.3864  0.0735 -0.1727
28175SOL    HW187157   4.861   2.546   9.677 -0.6047 -2.0228  0.7164
28175SOL    HW287158   4.741   2.536   9.585 -0.0488  0.7004 -0.4283
28176SOL     OW87159   0.272   0.961   0.741 -0.2079 -0.0897  0.2963
28176SOL    HW187160   0.238   0.872   0.742  0.1988 -0.2487  0.2820
28176SOL    HW287161   0.324   0.966   0.661 -2.1675  0.9152 -0.9875
28177SOL     OW87162   5.026   4.405   7.197 -0.1777 -0.2465  0.0786
28177SOL    HW187163   5.058   4.467   7.131 -2.8832 -0.6169 -1.7447
28177SOL    HW287164   4.973   4.459   7.256 -1.3233 -0.5419 -0.6497
28178SOL     OW87165   0.154   9.505   5.316  0.1337  0.5790 -0.7677
28178SOL    HW187166   0.144   9.411   5.301  1.6403  0.0413  1.1182
28178SOL    HW287167   0.090   9.525   5.384  0.3353  0.7462 -0.6257
28179SOL     OW87168   4.560   3.619   6.187 -0.5021 -0.2985 -0.3893
28179SOL    HW187169   4.598   3.693   6.234  0.0038 -0.9560  0.2628
28179SOL    HW287170   4.515   3.659   6.113  1.5271  0.5205 -1.2525
28180SOL     OW87171   0.394   5.335   1.462 -0.3537 -0.1922 -0.3020
28180SOL    HW187172   0.417   5.362   1.551  2.9906 -0.5286 -0.9689
28180SOL    HW287173   0.328   5.266   1.474 -0.3064  0.0834  1.8634
28181SOL     OW87174   4.182   8.302   2.470  0.0740  0.3258 -0.0455
28181SOL    HW187175   4.140   8.217   2.461  2.1734 -0.7772 -0.1095
28181SOL    HW287176   4.242   8.291   2.544  1.6198  1.1758 -1.1120
28182SOL     OW87177   5.609   4.542   9.461  0.2543  0.8423  0.0461
28182SOL    HW187178   5.691   4.587   9.483  0.6727 -0.3543  1.0681
28182SOL    HW287179   5.614   4.459   9.509 -1.6875  0.8750  0.3747
28183SOL     OW87180   2.329   3.654   8.347  0.1253  0.5098  0.4279
28183SOL    HW187181   2.357   3.616   8.431  2.8848 -1.8746 -1.3693
28183SOL    HW287182   2.391   3.725   8.331 -1.4584  2.1215  1.0790
28184SOL     OW87183   1.563   1.236  10.280  0.1615  0.3987  0.9093
28184SOL    HW187184   1.540   1.184  10.357 -0.2709  0.7327  1.0093
28184SOL    HW287185   1.627   1.182  10.233 -0.4120 -0.3012  0.9182
28185SOL     OW87186   6.315   8.844   2.237 -0.0909 -0.4002  0.1669
28185SOL    HW187187   6.257   8.768   2.245 -0.9186  0.0497 -1.1880
28185SOL    HW287188   6.322   8.858   2.142  1.0672  0.4538  0.3612
28186SOL     OW87189   6.499   8.447   6.543  0.6344  0.3422  0.3255
28186SOL    HW187190   6.540   8.374   6.497  1.6222  1.1288 -0.0881
28186SOL    HW287191   6.476   8.411   6.629 -0.1222 -0.8054 -0.3263
28187SOL     OW87192   0.164   9.963   1.058 -0.1923 -0.4039 -0.1471
28187SOL    HW187193   0.104   9.914   1.114  0.4225  1.9664  2.8784
28187SOL    HW287194   0.161  10.052   1.092  4.2114  0.0737 -0.4355
28188SOL     OW87195   7.734   3.698   4.771  0.3103  0.0824  0.3944
28188SOL    HW187196   7.689   3.678   4.853 -0.2105 -1.1321 -0.1583
28188SOL    HW287197   7.741   3.614   4.726  1.2623  0.6021 -0.4751
28189SOL     OW87198   6.337   9.977   8.084  0.1961  0.0735 -0.2852
28189SOL    HW187199   6.362  10.041   8.151  2.1903  0.8326 -1.6431
28189SOL    HW287200   6.245   9.995   8.067  0.7335  2.8530 -0.7772
28190SOL     OW87201   1.652   2.113   1.194 -0.3002  0.1827 -0.0550
28190SOL    HW187202   1.654   2.033   1.246 -1.1423  0.7568  0.8828
28190SOL    HW287203   1.719   2.099   1.127  0.9052 -0.5310  1.2323
28191SOL     OW87204   9.536   8.909   5.070  0.9708  0.3134  0.4595
28191SOL    HW187205   9.517   8.967   4.996 -2.3131  0.4759  1.2953
28191SOL    HW287206   9.513   8.822   5.039 -1.5531  0.5232  1.5421
28192SOL     OW87207   4.594   3.910   4.935 -0.6561 -0.1017 -0.6176
28192SOL    HW187208   4.624   3.994   4.969 -1.5149 -0.1719  0.3543
28192SOL    HW287209   4.652   3.892   4.861 -1.0558  1.8074 -1.4583
28193SOL     OW87210   9.882   6.901  10.013  0.2765  0.5523 -0.4137
28193SOL    HW187211   9.919   6.961  10.078 -0.1440 -0.0577  0.3961
28193SOL    HW287212   9.824   6.957   9.961 -0.0685  0.8643  0.2951
28194SOL     OW87213   7.866   2.947   0.512 -0.0259  0.0563  0.2646
28194SOL    HW187214   7.901   2.872   0.464 -0.8236 -0.0112 -0.2424
28194SOL    HW287215   7.870   3.020   0.450  0.2383  0.3013  0.5693
28195SOL     OW87216  10.359   0.042   2.257 -0.4055 -0.2506  0.1112
28195SOL    HW187217  10.296   0.113   2.270  0.7158  0.7103  0.5013
28195SOL    HW287218  10.312  -0.023   2.206 -0.9129  1.6254 -1.9931
28196SOL     OW87219   0.499   8.888   0.764  0.0948 -0.6248 -0.2741
28196SOL    HW187220   0.463   8.861   0.849  0.3998  1.1385  0.4573
28196SOL    HW287221   0.519   8.806   0.720 -0.6529 -1.5994  1.1000
28197SOL     OW87222   3.634   7.390   6.156 -0.6795 -0.4892 -0.0441
28197SOL    HW187223   3.551   7.436   6.145 -0.7648 -0.1624  1.6584
28197SOL    HW287224   3.609   7.299   6.172 -0.5234 -1.1655 -3.0232
28198SOL     OW87225   0.942   3.744   1.206  0.0209  0.3113 -0.0379
28198SOL    HW187226   0.945   3.652   1.232 -0.6905  0.1578 -0.4645
28198SOL    HW287227   0.945   3.743   1.110  2.8969  0.8836 -0.0419
28199SOL     OW87228   5.905   5.292   0.350 -0.2849  0.3630  0.1537
28199SOL    HW187229   5.985   5.243   0.369 -0.8795 -0.2772  1.1184
28199SOL    HW287230   5.863   5.243   0.280  0.4992  1.1062 -0.8697
28200SOL     OW87231   2.500   4.411  10.169 -0.6596  0.1325  0.0763
28200SOL    HW187232   2.550   4.465  10.230 -0.1334 -0.4653  0.1798
28200SOL    HW287233   2.418   4.459  10.157 -0.0185  1.1951 -0.2046
28201SOL     OW87234   3.064   1.383   0.480  0.1454  0.0916 -0.5117
28201SOL    HW187235   2.986   1.393   0.535  0.9896 -0.4717  0.8668
28201SOL    HW287236   3.039   1.418   0.395 -1.5764 -0.0078 -0.0780
28202SOL     OW87237   1.594   0.339   2.722 -0.0957  0.4254 -0.5295
28202SOL    HW187238   1.582   0.314   2.814 -1.9266  0.1633 -0.7994
28202SOL    HW287239   1.508   0.371   2.695  0.1812 -0.3095 -2.3835
28203SOL     OW87240   5.362   3.082   8.412 -0.4003 -0.3105 -0.4697
28203SOL    HW187241   5.332   2.992   8.400 -1.2504 -0.0850 -0.1145
28203SOL    HW287242   5.283   3.135   8.404 -0.2260  0.2451  1.1845
28204SOL     OW87243   6.299   1.017   4.842 -0.9114  0.4405  0.1917
28204SOL    HW187244   6.330   1.025   4.752 -0.2910  0.0946  0.3721
28204SOL    HW287245   6.205   1.001   4.834 -0.8806  0.5444 -0.3857
28205SOL     OW87246   3.911   2.740   7.185 -0.1735 -0.4543 -0.2957
28205SOL    HW187247   3.999   2.738   7.148 -0.4068  1.4361 -1.0808
28205SOL    HW287248   3.854   2.706   7.116 -0.3190  0.6671 -0.7452
28206SOL     OW87249   0.565   4.958   4.253  0.1497  0.8371 -0.9286
28206SOL    HW187250   0.569   4.932   4.345 -1.2357  1.2965 -0.7216
28206SOL    HW287251   0.657   4.969   4.227  0.6233 -0.7736 -0.0431
28207SOL     OW87252   8.994   4.258   7.737 -0.6708 -0.0111 -0.4358
28207SOL    HW187253   8.899   4.254   7.734 -0.8340  2.4747 -0.6157
28207SOL    HW287254   9.021   4.259   7.645 -0.5989  0.9262 -0.4123
28208SOL     OW87255   9.352   9.555   9.011 -0.9786  0.3373 -0.0887
28208SOL    HW187256   9.416   9.491   9.042 -1.4696 -0.4531 -0.6739
28208SOL    HW287257   9.279   9.503   8.979 -1.4574  1.1986 -0.4501
28209SOL     OW87258   5.005   9.379   9.699  0.3697  0.8050 -0.0765
28209SOL    HW187259   5.025   9.469   9.726 -0.9496  1.0048  0.2735
28209SOL    HW287260   4.918   9.384   9.659  0.3907 -0.2764 -0.2965
28210SOL     OW87261   1.431   8.298   8.325 -0.4242 -0.4307  0.1948
28210SOL    HW187262   1.512   8.310   8.374 -0.0834  0.8640 -0.6269
28210SOL    HW287263   1.366   8.350   8.372  0.6000  3.5287 -2.2643
28211SOL     OW87264   4.050   7.142   2.691  0.0372 -0.1659 -0.3465
28211SOL    HW187265   3.983   7.101   2.636 -0.2125  0.3951 -0.4648
28211SOL    HW287266   4.123   7.080   2.689 -0.5704 -0.9251  0.0048
28212SOL     OW87267   6.851   7.905   6.162  0.7711  0.3339 -0.2593
28212SOL    HW187268   6.913   7.917   6.090  2.0445 -0.4797  0.6465
28212SOL    HW287269   6.888   7.833   6.213 -1.0762 -0.3366  0.1872
28213SOL     OW87270   5.507   8.588   9.345  0.0358  0.1153 -0.3652
28213SOL    HW187271   5.596   8.577   9.311 -0.9159 -1.7519 -2.5894
28213SOL    HW287272   5.504   8.532   9.423  1.4027  2.0654  1.1853
28214SOL     OW87273   5.733   2.450   3.835  0.2768 -0.3141 -0.4051
28214SOL    HW187274   5.784   2.487   3.907  1.1215 -1.2670 -0.5071
28214SOL    HW287275   5.693   2.527   3.793  0.2181  0.2966  0.7242
28215SOL     OW87276   5.139   6.335   6.856  0.6836  0.0059 -0.0436
28215SOL    HW187277   5.134   6.297   6.944  0.5156  0.1359  0.0020
28215SOL    HW287278   5.088   6.275   6.802  0.3743  0.1925  0.0385
28216SOL     OW87279   0.416   4.259   5.616 -0.0352  0.0458  0.3738
28216SOL    HW187280   0.329   4.298   5.602 -0.2381 -1.0183 -1.7182
28216SOL    HW287281   0.421   4.245   5.710 -1.1098  2.3966  0.8508
28217SOL     OW87282  10.105   8.548   8.549 -0.8042 -0.1551 -0.0517
28217SOL    HW187283  10.145   8.514   8.469 -0.0199 -0.3069  0.3992
28217SOL    HW287284  10.114   8.477   8.613 -0.5155  0.3302  0.4586
28218SOL     OW87285   0.046   5.247   7.230 -0.5312  0.2398  0.0532
28218SOL    HW187286   0.095   5.184   7.283  0.3367 -1.8947 -3.0207
28218SOL    HW287287   0.110   5.314   7.207  0.0318 -0.6639 -1.0654
28219SOL     OW87288   8.836   9.503   9.748 -0.0763 -0.1764  0.0707
28219SOL    HW187289   8.807   9.464   9.830  0.2612  0.8357  0.7002
28219SOL    HW287290   8.931   9.488   9.746 -0.1690 -0.7462 -0.4512
28220SOL     OW87291   2.063   4.695   7.758 -0.1376 -0.0697 -0.2052
28220SOL    HW187292   2.082   4.604   7.780 -0.5522  0.0337  0.6048
28220SOL    HW287293   1.995   4.722   7.820 -0.0445  0.7846 -0.4535
28221SOL     OW87294   3.175   7.054   5.008  0.1030  0.0997 -0.2591
28221SOL    HW187295   3.154   6.992   5.078  2.5795  1.7639  2.1943
28221SOL    HW287296   3.271   7.060   5.010  0.1980  0.9376 -3.2335
28222SOL     OW87297   6.876   6.879  10.023  0.0729 -0.1299  0.1568
28222SOL    HW187298   6.792   6.896  10.067  0.6822  1.2207  0.8634
28222SOL    HW287299   6.942   6.908  10.086  1.0820 -1.1462 -0.4000
28223SOL     OW87300   7.725   5.047   2.236  0.0947  0.2199 -0.0171
28223SOL    HW187301   7.637   5.027   2.267  0.4486 -1.0695  0.1927
28223SOL    HW287302   7.723   5.142   2.221 -0.1195  0.9907  3.8744
28224SOL     OW87303   8.328   4.870   1.815  0.3695  0.3708 -0.0993
28224SOL    HW187304   8.245   4.889   1.858  0.6398 -0.2281  0.7266
28224SOL    HW287305   8.304   4.827   1.733 -0.1484  0.9770 -0.2627
28225SOL     OW87306   9.889   2.389   8.197 -0.6408  0.1374  0.1323
28225SOL    HW187307   9.814   2.329   8.198 -0.0114 -0.6940 -0.3693
28225SOL    HW287308   9.851   2.475   8.212 -1.7531 -0.2068 -0.5637
28226SOL     OW87309   1.895   8.107   2.121 -0.1751  0.2384  0.7808
28226SOL    HW187310   1.830   8.057   2.170 -1.9250  1.7002  0.0183
28226SOL    HW287311   1.857   8.193   2.109  1.4717  0.8435 -0.5973
28227SOL     OW87312   0.681   0.822   6.958  0.4019  0.1028 -0.3543
28227SOL    HW187313   0.618   0.871   7.011 -0.5974 -1.7599  0.2684
28227SOL    HW287314   0.735   0.776   7.022 -0.3669 -1.6265 -0.8988
28228SOL     OW87315   1.869   1.286   6.721  0.1303 -0.2642 -0.6130
28228SOL    HW187316   1.825   1.350   6.665 -0.1880 -1.2062 -1.4819
28228SOL    HW287317   1.953   1.270   6.678 -0.6242 -1.9296 -1.5781
28229SOL     OW87318   7.881   4.164   3.096  0.5829 -0.0244 -0.6385
28229SOL    HW187319   7.898   4.258   3.088  0.2907  0.0470 -0.4333
28229SOL    HW287320   7.968   4.124   3.096  0.7168  0.2650 -0.4679
28230SOL     OW87321   1.378   3.199   0.161  0.2754 -0.1130  0.1109
28230SOL    HW187322   1.377   3.231   0.070 -0.8043 -1.5257 -0.4099
28230SOL    HW287323   1.400   3.106   0.153  3.2432  0.3717  1.5661
28231SOL     OW87324   0.498   6.995   8.236  0.2256  0.4282 -0.5260
28231SOL    HW187325   0.424   6.954   8.191  0.6399 -0.1417 -0.6940
28231SOL    HW287326   0.564   6.925   8.243  1.1424  1.1961 -1.2559
28232SOL     OW87327   0.407   3.159   2.597 -0.1905 -0.1710 -0.1070
28232SOL    HW187328   0.394   3.220   2.524 -0.0767  0.4158  0.3493
28232SOL    HW287329   0.456   3.210   2.662  3.2786 -1.8198 -1.1844
28233SOL     OW87330   5.546   2.726   4.032 -0.2730  0.1605  0.5147
28233SOL    HW187331   5.591   2.810   4.029 -1.2204  0.6738  0.0220
28233SOL    HW287332   5.456   2.749   4.056 -0.7933 -0.6008 -0.6430
28234SOL     OW87333   3.668   4.518   4.790 -0.0784  0.1435  0.3395
28234SOL    HW187334   3.708   4.585   4.735 -1.5267  1.4053  0.7533
28234SOL    HW287335   3.591   4.489   4.741 -0.3420 -0.0760  0.8670
28235SOL     OW87336   5.913   4.390   9.361  0.0170 -0.3953  0.1800
28235SOL    HW187337   5.877   4.440   9.434 -0.6550 -0.5249 -0.0572
28235SOL    HW287338   5.942   4.456   9.299  0.7140 -0.2829  0.6200
28236SOL     OW87339   2.143   1.531   5.364  0.3879 -0.3971 -0.2728
28236SOL    HW187340   2.195   1.596   5.412 -0.5285  0.7036 -0.7211
28236SOL    HW287341   2.053   1.563   5.371 -0.1873 -1.9661  0.0164
28237SOL     OW87342   4.824   4.526   0.361  0.0541 -0.3572 -0.3717
28237SOL    HW187343   4.818   4.542   0.267 -0.9921 -0.7851 -0.3896
28237SOL    HW287344   4.757   4.460   0.379  0.9240 -1.0269  0.5173
28238SOL     OW87345   0.375   3.143   2.140 -0.7384  0.4722  0.0082
28238SOL    HW187346   0.295   3.139   2.192 -0.0646 -1.6457  1.0173
28238SOL    HW287347   0.349   3.111   2.053 -1.0303 -0.1412  0.3119
28239SOL     OW87348   7.690   3.970   3.764  0.8760  0.5915 -0.0598
28239SOL    HW187349   7.778   3.996   3.735  0.8476  0.6983 -0.0514
28239SOL    HW287350   7.673   3.887   3.719  1.6964 -0.3475  1.2953
28240SOL     OW87351   5.996   3.872   7.277 -0.5832  0.2803  0.2896
28240SOL    HW187352   5.981   3.826   7.194 -0.7819 -0.1961  0.5848
28240SOL    HW287353   6.020   3.803   7.339  2.5557  0.9253 -0.0472
28241SOL     OW87354   5.746   3.152   9.427  0.1521  0.3433 -0.1950
28241SOL    HW187355   5.832   3.181   9.458 -0.5238  2.2095  0.0938
28241SOL    HW287356   5.689   3.161   9.504 -0.2198 -1.3881 -0.2335
28242SOL     OW87357   0.509   1.475   7.181 -0.3145 -0.4750 -0.1265
28242SOL    HW187358   0.584   1.420   7.203 -1.0193 -1.0346  0.9704
28242SOL    HW287359   0.520   1.553   7.236  0.4709  0.3387 -1.3870
28243SOL     OW87360   6.117   9.467   6.496  0.3327  0.1579 -0.0129
28243SOL    HW187361   6.032   9.429   6.477  0.7450 -0.2793 -1.1040
28243SOL    HW287362   6.106   9.513   6.579 -0.8196 -0.3176  0.1078
28244SOL     OW87363   8.804   5.070   3.115 -0.0698 -0.0337 -0.2025
28244SOL    HW187364   8.783   5.082   3.207 -1.0329  2.6688 -0.6728
28244SOL    HW287365   8.899   5.061   3.112  0.2966  2.6059  0.9214
28245SOL     OW87366   9.520   0.408   3.030 -0.6004  1.0581 -0.0160
28245SOL    HW187367   9.609   0.384   3.002 -0.3748  1.0024  0.7150
28245SOL    HW287368   9.516   0.379   3.121 -0.6276  2.9687  0.6409
28246SOL     OW87369   0.822   9.277   2.315  0.1081 -0.6674 -0.0323
28246SOL    HW187370   0.882   9.330   2.367 -0.1502 -0.4999  0.0965
28246SOL    HW287371   0.845   9.186   2.337 -0.0863 -0.5972  0.4783
28247SOL     OW87372   7.681   4.295   6.168  0.0319 -0.1656 -0.2216
28247SOL    HW187373   7.629   4.215   6.159  1.6600 -1.5332  1.5180
28247SOL    HW287374   7.621   4.359   6.206 -0.6582 -1.3883  0.8405
28248SOL     OW87375   5.584   2.495   4.885  0.4605  0.2333 -0.1036
28248SOL    HW187376   5.639   2.432   4.839  0.3535 -0.3502  0.5561
28248SOL    HW287377   5.529   2.533   4.816 -0.0989 -1.0432 -0.3901
28249SOL     OW87378   6.554   7.388   8.509  0.9668  0.4037 -0.6693
28249SOL    HW187379   6.501   7.308   8.506  1.1735  0.1446  1.2704
28249SOL    HW287380   6.497   7.453   8.550  0.5546  1.5234 -2.8531
28250SOL     OW87381   4.314   0.142   5.432  0.3046  0.6057  0.0962
28250SOL    HW187382   4.227   0.155   5.393 -0.5083 -0.8304  1.3167
28250SOL    HW287383   4.325   0.047   5.434  1.5448  0.7375  0.7600
28251SOL     OW87384   9.517   8.454   6.743 -0.3933 -0.0568  0.9426
28251SOL    HW187385   9.442   8.432   6.798 -1.6140 -0.1928 -0.6768
28251SOL    HW287386   9.488   8.431   6.654  1.6645 -0.3397  0.2966
28252SOL     OW87387   5.335   3.620  10.271  0.6171  0.0310 -0.4626
28252SOL    HW187388   5.403   3.552  10.269  0.3675 -0.2119 -0.9298
28252SOL    HW287389   5.384   3.702  10.274  0.9304 -0.1799  1.9739
28253SOL     OW87390   1.170   6.186   1.518 -0.3987 -0.4714 -0.0423
28253SOL    HW187391   1.248   6.214   1.567 -0.0759 -0.8413 -0.3400
28253SOL    HW287392   1.098   6.200   1.579 -0.2289  0.7943 -0.0972
28254SOL     OW87393   8.751   9.967   0.945  0.4692 -0.7029 -0.1480
28254SOL    HW187394   8.802   9.945   0.867  1.2138 -1.1773  0.4601
28254SOL    HW287395   8.679  10.021   0.912  0.3599 -1.4925 -1.2660
28255SOL     OW87396   6.591   7.694   4.969  0.3165  0.1648 -0.3212
28255SOL    HW187397   6.587   7.763   4.903  1.4038  0.6165  0.0690
28255SOL    HW287398   6.669   7.714   5.021  0.9095 -1.5962 -0.4646
28256SOL     OW87399   0.375   7.341  10.299 -0.0435 -0.1613  0.6450
28256SOL    HW187400   0.336   7.278  10.237 -2.7844 -0.2113  2.2528
28256SOL    HW287401   0.374   7.424  10.252 -1.6790 -0.2846  0.3870
28257SOL     OW87402   0.917   8.249   9.253 -0.1386  0.0053 -0.5651
28257SOL    HW187403   0.911   8.189   9.178 -1.1080  0.5426 -0.9313
28257SOL    HW287404   0.857   8.321   9.231  2.8589  2.4852 -1.3866
28258SOL     OW87405   1.296   4.784   3.465  0.2864  0.2357 -0.1163
28258SOL    HW187406   1.360   4.713   3.461 -0.3427 -0.3445 -0.2442
28258SOL    HW287407   1.341   4.855   3.509  0.7601 -0.4452  0.5350
28259SOL     OW87408   0.677   5.464   8.783  0.5858  0.3066 -0.0188
28259SOL    HW187409   0.680   5.546   8.833 -2.9258  0.6486 -0.1001
28259SOL    HW287410   0.626   5.486   8.705  3.1334 -1.0447 -2.2251
28260SOL     OW87411   4.327   1.380   6.703 -0.3776  0.0018 -0.2756
28260SOL    HW187412   4.266   1.447   6.670  1.2278  1.2382 -0.8916
28260SOL    HW287413   4.391   1.430   6.755  0.0591 -1.2585  0.4274
28261SOL     OW87414   9.952   1.063   5.738 -0.9234 -0.2916  0.3125
28261SOL    HW187415  10.024   1.121   5.762  1.2156 -2.2936 -0.9919
28261SOL    HW287416   9.941   1.006   5.814 -0.3027 -0.7557  0.0589
28262SOL     OW87417   0.924   1.148   7.194 -0.4006  0.2799  0.7218
28262SOL    HW187418   0.881   1.191   7.268  0.9697  0.0580  1.6842
28262SOL    HW287419   1.018   1.161   7.210 -0.0546  1.8244 -1.9377
28263SOL     OW87420   6.769   2.530   6.650  0.6269 -0.3492  0.0231
28263SOL    HW187421   6.791   2.440   6.624  2.6005  0.4216 -1.2248
28263SOL    HW287422   6.837   2.583   6.610 -0.3350  1.7006  0.9828
28264SOL     OW87423   9.535   5.200  10.090  0.7913  0.4704 -1.0121
28264SOL    HW187424   9.575   5.207  10.177  1.2400 -2.4176 -0.8676
28264SOL    HW287425   9.446   5.231  10.102  0.6484 -0.4694  0.6731
28265SOL     OW87426   9.086   4.266   6.647 -0.0139 -0.2938  0.4047
28265SOL    HW187427   9.134   4.341   6.611 -0.0415  0.5550  2.0491
28265SOL    HW287428   9.018   4.249   6.582  1.0900 -0.0594 -0.8598
28266SOL     OW87429   5.156   2.574   3.978 -0.3038  0.1526  0.7108
28266SOL    HW187430   5.195   2.651   4.019 -0.2596  0.6972 -0.3257
28266SOL    HW287431   5.085   2.549   4.038 -1.4298  2.0375  0.2551
28267SOL     OW87432   0.263   9.877   7.711 -0.7847 -0.9005 -0.6359
28267SOL    HW187433   0.219   9.960   7.698  1.9607  0.6767 -0.6698
28267SOL    HW287434   0.265   9.866   7.806 -0.1300 -0.3084 -0.5759
28268SOL     OW87435   3.045   7.839  10.318 -0.0378 -0.5939 -0.0946
28268SOL    HW187436   3.138   7.815  10.322 -0.4187 -2.1288 -0.1608
28268SOL    HW287437   3.000   7.768  10.363 -1.2607 -0.2754 -0.7902
28269SOL     OW87438   0.160   1.906   3.809 -0.2350  0.4062  0.0369
28269SOL    HW187439   0.093   1.862   3.862 -0.7693  0.5330 -0.5260
28269SOL    HW287440   0.116   1.983   3.775  0.3002  0.6559 -0.0832
28270SOL     OW87441   6.009   3.294   9.490  0.2861 -0.3207  0.0539
28270SOL    HW187442   6.056   3.223   9.446  1.2164  0.3783 -0.1127
28270SOL    HW287443   6.065   3.315   9.565 -0.4258 -0.3471  0.5961
28271SOL     OW87444   8.904   3.145   8.281 -0.3081  0.9894  0.0478
28271SOL    HW187445   8.978   3.170   8.337 -0.0847  2.1364 -0.7156
28271SOL    HW287446   8.860   3.075   8.328  2.5743 -1.3729 -0.4847
28272SOL     OW87447   1.644   2.071   4.404 -0.3150 -0.0682  0.3946
28272SOL    HW187448   1.662   2.151   4.355  3.2834 -0.3371  1.0286
28272SOL    HW287449   1.609   2.101   4.488  0.2235  0.8141  0.3126
28273SOL     OW87450   0.208   3.074   8.307 -0.7768 -0.4386  0.0694
28273SOL    HW187451   0.141   3.137   8.333 -0.4398  0.2411 -0.6646
28273SOL    HW287452   0.174   2.989   8.337 -1.7169 -0.0445  0.1592
28274SOL     OW87453   2.842   9.289   0.858  0.5219  0.3356 -0.0094
28274SOL    HW187454   2.778   9.300   0.789  0.1623 -0.2471  0.2250
28274SOL    HW287455   2.926   9.280   0.812  0.2525 -0.3089 -0.3799
28275SOL     OW87456   2.452   9.856   9.274 -0.3374 -0.6344 -0.4552
28275SOL    HW187457   2.397   9.924   9.314 -1.0632  0.0861 -2.5657
28275SOL    HW287458   2.542   9.885   9.291 -0.6387  0.4076 -0.5825
28276SOL     OW87459   8.465   8.289   8.703  0.0379 -0.2553  0.1901
28276SOL    HW187460   8.397   8.351   8.674  0.9654  0.5898 -0.2618
28276SOL    HW287461   8.521   8.279   8.626  0.9755 -0.1603  0.8481
28277SOL     OW87462   5.270   1.634   0.010 -0.0092  0.1781 -0.1697
28277SOL    HW187463   5.334   1.691  -0.032 -0.1987  0.3742 -0.1960
28277SOL    HW287464   5.301   1.545  -0.009 -0.0710  0.2629 -0.6934
28278SOL     OW87465   9.181   1.009   6.676  0.0720  0.2634 -0.3742
28278SOL    HW187466   9.249   1.060   6.720  0.1058  1.0202 -1.2638
28278SOL    HW287467   9.228   0.961   6.608 -0.0149 -0.6928  0.2350
28279SOL     OW87468   0.666   3.209   6.946 -1.4033 -0.1350  0.2968
28279SOL    HW187469   0.656   3.274   6.877  0.3941 -0.1528 -0.0460
28279SOL    HW287470   0.744   3.237   6.995 -1.7445 -0.9559  1.3692
28280SOL     OW87471   8.223   3.564   4.616 -0.4573 -0.3444  0.0863
28280SOL    HW187472   8.180   3.648   4.630 -0.6972 -0.5041  0.3009
28280SOL    HW287473   8.303   3.586   4.567 -0.7907 -0.0516 -0.3315
28281SOL     OW87474   4.287   9.927   2.833 -0.0361  0.0744 -0.1661
28281SOL    HW187475   4.347   9.870   2.883 -1.0196 -0.2225  0.7029
28281SOL    HW287476   4.212   9.871   2.814 -0.4727  0.7298 -0.3797
28282SOL     OW87477   2.101   0.836  10.224 -0.4298 -0.0233 -0.2153
28282SOL    HW187478   2.120   0.782  10.147 -0.8974  0.5460 -0.7533
28282SOL    HW287479   2.151   0.917  10.209 -1.4003  0.5453 -0.4950
28283SOL     OW87480   4.576   8.132   0.552 -0.0477  0.0521 -0.6098
28283SOL    HW187481   4.500   8.188   0.531 -0.5309  0.3795  1.7230
28283SOL    HW287482   4.645   8.194   0.575 -0.6416 -0.1719  2.1887
28284SOL     OW87483   1.227   2.246  10.146 -0.0400  0.1169 -0.3573
28284SOL    HW187484   1.213   2.151  10.135 -0.6656  0.0779  0.5869
28284SOL    HW287485   1.231   2.280  10.057 -0.5202 -0.7074 -0.7111
28285SOL     OW87486   4.199   6.701   3.468 -0.2046 -0.5433  0.0153
28285SOL    HW187487   4.154   6.723   3.386 -1.5208 -0.2498  0.7750
28285SOL    HW287488   4.150   6.626   3.502  0.3684 -0.7032  0.4926
28286SOL     OW87489   4.616  10.321   7.592 -0.1624  0.1241  0.0416
28286SOL    HW187490   4.666  10.244   7.618  1.7614  0.3165 -2.7065
28286SOL    HW287491   4.537  10.286   7.550  0.9836 -0.4632 -1.7416
28287SOL     OW87492   4.883   3.375   2.714 -0.6749  0.0158  0.3389
28287SOL    HW187493   4.878   3.404   2.622  0.8225  2.0452  0.8223
28287SOL    HW287494   4.945   3.302   2.713  0.6735  1.1137 -0.0984
28288SOL     OW87495   4.185   5.685   6.939  0.3171 -0.3295  0.1617
28288SOL    HW187496   4.159   5.736   7.015 -2.6488  0.1255 -1.0010
28288SOL    HW287497   4.201   5.750   6.871  2.4887 -0.7502  0.2010
28289SOL     OW87498   9.508   4.927   4.377 -0.1267  0.0677  0.1123
28289SOL    HW187499   9.439   4.993   4.370 -0.5579 -0.4553 -0.6871
28289SOL    HW287500   9.560   4.938   4.297 -0.3857 -0.7674 -0.1748
28290SOL     OW87501  10.311   9.778   1.374  0.4820  0.4224  0.0153
28290SOL    HW187502  10.362   9.839   1.427  1.5495  0.4609 -1.0244
28290SOL    HW287503  10.375   9.715   1.342  0.0673  0.9937 -2.0664
28291SOL     OW87504   6.541   5.106   2.799  0.1369  0.5701 -0.0315
28291SOL    HW187505   6.500   5.192   2.786 -0.4249  0.2297 -0.5472
28291SOL    HW287506   6.520   5.057   2.720  2.5299  0.7452 -0.8751
28292SOL     OW87507   8.318   5.326   1.070 -0.2255 -0.1539 -0.0519
28292SOL    HW187508   8.237   5.353   1.113 -0.1703  0.5390 -0.3685
28292SOL    HW287509   8.338   5.240   1.108 -0.1286  0.4767  1.3637
28293SOL     OW87510   0.841   2.549   7.187  0.4493  0.0355 -0.6171
28293SOL    HW187511   0.782   2.622   7.169  1.3611  1.3169  1.2906
28293SOL    HW287512   0.783   2.472   7.194 -0.9194  1.1190  0.5051
28294SOL     OW87513   5.830   9.857   9.503 -0.1098  0.0048  0.2461
28294SOL    HW187514   5.796   9.886   9.418 -0.9024 -0.6652  0.3174
28294SOL    HW287515   5.888   9.927   9.531 -4.5454  3.4152  2.0714
28295SOL     OW87516   2.783   4.049   3.892 -0.3646  0.2169  0.1280
28295SOL    HW187517   2.847   4.121   3.895 -0.3632  0.1952  1.0080
28295SOL    HW287518   2.824   3.979   3.943 -0.9372  0.0769  0.4060
28296SOL     OW87519   7.358   7.628   4.133  0.2342  0.5692  0.2318
28296SOL    HW187520   7.449   7.634   4.162  0.3817 -0.3170 -0.0228
28296SOL    HW287521   7.307   7.657   4.209  0.5616 -2.5029  1.7847
28297SOL     OW87522   0.439   0.713   6.584 -0.4610 -0.1252 -0.1524
28297SOL    HW187523   0.453   0.647   6.516 -1.1778 -1.8127  1.2451
28297SOL    HW287524   0.443   0.797   6.538 -1.7785 -1.2156 -2.4256
28298SOL     OW87525   3.705   5.931   5.865 -0.1217 -0.4136  0.0742
28298SOL    HW187526   3.743   5.960   5.948  1.4076 -1.7790 -0.0879
28298SOL    HW287527   3.738   5.842   5.854  0.3163 -0.0083 -2.3577
28299SOL     OW87528   5.490   8.112   5.021 -0.8045 -0.2466 -0.1545
28299SOL    HW187529   5.576   8.150   5.006 -1.8739  1.8912 -1.4333
28299SOL    HW287530   5.496   8.024   4.985  0.9922 -0.3649  0.3512
28300SOL     OW87531   4.325   5.056   8.673 -0.1993  0.2930  0.3378
28300SOL    HW187532   4.278   5.136   8.651  2.4699  1.7716 -0.2941
28300SOL    HW287533   4.412   5.067   8.636 -0.0963 -3.5304 -0.9986
28301SOL     OW87534   9.458   4.417   0.299  0.8082 -0.4295 -0.3011
28301SOL    HW187535   9.418   4.378   0.376  1.5118  0.1943  0.4029
28301SOL    HW287536   9.409   4.381   0.225 -0.5352 -0.2602  0.4780
28302SOL     OW87537   7.131   3.439   0.266  0.1298 -0.2421  0.1261
28302SOL    HW187538   7.126   3.344   0.250 -1.0966 -0.3020  0.7179
28302SOL    HW287539   7.191   3.448   0.340 -0.4967 -0.6534  0.6970
28303SOL     OW87540   2.172   8.201   4.892 -0.5997 -0.0490  0.3350
28303SOL    HW187541   2.233   8.217   4.820 -0.3983 -0.0810  0.4966
28303SOL    HW287542   2.097   8.258   4.874 -0.8091 -0.4846 -0.2140
28304SOL     OW87543   7.265   8.539   0.057 -0.0972 -0.2939 -0.0319
28304SOL    HW187544   7.307   8.454   0.049 -1.8378 -1.3609  1.3922
28304SOL    HW287545   7.198   8.539  -0.012 -1.1507 -0.7589  0.9755
28305SOL     OW87546   2.899   1.471   3.297 -0.2867  0.3202  0.2613
28305SOL    HW187547   2.986   1.446   3.265 -0.8687 -1.6284  0.0696
28305SOL    HW287548   2.886   1.417   3.375 -0.9895  1.2194  0.7852
28306SOL     OW87549   6.540   4.223   5.360  0.1259  0.0567  0.2409
28306SOL    HW187550   6.609   4.156   5.367 -0.0052 -0.4102 -2.0338
28306SOL    HW287551   6.458   4.175   5.368  0.0420  0.0821 -0.4130
28307SOL     OW87552   7.629   1.793   7.722 -0.2751 -0.1364  0.2681
28307SOL    HW187553   7.567   1.796   7.649 -0.6842 -0.0032  0.6205
28307SOL    HW287554   7.700   1.737   7.690 -0.5691 -0.2828 -0.1411
28308SOL     OW87555   9.643   3.971   9.266 -0.1619 -0.3568 -0.3997
28308SOL    HW187556   9.687   3.970   9.351  1.0924 -0.8623 -1.0399
28308SOL    HW287557   9.570   4.032   9.278  0.2670 -0.0668  0.8999
28309SOL     OW87558   5.467   1.669   8.565 -0.5665  0.3985 -0.1722
28309SOL    HW187559   5.423   1.640   8.485  0.9728 -2.5981 -0.0510
28309SOL    HW287560   5.425   1.618   8.635 -0.4405  1.4189  0.6719
28310SOL     OW87561   4.549   3.683   7.634 -0.0926 -0.9268  0.2841
28310SOL    HW187562   4.644   3.674   7.621 -0.1998 -0.2148 -1.2749
28310SOL    HW287563   4.540   3.763   7.686  0.1130 -0.1161 -0.9011
28311SOL     OW87564   3.829   9.851   2.867  0.2509 -0.1026  0.6479
28311SOL    HW187565   3.761   9.834   2.803  0.6384 -0.1861  0.2521
28311SOL    HW287566   3.902   9.795   2.840  0.6540  0.3564  0.7695
28312SOL     OW87567   3.763   4.633   9.172 -0.2297 -0.0323  0.2097
28312SOL    HW187568   3.809   4.588   9.101  3.2454  0.7630  1.7660
28312SOL    HW287569   3.700   4.569   9.204 -0.8259 -0.9521 -2.5096
28313SOL     OW87570   9.436   6.769   4.436  0.0338 -0.1432 -0.4748
28313SOL    HW187571   9.455   6.845   4.492 -0.7578  1.0764 -1.7940
28313SOL    HW287572   9.358   6.730   4.474 -0.2597  0.4369 -0.4617
28314SOL     OW87573   0.841   6.813   7.924  0.1322  0.0566 -0.3716
28314SOL    HW187574   0.833   6.742   7.860  2.0023 -0.5170 -0.0057
28314SOL    HW287575   0.846   6.892   7.870 -1.9377 -0.0143 -0.7847
28315SOL     OW87576   3.851   9.066   3.024 -0.0647  0.0737 -0.1912
28315SOL    HW187577   3.804   9.144   3.052  1.8202  0.7999  1.1687
28315SOL    HW287578   3.879   9.024   3.105  0.8872 -0.7661 -0.9217
28316SOL     OW87579   9.763   1.382   8.540  0.0129  0.5188 -0.3547
28316SOL    HW187580   9.744   1.362   8.632  0.2796 -0.4954 -0.5013
28316SOL    HW287581   9.696   1.335   8.491 -0.9734  2.1641 -0.6564
28317SOL     OW87582   6.301   5.458   7.936 -0.1599 -0.1512  0.0278
28317SOL    HW187583   6.247   5.522   7.983 -0.2900 -1.2350  1.4384
28317SOL    HW287584   6.387   5.464   7.977  0.4604  0.6259 -1.3159
28318SOL     OW87585   4.508   9.680  10.192  0.0638 -0.5534  0.2520
28318SOL    HW187586   4.543   9.689  10.104 -0.1193  1.3384  0.3234
28318SOL    HW287587   4.421   9.719  10.187 -0.4042 -1.4636  1.0194
28319SOL     OW87588   3.257   2.822   4.335  0.2461 -0.6986  0.0329
28319SOL    HW187589   3.299   2.810   4.421  0.3218  0.0965  0.1162
28319SOL    HW287590   3.277   2.912   4.312  0.8884 -1.1306 -1.1855
28320SOL     OW87591   1.751   9.435   1.741 -0.0733  0.1137  0.0489
28320SOL    HW187592   1.668   9.424   1.695  0.7068 -0.7091 -1.2150
28320SOL    HW287593   1.810   9.371   1.701  1.9477  2.4244 -0.9666
28321SOL     OW87594   2.634   7.083   1.798  0.2238 -0.6212 -0.2060
28321SOL    HW187595   2.690   7.088   1.876 -0.5584 -1.2311  0.4230
28321SOL    HW287596   2.684   7.127   1.729  1.7445 -1.6723  0.1671
28322SOL     OW87597   8.657   4.589   4.649  0.0910 -0.0133  0.2577
28322SOL    HW187598   8.599   4.528   4.694  1.6988 -1.6117  0.2866
28322SOL    HW287599   8.739   4.585   4.699  1.1170  0.0570 -1.3335
28323SOL     OW87600   1.752  10.116   9.971  0.3451  0.1958 -0.1162
28323SOL    HW187601   1.667  10.073   9.973  1.1731 -1.5807  2.4964
28323SOL    HW287602   1.815  10.044   9.972  1.8588  1.4770  0.4601
28324SOL     OW87603   3.468   5.055   5.734 -0.0104 -0.1939 -0.2565
28324SOL    HW187604   3.382   5.096   5.737 -0.1536 -0.5217  0.2147
28324SOL    HW287605   3.467   4.991   5.805  0.1281 -1.1507 -1.0871
28325SOL     OW87606   3.653   0.500   6.031 -0.3947 -0.6351  0.0521
28325SOL    HW187607   3.700   0.483   6.113 -1.7514  1.2638  1.3206
28325SOL    HW287608   3.604   0.420   6.015  1.6854 -1.9409 -0.2651
28326SOL     OW87609   1.678   7.978   6.248 -0.4130  0.2785  0.5747
28326SOL    HW187610   1.756   7.939   6.209 -0.7213 -1.5766  1.6689
28326SOL    HW287611   1.611   7.970   6.181 -0.4973 -1.3095  0.7881
28327SOL     OW87612   0.054   5.786   3.346  0.3803 -0.6471  0.5001
28327SOL    HW187613   0.032   5.734   3.424 -1.5939  0.8929  1.0457
28327SOL    HW287614   0.082   5.871   3.382 -0.7583  0.1512 -0.4485
28328SOL     OW87615   0.677   1.815   4.984  0.3925 -0.6332 -0.3835
28328SOL    HW187616   0.617   1.746   5.013  0.4375 -0.2021  0.7858
28328SOL    HW287617   0.664   1.819   4.889 -0.8437 -1.0857 -0.2558
28329SOL     OW87618   4.180   3.010   5.392 -0.3691  0.3915 -0.1218
28329SOL    HW187619   4.167   3.104   5.378 -2.2305  0.2938  0.7779
28329SOL    HW287620   4.107   2.968   5.347 -0.2948 -0.5497  0.6051
28330SOL     OW87621   0.259   8.907   2.429 -0.0825 -0.4400 -0.6404
28330SOL    HW187622   0.261   8.857   2.348  1.4450  1.5947 -1.9656
28330SOL    HW287623   0.169   8.939   2.436 -0.2759 -0.7937 -1.4048
28331SOL     OW87624   3.930   9.482   4.168 -0.5585  0.2301 -0.0716
28331SOL    HW187625   3.990   9.492   4.093 -1.3465  0.2486 -0.7079
28331SOL    HW287626   3.967   9.408   4.217 -0.2324 -0.0291 -0.6794
28332SOL     OW87627  10.313   1.146   7.737  0.4502  0.1063 -0.0352
28332SOL    HW187628  10.337   1.214   7.800  0.9504 -0.1173  0.0181
28332SOL    HW287629  10.376   1.155   7.666 -0.9426  1.2696 -1.2041
28333SOL     OW87630   4.493  10.259   5.224 -0.3670  0.4454 -0.3295
28333SOL    HW187631   4.526  10.188   5.169 -1.0159 -0.1588  0.0569
28333SOL    HW287632   4.510  10.338   5.173  0.6267  0.0529 -0.6417
28334SOL     OW87633   8.828   6.785   8.993  0.2339  0.3283  0.1858
28334SOL    HW187634   8.792   6.697   9.002 -2.2247  1.2310 -0.0516
28334SOL    HW287635   8.813   6.826   9.078 -0.2229  1.0376 -0.2211
28335SOL     OW87636   3.943   4.397  10.354  0.3242 -0.6494 -0.2396
28335SOL    HW187637   3.964   4.339  10.427 -0.4613 -2.7079 -1.5694
28335SOL    HW287638   4.001   4.369  10.283  1.9242  2.0830 -0.1801
28336SOL     OW87639   2.744   6.339   2.719  0.1292  0.0077  0.3719
28336SOL    HW187640   2.742   6.308   2.628  0.1132  2.4313 -0.5210
28336SOL    HW287641   2.832   6.375   2.730 -0.1059  0.3842  1.0740
28337SOL     OW87642   7.785   6.837   1.728  0.9883  0.1982  0.2230
28337SOL    HW187643   7.832   6.837   1.811 -0.2383  0.3383  0.9487
28337SOL    HW287644   7.801   6.924   1.691 -0.6603  1.1812  1.6560
28338SOL     OW87645   3.132   4.069   0.080 -0.2292  0.4716 -0.3872
28338SOL    HW187646   3.139   3.982   0.119  0.5258  0.4089 -0.6267
28338SOL    HW287647   3.223   4.093   0.060 -0.4785  1.0763 -0.8351
28339SOL     OW87648   5.419  10.054   8.973 -0.5824 -0.7522 -0.5019
28339SOL    HW187649   5.362  10.056   9.049  1.1456  0.8175  0.8207
28339SOL    HW287650   5.481   9.983   8.991 -0.6381 -0.8955 -0.8459
28340SOL     OW87651   5.887   0.313   6.518  0.3814  0.3406  0.0413
28340SOL    HW187652   5.851   0.269   6.595 -0.0402  0.5573 -0.0314
28340SOL    HW287653   5.901   0.243   6.454  2.3952 -0.1253  0.9118
28341SOL     OW87654   5.346   7.256   6.854 -0.0288  0.1080 -0.0785
28341SOL    HW187655   5.435   7.220   6.853 -0.0677  0.0229 -0.3925
28341SOL    HW287656   5.305   7.213   6.930  0.6070  1.1628  0.8895
28342SOL     OW87657   0.639   4.220   8.299 -0.3245  0.3558  0.4617
28342SOL    HW187658   0.686   4.198   8.219 -1.0949  1.3473 -0.2802
28342SOL    HW287659   0.553   4.178   8.290 -0.0534 -0.4288  1.2700
28343SOL     OW87660   8.354   5.507   3.869  0.3713  0.2405  0.3377
28343SOL    HW187661   8.381   5.428   3.915  2.3445  0.3174 -0.5859
28343SOL    HW287662   8.380   5.579   3.926  1.9364  0.3059 -0.4240
28344SOL     OW87663   0.345   0.240   9.386  0.0976  0.0823 -0.1174
28344SOL    HW187664   0.283   0.313   9.380 -1.1516 -0.8555  0.8699
28344SOL    HW287665   0.291   0.162   9.372  1.6804 -0.6480 -3.0031
28345SOL     OW87666   3.933   5.554   9.189 -0.2476 -0.0700  0.0601
28345SOL    HW187667   3.980   5.473   9.171 -0.9703 -0.4768 -0.0014
28345SOL    HW287668   3.920   5.554   9.284 -0.4422 -0.1377  0.0345
28346SOL     OW87669   0.375   9.822   5.490  0.4430  0.4563 -0.6722
28346SOL    HW187670   0.280   9.813   5.489  0.1596  1.2792  2.9526
28346SOL    HW287671   0.407   9.734   5.513  0.4914  0.4323 -0.8279
28347SOL     OW87672   9.371   2.965  10.280 -0.3619 -0.3800  0.6474
28347SOL    HW187673   9.294   2.914  10.254 -0.4523  0.4247 -0.7773
28347SOL    HW287674   9.374   2.958  10.375 -1.5944 -1.2702  0.6401
28348SOL     OW87675   4.102   0.379   7.264 -0.2375 -0.0148 -0.1757
28348SOL    HW187676   4.189   0.378   7.224 -0.5432 -1.1452 -0.8722
28348SOL    HW287677   4.065   0.462   7.237  0.5097  0.3420 -0.1373
28349SOL     OW87678   5.128   7.937   7.043  0.0349 -0.0397 -0.6637
28349SOL    HW187679   5.163   8.021   7.012  0.9275  0.0405  0.5146
28349SOL    HW287680   5.040   7.933   7.006  0.1259  1.2378 -1.0638
28350SOL     OW87681   2.622   7.522   4.710 -0.5130 -0.0843  0.1541
28350SOL    HW187682   2.537   7.544   4.671  0.1042 -0.0448 -1.2078
28350SOL    HW287683   2.629   7.427   4.702  0.0151  0.0150 -0.7220
28351SOL     OW87684   5.954  10.258   5.851 -0.2621  0.4179 -0.1049
28351SOL    HW187685   5.968  10.295   5.764  2.5127 -0.6616 -0.2226
28351SOL    HW287686   6.042  10.239   5.883 -1.3036 -0.8170  2.2446
28352SOL     OW87687   4.993   3.878   4.824 -0.2842 -0.6708 -0.2356
28352SOL    HW187688   4.954   3.965   4.821  0.7984 -0.1886 -0.5487
28352SOL    HW287689   5.077   3.890   4.868 -0.2057 -1.5924 -0.1048
28353SOL     OW87690   2.514   8.254   9.532  0.2655 -0.0525  0.1152
28353SOL    HW187691   2.564   8.321   9.487  0.5144 -0.7592 -0.6796
28353SOL    HW287692   2.481   8.197   9.462 -0.0541 -0.6773  0.7591
28354SOL     OW87693   7.916   7.366   7.920 -0.0145 -0.0754 -0.0975
28354SOL    HW187694   7.832   7.410   7.902  0.3426  0.5322 -0.3124
28354SOL    HW287695   7.976   7.438   7.942  0.2077 -0.5863  1.0456
28355SOL     OW87696   3.518   1.372   7.609 -0.4499 -0.6498  0.6211
28355SOL    HW187697   3.455   1.396   7.677  0.5122 -0.0996  1.3326
28355SOL    HW287698   3.561   1.294   7.642  0.6081  0.0949  1.0517
28356SOL     OW87699   7.439   2.590   6.922  0.1094  0.0774 -0.0290
28356SOL    HW187700   7.489   2.514   6.890  0.5124  0.2592  0.1559
28356SOL    HW287701   7.351   2.577   6.889  0.7205  0.7477 -2.0539
28357SOL     OW87702   6.957   1.772   4.979 -0.1330 -0.3097 -0.3018
28357SOL    HW187703   6.977   1.802   4.891 -0.5046  0.6362 -0.0683
28357SOL    HW287704   6.926   1.682   4.967  1.9438 -0.9845 -0.8992
28358SOL     OW87705  10.151   9.602   0.178 -0.3989 -0.0413  0.0003
28358SOL    HW187706  10.159   9.677   0.119 -0.1896  0.6648  0.9192
28358SOL    HW287707  10.062   9.570   0.163 -0.1386 -0.2843 -1.1707
28359SOL     OW87708   3.588   3.301   9.072  0.2462  0.1509 -0.0349
28359SOL    HW187709   3.533   3.334   9.001 -1.5803  0.6352  1.5014
28359SOL    HW287710   3.669   3.274   9.030 -1.2160 -0.7574 -2.4637
28360SOL     OW87711   6.718   7.004   7.928  0.4732 -0.9011  0.1728
28360SOL    HW187712   6.716   7.098   7.947  0.9856 -1.1164  1.3424
28360SOL    HW287713   6.634   6.987   7.884 -0.0435 -0.0836  0.8115
28361SOL     OW87714   5.535   1.140  10.303  0.4390  0.3558 -0.6993
28361SOL    HW187715   5.486   1.070  10.345 -2.1736  0.7287 -2.8183
28361SOL    HW287716   5.625   1.109  10.302  0.0856 -1.0633  2.0735
28362SOL     OW87717   2.443   0.960   1.069 -0.6594  0.5428 -0.1718
28362SOL    HW187718   2.446   1.003   1.154 -1.2226 -0.2890  0.2866
28362SOL    HW287719   2.428   1.031   1.007  1.4169  1.4070  0.1982
28363SOL     OW87720  10.011   9.613   1.574  0.0255  0.9668  0.2528
28363SOL    HW187721   9.955   9.648   1.505 -2.6102 -1.0203  1.2149
28363SOL    HW287722  10.066   9.548   1.531 -1.1172  0.2231 -0.1030
28364SOL     OW87723   0.187   6.145   0.318 -0.2570 -0.4045 -0.4312
28364SOL    HW187724   0.195   6.224   0.264  1.4638  0.1165  0.5218
28364SOL    HW287725   0.153   6.079   0.257  0.2095  0.5306 -1.7739
28365SOL     OW87726   1.331   2.905   7.963 -0.1846 -0.0344 -0.5779
28365SOL    HW187727   1.342   2.951   7.880  3.1003 -1.3732 -1.0384
28365SOL    HW287728   1.287   2.823   7.939 -1.3503  0.5822 -0.5877
28366SOL     OW87729   0.249   5.345   6.663  0.8695 -0.7191  0.4297
28366SOL    HW187730   0.158   5.374   6.665  0.9825 -0.3703  1.8818
28366SOL    HW287731   0.248   5.268   6.606 -0.3250 -0.6796  0.3636
28367SOL     OW87732   2.007   9.387   4.464 -0.0193 -0.3636 -0.3350
28367SOL    HW187733   1.928   9.383   4.518  0.1488  0.6582  0.0110
28367SOL    HW287734   1.991   9.325   4.393 -1.7982  0.8925 -1.1157
28368SOL     OW87735   2.813   1.122  10.265  0.1718  0.4471  0.0888
28368SOL    HW187736   2.900   1.081  10.268  0.1633  0.3424 -0.8112
28368SOL    HW287737   2.823   1.195  10.205 -0.5747 -0.0956 -0.7147
28369SOL     OW87738   0.318   7.963   0.536  0.2628  0.2909 -0.0459
28369SOL    HW187739   0.249   8.018   0.574  0.4376 -1.0524  2.4053
28369SOL    HW287740   0.399   8.002   0.567  0.4522 -0.3096  0.2288
28370SOL     OW87741   2.643   6.692   7.592  0.0616 -0.1704 -0.3846
28370SOL    HW187742   2.604   6.717   7.509 -0.2719  1.2553  0.1653
28370SOL    HW287743   2.576   6.638   7.635  0.7344 -2.0071 -1.5317
28371SOL     OW87744   5.713   9.651   3.148  0.5577 -0.2291 -0.0402
28371SOL    HW187745   5.657   9.584   3.108 -0.7086  0.5336  0.3858
28371SOL    HW287746   5.801   9.627   3.121 -0.0048 -1.2021 -1.1481
28372SOL     OW87747   1.926   9.780   7.144 -0.0788  0.0195  0.1412
28372SOL    HW187748   1.912   9.793   7.050 -0.8674 -0.7068  0.1475
28372SOL    HW287749   1.850   9.820   7.186  0.0540 -0.0431  0.4436
28373SOL     OW87750   1.955   7.647   8.498  0.7848 -0.3808  0.0158
28373SOL    HW187751   1.982   7.567   8.542 -1.4285  0.2199  2.7773
28373SOL    HW287752   1.947   7.623   8.406 -0.1183 -3.4378  0.7762
28374SOL     OW87753   4.330   7.007   9.959  0.3751 -0.2373  0.4167
28374SOL    HW187754   4.413   7.027   9.917  0.8241 -0.6884  1.0625
28374SOL    HW287755   4.280   6.959   9.893  0.4627  0.3942 -0.1131
28375SOL     OW87756   3.231   7.445   7.909  0.8908  0.5168 -0.3688
28375SOL    HW187757   3.162   7.510   7.925 -0.8966 -1.7037  1.8109
28375SOL    HW287758   3.261   7.463   7.819 -0.1691  3.6449 -0.2128
28376SOL     OW87759   8.244   3.652   1.832 -0.1082 -0.2739  0.0776
28376SOL    HW187760   8.285   3.568   1.855  0.4499 -0.1102 -0.2993
28376SOL    HW287761   8.226   3.645   1.738  2.1792  0.9127 -0.5429
28377SOL     OW87762   1.045   6.571   5.457 -0.0809 -0.0548  0.4781
28377SOL    HW187763   1.030   6.525   5.374 -0.7934  0.8484  0.0882
28377SOL    HW287764   0.988   6.528   5.520  0.5504 -0.8228  0.5368
28378SOL     OW87765   2.802   2.289   9.007  0.4974 -0.0331 -0.0197
28378SOL    HW187766   2.755   2.352   8.953  0.6090 -0.4531 -0.6306
28378SOL    HW287767   2.865   2.248   8.946  1.6090  0.4706  0.7491
28379SOL     OW87768   8.514   5.340   9.991  0.0564 -0.1866 -0.1981
28379SOL    HW187769   8.586   5.403   9.999 -0.8877  0.9118 -0.0277
28379SOL    HW287770   8.552   5.267   9.941  0.9250  0.9606 -1.3118
28380SOL     OW87771   9.921   9.356   2.858 -0.1450 -0.9138  0.8364
28380SOL    HW187772   9.998   9.299   2.859  0.6241  0.0643 -0.1794
28380SOL    HW287773   9.928   9.408   2.938 -1.0766 -2.4678  1.9928
28381SOL     OW87774   9.841  10.320   0.943  0.0241 -0.0336  0.0580
28381SOL    HW187775   9.923  10.368   0.956 -0.5839  0.8731  0.7249
28381SOL    HW287776   9.811  10.300   1.031 -1.7058  1.8616 -0.0101
28382SOL     OW87777   1.688   2.570   6.068  0.3398  0.2252  0.4313
28382SOL    HW187778   1.771   2.525   6.084  1.1257  0.4098 -2.5421
28382SOL    HW287779   1.713   2.657   6.039 -0.9841  0.8757  1.1822
28383SOL     OW87780   0.875   9.325   1.810  0.1922  0.4271  0.2885
28383SOL    HW187781   0.912   9.347   1.725 -1.2598  1.4530 -0.1306
28383SOL    HW287782   0.941   9.270   1.852  2.2824  2.3682 -0.2613
28384SOL     OW87783   2.249   3.909   5.624  0.0527  0.1870  0.4426
28384SOL    HW187784   2.200   3.851   5.681  1.2407 -0.9810  0.3128
28384SOL    HW287785   2.332   3.925   5.670 -0.2931  1.9173  0.5455
28385SOL     OW87786   3.477   2.902   5.851 -0.5812  0.0701  0.1208
28385SOL    HW187787   3.522   2.976   5.891 -1.0321  0.3460  0.1295
28385SOL    HW287788   3.404   2.941   5.804 -1.1740 -0.4148  0.6163
28386SOL     OW87789   6.185   7.399   6.157 -0.0674  0.0185 -0.1388
28386SOL    HW187790   6.189   7.470   6.221 -0.1364 -0.0345 -0.0765
28386SOL    HW287791   6.254   7.420   6.095 -0.0001  0.0705 -0.0468
28387SOL     OW87792   7.818   0.741   6.001 -0.3207  0.3860  0.3944
28387SOL    HW187793   7.766   0.746   6.082  1.3875 -0.6397  1.5972
28387SOL    HW287794   7.813   0.650   5.975  1.0302  0.2158  0.6588
28388SOL     OW87795   3.856   8.210   7.477  0.1845  0.5577 -0.0401
28388SOL    HW187796   3.864   8.291   7.527  0.3880 -0.1478  1.0934
28388SOL    HW287797   3.942   8.169   7.483 -0.0997 -0.0501 -0.0794
28389SOL     OW87798   0.335   3.289   7.939 -0.3012  0.0052  0.0989
28389SOL    HW187799   0.372   3.250   8.018  0.3234  1.0500  0.3356
28389SOL    HW287800   0.240   3.281   7.950 -0.3514  2.2950  2.1229
28390SOL     OW87801   1.140   0.576   7.711  1.1413  0.1112 -0.0128
28390SOL    HW187802   1.109   0.498   7.756  2.5138 -0.2569  0.3350
28390SOL    HW287803   1.084   0.583   7.633  0.8289 -1.0436  0.0990
28391SOL     OW87804   7.023   3.408   9.935 -0.3113 -0.4239 -0.4275
28391SOL    HW187805   7.051   3.337   9.877 -0.6318  0.5500 -1.8393
28391SOL    HW287806   6.941   3.378   9.973 -1.0160 -0.3795 -1.8696
28392SOL     OW87807   3.558   8.029   2.168 -0.3051 -0.0629  0.0229
28392SOL    HW187808   3.593   8.100   2.222 -0.2382 -1.3115  1.7031
28392SOL    HW287809   3.536   7.960   2.231  1.2303 -2.2193 -1.6463
28393SOL     OW87810   0.707   5.961   0.791  0.6594  0.2373 -0.4620
28393SOL    HW187811   0.683   5.874   0.757  1.3956  0.0430 -0.4977
28393SOL    HW287812   0.792   5.979   0.753  1.0861  0.4206  0.5387
28394SOL     OW87813   1.099   8.200   9.426  0.4993 -0.2178 -0.5101
28394SOL    HW187814   1.024   8.208   9.367 -0.9681 -1.2976  1.0959
28394SOL    HW287815   1.061   8.207   9.514  2.2549 -1.0447  0.3696
28395SOL     OW87816   3.926   7.629   9.835  0.7338 -0.2805  0.1767
28395SOL    HW187817   3.914   7.545   9.789  1.5889 -0.3728  0.1120
28395SOL    HW287818   4.018   7.630   9.859  0.5703  0.3370  0.7999
28396SOL     OW87819   5.989   5.123   1.299 -0.4549  0.1143  0.2489
28396SOL    HW187820   5.966   5.054   1.237 -0.2172  0.5490 -0.3317
28396SOL    HW287821   6.085   5.122   1.301 -0.4608 -0.9188  1.7798
28397SOL     OW87822   5.680   6.249   0.618 -0.0194  0.5527 -0.4327
28397SOL    HW187823   5.617   6.320   0.620 -1.8670 -0.9618 -1.6056
28397SOL    HW287824   5.643   6.182   0.675  1.1789  0.1119 -0.1322
28398SOL     OW87825   3.966   4.851   1.499 -0.1711 -0.5352 -0.0618
28398SOL    HW187826   3.961   4.796   1.578 -2.7940 -2.2170 -1.2546
28398SOL    HW287827   3.943   4.792   1.428  0.4452  1.3410 -1.9093
28399SOL     OW87828   6.939   7.801   2.639 -0.4791 -0.0237  0.2950
28399SOL    HW187829   6.879   7.785   2.566 -0.8796 -0.9033  0.7965
28399SOL    HW287830   6.957   7.714   2.674 -1.7593  0.4698  2.4034
28400SOL     OW87831   0.970   0.745   6.432  0.4859 -0.0790  0.0433
28400SOL    HW187832   0.917   0.702   6.500 -0.6692  0.3858 -0.5366
28400SOL    HW287833   0.925   0.828   6.416 -1.0454 -1.3555 -3.3491
28401SOL     OW87834   7.827   3.847   6.041  0.2762 -0.2005  0.3079
28401SOL    HW187835   7.830   3.775   6.104 -0.2509 -0.0970  0.4536
28401SOL    HW287836   7.878   3.816   5.967  1.3058 -0.1518  0.9679
28402SOL     OW87837   4.359   4.006   9.202  0.5461  0.4545  0.3254
28402SOL    HW187838   4.385   4.092   9.168  0.6889 -0.2024 -1.3501
28402SOL    HW287839   4.441   3.967   9.234  1.0811 -0.1687 -1.6138
28403SOL     OW87840  10.114   8.352   7.547 -0.0004  0.4524  0.3695
28403SOL    HW187841  10.056   8.351   7.471 -0.2679 -1.2494  0.5643
28403SOL    HW287842  10.088   8.430   7.596 -0.9006  0.6915 -0.4604
28404SOL     OW87843   4.450   7.657   0.356 -0.2276  0.2185 -0.2283
28404SOL    HW187844   4.533   7.690   0.392 -0.4150 -0.3839  0.8047
28404SOL    HW287845   4.430   7.580   0.409 -1.2689  0.1455 -0.7047
28405SOL     OW87846   7.945   9.658   2.792  0.6741 -0.4854  0.0471
28405SOL    HW187847   7.973   9.705   2.871 -0.2251  1.2692 -0.6309
28405SOL    HW287848   8.026   9.619   2.757  1.9053  2.2675 -0.4422
28406SOL     OW87849   2.530   8.935   5.798  0.3416 -0.2648 -0.0753
28406SOL    HW187850   2.582   9.016   5.796 -0.6577  0.3920 -0.8950
28406SOL    HW287851   2.440   8.965   5.790 -0.2308 -1.3503  1.7387
28407SOL     OW87852  10.216   5.741   3.142 -0.0965  0.3313  0.2250
28407SOL    HW187853  10.187   5.832   3.147 -0.1578  0.3354 -0.1626
28407SOL    HW287854  10.274   5.730   3.217  0.0201  0.7287  0.1975
28408SOL     OW87855   9.513   5.313   3.101 -0.1158 -0.1836  0.7601
28408SOL    HW187856   9.554   5.247   3.045  1.8592  0.8395  0.8954
28408SOL    HW287857   9.419   5.296   3.094  0.2984 -3.0099  0.8222
28409SOL     OW87858   0.364   3.419   9.825 -0.3244  0.3458  0.4468
28409SOL    HW187859   0.300   3.436   9.756 -1.0631  1.0445  1.2681
28409SOL    HW287860   0.331   3.341   9.869  1.1735 -1.2622 -1.1292
28410SOL     OW87861   3.966   9.568   7.985  0.3326 -0.4836  0.5520
28410SOL    HW187862   3.920   9.544   8.066 -0.2514 -1.1681  0.0397
28410SOL    HW287863   3.928   9.510   7.919 -1.2539  1.9178 -0.8171
28411SOL     OW87864   2.282   0.835   9.788  0.5597  0.4821  0.0955
28411SOL    HW187865   2.216   0.830   9.857  0.3217  0.1654 -0.1531
28411SOL    HW287866   2.238   0.879   9.716  0.0073 -1.3815 -0.7583
28412SOL     OW87867   6.690   3.652   7.380  0.2108  0.5944 -0.5537
28412SOL    HW187868   6.675   3.746   7.381 -0.1265  0.6279 -2.9233
28412SOL    HW287869   6.643   3.621   7.303  2.6698 -1.0664 -1.5207
28413SOL     OW87870   1.712   1.939   9.627  0.0107  0.0937 -0.0210
28413SOL    HW187871   1.643   1.993   9.589 -0.3057  0.5695  1.1799
28413SOL    HW287872   1.670   1.856   9.648 -0.1958  0.3446  0.6068
28414SOL     OW87873   2.975   5.480   3.763  0.1386  0.5594 -0.5385
28414SOL    HW187874   2.914   5.415   3.729  0.9575 -0.0749 -0.8483
28414SOL    HW287875   2.951   5.489   3.856 -0.5693  0.5033 -0.7140
28415SOL     OW87876   7.150   8.020   4.907  0.7585 -0.2702 -0.1155
28415SOL    HW187877   7.183   7.938   4.945  0.5524  0.1090  0.9176
28415SOL    HW287878   7.226   8.060   4.866  1.1290 -0.3909  0.4507
28416SOL     OW87879   0.123   3.916   1.622 -0.4446  0.3726 -0.1864
28416SOL    HW187880   0.119   3.854   1.695  0.2567 -0.0281 -0.4805
28416SOL    HW287881   0.033   3.947   1.612 -0.8927 -0.9151 -0.3071
28417SOL     OW87882   6.874   3.617   6.230  0.3121 -0.1218  0.1580
28417SOL    HW187883   6.821   3.635   6.153 -0.2041 -1.9291  0.0316
28417SOL    HW287884   6.958   3.658   6.212 -0.9760  2.9313  0.3995
28418SOL     OW87885   3.590   2.680   5.576 -0.3540  0.2006  0.1075
28418SOL    HW187886   3.647   2.627   5.632  0.7240 -1.1120 -2.1259
28418SOL    HW287887   3.539   2.617   5.526 -2.4127  1.3606  0.6473
28419SOL     OW87888   7.725   2.759   2.488  0.4979  0.3094 -0.0178
28419SOL    HW187889   7.805   2.773   2.436  0.1468 -0.3022 -0.7369
28419SOL    HW287890   7.752   2.777   2.578  1.5999 -0.4146 -0.1784
28420SOL     OW87891   6.507   0.730   8.954 -0.4445  0.0871 -0.2293
28420SOL    HW187892   6.532   0.716   8.863 -0.9439 -2.1864 -0.0992
28420SOL    HW287893   6.563   0.801   8.984  2.0363 -1.2140 -1.4436
28421SOL     OW87894   6.500   1.909   4.672  0.1010 -0.3704 -0.1973
28421SOL    HW187895   6.447   1.961   4.731 -0.7747 -0.5849 -0.7799
28421SOL    HW287896   6.503   1.822   4.712  0.7864 -0.1275  0.2986
28422SOL     OW87897   2.904   3.582   0.920 -0.0434  0.3923 -0.0814
28422SOL    HW187898   2.973   3.588   0.985 -1.4051 -0.0286  1.4626
28422SOL    HW287899   2.842   3.519   0.956 -0.9838  0.3416 -1.6720
28423SOL     OW87900   5.001   9.207   3.617 -0.7101 -0.0996  0.0159
28423SOL    HW187901   4.975   9.296   3.639 -2.3505 -0.5354 -0.0146
28423SOL    HW287902   4.920   9.164   3.590  0.4292 -0.9510 -2.3008
28424SOL     OW87903   7.815   8.061   9.704 -0.5433  0.2443 -0.0109
28424SOL    HW187904   7.731   8.104   9.685 -1.4017 -1.8533 -1.3215
28424SOL    HW287905   7.879   8.107   9.650 -0.8560  1.6722  0.7713
28425SOL     OW87906   8.160   5.243   7.709  0.5534  0.3796 -0.4008
28425SOL    HW187907   8.093   5.311   7.709  0.0075 -0.1387 -1.3836
28425SOL    HW287908   8.147   5.195   7.791 -1.1612 -0.5408 -1.1594
28426SOL     OW87909   5.241   6.365   8.248 -0.1472  0.1979 -0.3521
28426SOL    HW187910   5.204   6.441   8.202  1.2116  0.0807 -1.7273
28426SOL    HW287911   5.203   6.370   8.336 -2.5696  0.6634 -1.3248
28427SOL     OW87912   6.399   9.427   4.048 -0.3567  0.0969  0.2167
28427SOL    HW187913   6.436   9.516   4.048  0.0356  0.0112 -2.2470
28427SOL    HW287914   6.441   9.383   4.121 -0.6014  1.9347  1.5427
28428SOL     OW87915   3.726   7.799   9.099 -0.1188  0.0793  0.0082
28428SOL    HW187916   3.799   7.774   9.042 -0.8879 -0.3904 -0.7887
28428SOL    HW287917   3.768   7.827   9.180  1.0195  0.9125 -0.8220
28429SOL     OW87918   7.650  10.101   9.295  0.3791 -0.1282  0.2568
28429SOL    HW187919   7.661  10.012   9.328 -1.2817 -0.8790 -1.0621
28429SOL    HW287920   7.625  10.089   9.203 -0.4721  1.6809  0.2253
28430SOL     OW87921   4.537   6.115   6.550 -0.3290 -0.3005 -0.0078
28430SOL    HW187922   4.520   6.031   6.592  1.4188 -1.2895 -1.1460
28430SOL    HW287923   4.558   6.093   6.459 -3.2765  1.6922 -1.3475
28431SOL     OW87924   9.516   0.846   3.656 -0.3911 -0.0809 -0.3813
28431SOL    HW187925   9.520   0.901   3.578 -1.0199 -0.8705 -0.9903
28431SOL    HW287926   9.423   0.838   3.675 -0.2434  0.0075  0.3846
28432SOL     OW87927   4.004   2.794   6.861 -0.6309  0.2644  0.1425
28432SOL    HW187928   3.980   2.816   6.772 -2.9793  0.8174  0.8541
28432SOL    HW287929   4.091   2.833   6.872 -1.3488  2.4100 -1.1283
28433SOL     OW87930   6.902   9.909   9.526  0.3620  0.0479  0.1464
28433SOL    HW187931   6.919   9.894   9.434 -0.9363 -1.1704  0.0836
28433SOL    HW287932   6.904   9.822   9.566 -0.2903  0.4287  1.0487
28434SOL     OW87933   1.491   8.226   3.391  0.3017 -0.0314  0.2690
28434SOL    HW187934   1.500   8.131   3.392  0.9124  0.0201  0.3982
28434SOL    HW287935   1.555   8.256   3.326 -1.1128  0.1899 -1.0843
28435SOL     OW87936   6.520   6.152   1.171  0.1432 -0.1269 -0.5815
28435SOL    HW187937   6.446   6.170   1.113  0.9304 -1.3030 -1.9736
28435SOL    HW287938   6.594   6.136   1.113  1.8283  2.0621  0.7618
28436SOL     OW87939   9.489   6.110   5.410 -0.0299 -0.0441  0.0257
28436SOL    HW187940   9.465   6.071   5.325  1.8503 -0.4818 -0.3537
28436SOL    HW287941   9.584   6.097   5.416  0.0049  0.7859  1.8092
28437SOL     OW87942   8.642   5.840   3.279  0.0080  0.1720  0.2476
28437SOL    HW187943   8.704   5.768   3.285 -1.3408 -1.0270  0.5891
28437SOL    HW287944   8.692   5.913   3.244  1.3442 -1.0449 -0.4738
28438SOL     OW87945   9.980   7.697   2.900 -0.6942 -0.2650  0.5131
28438SOL    HW187946   9.894   7.673   2.864  0.6099 -2.8047 -1.2132
28438SOL    HW287947  10.025   7.739   2.828 -0.3438  0.7473  1.3100
28439SOL     OW87948   1.366   3.018   8.552 -0.2058 -0.1404 -0.2229
28439SOL    HW187949   1.403   2.935   8.522  0.0777 -0.3462  0.6482
28439SOL    HW287950   1.416   3.085   8.506  0.1016 -0.4457 -0.3364
28440SOL     OW87951   0.712   2.303   1.724  0.6247  0.4786 -0.4600
28440SOL    HW187952   0.656   2.338   1.794 -1.3166  1.0509 -2.1795
28440SOL    HW287953   0.651   2.257   1.666  2.5282 -2.1272 -0.5354
28441SOL     OW87954   3.459   5.814   8.270 -0.1473  0.2168  0.0203
28441SOL    HW187955   3.412   5.749   8.218 -1.2134  1.5036 -0.7057
28441SOL    HW287956   3.534   5.837   8.216  1.5261 -1.9900  1.2709
28442SOL     OW87957   0.240   8.170   1.828 -0.4365 -0.2111  0.2474
28442SOL    HW187958   0.201   8.250   1.793 -0.0227  0.1591  0.6325
28442SOL    HW287959   0.167   8.107   1.829 -0.6119 -0.0486 -0.6776
28443SOL     OW87960   9.027   3.743   7.990 -0.1807 -0.4650 -0.5777
28443SOL    HW187961   8.987   3.659   7.967  0.4146 -0.9670  0.1701
28443SOL    HW287962   9.122   3.725   7.987 -0.0685 -0.1604  0.7906
28444SOL     OW87963  10.337   3.385   7.270  0.4377  0.6795  0.1844
28444SOL    HW187964  10.405   3.430   7.220  1.3285 -0.8980 -0.0783
28444SOL    HW287965  10.260   3.387   7.212  0.7371  1.0069 -0.2125
28445SOL     OW87966   7.386   3.527   4.791 -0.2632  0.1151 -0.6361
28445SOL    HW187967   7.459   3.532   4.853 -0.4282 -0.6571 -0.3690
28445SOL    HW287968   7.428   3.514   4.705 -0.0698  0.1445 -0.5469
28446SOL     OW87969   3.574   3.011   4.960  0.1521 -0.4201 -0.4225
28446SOL    HW187970   3.531   3.024   5.044 -2.5683 -1.7748 -1.4842
28446SOL    HW287971   3.502   3.005   4.897  2.0682  0.0134 -2.7873
28447SOL     OW87972   7.841   4.996   4.283 -0.2997 -0.1843  0.4532
28447SOL    HW187973   7.907   4.998   4.352  2.8416  1.6572 -2.2767
28447SOL    HW287974   7.819   5.088   4.269  1.7066 -0.0268 -2.9426
28448SOL     OW87975   5.604   4.095   3.081 -0.6609 -0.2512  0.2385
28448SOL    HW187976   5.530   4.100   3.142 -0.7580 -1.0412  0.1897
28448SOL    HW287977   5.613   4.185   3.048 -0.4502  0.2490  1.5787
28449SOL     OW87978   1.215   9.532   7.780 -0.1796 -0.3603 -0.4968
28449SOL    HW187979   1.225   9.456   7.837  0.0574  0.1734  0.1801
28449SOL    HW287980   1.213   9.495   7.692 -1.9773 -1.3244 -0.0983
28450SOL     OW87981   2.943   9.562   2.715 -0.3429 -0.6333 -0.2027
28450SOL    HW187982   3.006   9.587   2.783 -0.5486 -0.1591 -0.1802
28450SOL    HW287983   2.974   9.478   2.683  0.0172 -0.6421  0.1611
28451SOL     OW87984   6.624   0.626   1.299  0.9231  0.5316  0.6194
28451SOL    HW187985   6.633   0.692   1.230 -0.1965 -0.8582 -0.9381
28451SOL    HW287986   6.633   0.542   1.253  0.3747 -0.4410  2.2146
28452SOL     OW87987   7.061   8.932   8.994  0.0027  0.2847 -0.3688
28452SOL    HW187988   7.044   8.867   9.063  1.5341  1.2663  1.0124
28452SOL    HW287989   7.146   8.908   8.959 -0.5066  0.1459 -1.5711
28453SOL     OW87990   9.882   5.968   2.333 -0.0541 -0.1984  0.4283
28453SOL    HW187991   9.793   5.972   2.298  1.0107 -1.2237 -2.7656
28453SOL    HW287992   9.883   5.887   2.385 -0.1888 -2.3341 -2.5839
28454SOL     OW87993   0.394   5.793   7.895 -0.3007 -0.2674 -0.1383
28454SOL    HW187994   0.332   5.855   7.856  0.5491 -0.5249 -2.0248
28454SOL    HW287995   0.354   5.707   7.880 -0.2121 -0.3373  0.0272
28455SOL     OW87996   4.327   7.128   9.623 -0.1913  0.4536 -0.0520
28455SOL    HW187997   4.346   7.113   9.530  0.2323  0.9488 -0.0505
28455SOL    HW287998   4.290   7.216   9.625 -1.2104  0.0238  0.1188
28456SOL     OW87999   6.263   0.349   3.855  0.4135  0.0766  0.5317
28456SOL    HW188000   6.206   0.329   3.930  0.1368  0.7661  0.5175
28456SOL    HW288001   6.326   0.413   3.890 -1.2546  2.3665 -0.4080
28457SOL     OW88002   8.017   8.143   6.521 -0.2399  0.2649  0.0587
28457SOL    HW188003   8.017   8.230   6.560 -0.3692  0.8584 -1.2309
28457SOL    HW288004   8.077   8.149   6.446 -0.7063 -0.5834 -0.4041
28458SOL     OW88005   5.850   5.639   3.540 -0.0534 -0.1917  0.0113
28458SOL    HW188006   5.868   5.647   3.446  0.0508 -2.5925 -0.2338
28458SOL    HW288007   5.778   5.700   3.556  1.1140  1.5965 -1.2211
28459SOL     OW88008   9.832   5.641   9.127 -0.2429 -0.8216  0.0984
28459SOL    HW188009   9.768   5.609   9.191 -2.9966  0.6400 -1.7305
28459SOL    HW288010   9.799   5.610   9.043  0.9847  0.7184 -1.0050
28460SOL     OW88011   3.689   6.468   4.459  0.4762 -0.1635  0.0188
28460SOL    HW188012   3.607   6.418   4.451 -0.6626  1.2429  1.8609
28460SOL    HW288013   3.757   6.406   4.433 -1.1555 -1.3503 -1.7313
28461SOL     OW88014   5.713   0.246   6.009  0.1818 -0.5391 -0.5380
28461SOL    HW188015   5.680   0.222   5.922  0.3475  0.9007 -1.0199
28461SOL    HW288016   5.636   0.239   6.066  0.4400 -3.1841 -0.4106
28462SOL     OW88017   7.659   9.628   2.572 -0.5500  0.0256  0.9764
28462SOL    HW188018   7.618   9.649   2.656 -1.6628  1.3812  0.1354
28462SOL    HW288019   7.649   9.708   2.519 -0.6511 -1.0625 -0.7367
28463SOL     OW88020  10.153   1.364   2.065  0.1136 -0.4960 -0.3278
28463SOL    HW188021  10.248   1.354   2.056 -0.0099 -1.9492 -0.2067
28463SOL    HW288022  10.139   1.368   2.160 -0.1210 -2.7292 -0.2086
28464SOL     OW88023   3.029   5.974   5.702  0.7490 -0.0800  0.4855
28464SOL    HW188024   2.949   5.978   5.650  1.4489  2.9574 -0.5903
28464SOL    HW288025   3.049   6.065   5.722  3.7852 -0.7256  0.9455
28465SOL     OW88026   8.859   2.961   5.466  0.2889 -0.2941 -0.2816
28465SOL    HW188027   8.942   2.968   5.418  1.4748 -0.0535  1.6853
28465SOL    HW288028   8.870   3.020   5.541 -2.3386  1.0384 -0.8357
28466SOL     OW88029   2.720   8.331   3.428  0.3398 -0.2562  0.0150
28466SOL    HW188030   2.694   8.384   3.353  0.2637  0.4561  0.5332
28466SOL    HW288031   2.639   8.317   3.476  0.1814 -1.6924 -0.6303
28467SOL     OW88032   8.287   1.583   6.621  0.0306 -0.2708  0.1795
28467SOL    HW188033   8.365   1.635   6.641  1.5293 -2.2829 -0.1633
28467SOL    HW288034   8.267   1.605   6.529 -0.5209  1.0561  0.5831
28468SOL     OW88035   3.445   2.379   6.641 -0.2512  0.2659  0.1021
28468SOL    HW188036   3.414   2.387   6.550 -2.7502  1.0243  0.9510
28468SOL    HW288037   3.537   2.404   6.637 -0.4539  0.8644 -2.1230
28469SOL     OW88038   0.659   9.221   4.125 -0.0143 -0.0567 -0.1789
28469SOL    HW188039   0.710   9.186   4.052  0.2374 -0.4767  0.1918
28469SOL    HW288040   0.599   9.284   4.085  0.9682  0.6490 -0.5982
28470SOL     OW88041   0.325   6.990   9.403  0.4050  0.0094 -0.1648
28470SOL    HW188042   0.284   6.908   9.430  1.0873 -0.6213 -0.9943
28470SOL    HW288043   0.252   7.044   9.372 -0.1412  0.0193  1.0787
28471SOL     OW88044   2.539   3.143   5.821 -0.0194  0.0738 -0.2566
28471SOL    HW188045   2.563   3.213   5.760  2.1244 -1.0001 -0.7313
28471SOL    HW288046   2.503   3.074   5.766  0.2262 -0.1874 -0.0920
28472SOL     OW88047   7.360   0.007   6.033 -0.4223  0.2304  0.3827
28472SOL    HW188048   7.282  -0.041   6.003  0.3408  0.0322 -1.4727
28472SOL    HW288049   7.432  -0.054   6.016  0.2317  0.8062  1.0879
28473SOL     OW88050   7.087   1.095   3.024  0.0582  0.0630  0.0683
28473SOL    HW188051   7.149   1.167   3.013 -0.7519  0.6472 -0.7563
28473SOL    HW288052   7.143   1.017   3.026  1.0383  0.7370  1.9473
28474SOL     OW88053  10.296   1.466   7.474  0.0425  0.9468 -0.5089
28474SOL    HW188054  10.335   1.534   7.529 -0.9896  1.3563 -0.2511
28474SOL    HW288055  10.232   1.513   7.420  1.0789  0.5758 -2.1344
28475SOL     OW88056   8.026   6.532   3.166  0.1509  0.7814  0.3044
28475SOL    HW188057   8.046   6.608   3.112 -0.2509  0.0384 -0.9222
28475SOL    HW288058   8.002   6.463   3.104 -1.0311  0.1010  1.4440
28476SOL     OW88059  10.094   0.385   2.951  0.0207 -0.3191 -0.3273
28476SOL    HW188060  10.045   0.382   2.869  1.2089  0.8671 -1.1298
28476SOL    HW288061  10.048   0.451   3.004  0.1334  0.0257 -0.6567
28477SOL     OW88062   0.994   9.393   9.851  0.6557  0.3093  0.0027
28477SOL    HW188063   0.899   9.391   9.840  0.7530 -0.6024 -0.7835
28477SOL    HW288064   1.009   9.457   9.920 -0.5396  0.3458  0.2409
28478SOL     OW88065   4.275   7.405  10.265 -0.0290 -0.5953 -0.4775
28478SOL    HW188066   4.278   7.341  10.194 -0.8758  1.0181 -2.0732
28478SOL    HW288067   4.221   7.476  10.230  0.6959  0.8967  1.2827
28479SOL     OW88068   8.154   8.806   4.011 -0.4000  0.5560 -0.4001
28479SOL    HW188069   8.073   8.805   3.961 -0.2225  0.2660 -0.6835
28479SOL    HW288070   8.218   8.764   3.954 -0.1597  0.3599  0.0117
28480SOL     OW88071   8.604   9.062   6.481  0.1133  0.0843  0.2057
28480SOL    HW188072   8.570   9.149   6.464 -0.8438 -0.3801 -0.3802
28480SOL    HW288073   8.597   9.016   6.397 -1.5191 -1.2269  0.9873
28481SOL     OW88074   0.824   4.580   6.715 -0.3292 -0.0610  0.4954
28481SOL    HW188075   0.811   4.627   6.798  1.8916 -1.8393  1.9628
28481SOL    HW288076   0.910   4.608   6.685 -1.6825  1.7163 -2.1428
28482SOL     OW88077   4.260   3.036   4.459  0.1317 -0.1303  0.2644
28482SOL    HW188078   4.240   2.944   4.439 -3.4346  0.3925  0.6228
28482SOL    HW288079   4.286   3.073   4.374 -0.6187 -1.0129 -0.3800
28483SOL     OW88080   9.835   6.241   6.590 -0.0522 -0.7453  0.6583
28483SOL    HW188081   9.883   6.293   6.653 -1.1972 -0.5360  1.3858
28483SOL    HW288082   9.890   6.240   6.512  1.1735 -0.6282  1.4986
28484SOL     OW88083   7.044   3.773   5.879 -0.1231  0.3262 -0.2847
28484SOL    HW188084   6.958   3.774   5.920  0.0703  2.3819  0.1600
28484SOL    HW288085   7.102   3.739   5.947 -0.5013 -0.7462 -0.4757
28485SOL     OW88086   5.404   1.901   5.526  0.0376 -0.4044 -0.1249
28485SOL    HW188087   5.485   1.851   5.514  0.3179  0.0052  0.0588
28485SOL    HW288088   5.337   1.846   5.485  0.6957  0.1355 -2.0764
28486SOL     OW88089   6.137   6.351   0.876  0.2492 -0.1256  0.0236
28486SOL    HW188090   6.152   6.301   0.956 -0.5407  0.1464  0.3554
28486SOL    HW288091   6.224   6.367   0.840  0.5921 -0.4615  0.7011
28487SOL     OW88092   3.371  10.153   5.136  0.2036  0.4729  0.2142
28487SOL    HW188093   3.377  10.221   5.069  1.1124 -0.0936 -0.3130
28487SOL    HW288094   3.291  10.172   5.183 -0.4075  0.9514 -0.9716
28488SOL     OW88095   6.794   1.975   9.755 -0.7042 -0.2262 -0.2401
28488SOL    HW188096   6.806   2.056   9.705 -0.9628  0.2218  0.4086
28488SOL    HW288097   6.799   1.906   9.690 -1.6081  0.3752 -0.9760
28489SOL     OW88098   3.014   8.338   1.208 -0.1199  0.4237  0.2188
28489SOL    HW188099   3.084   8.274   1.214 -1.8103 -1.7204 -1.2605
28489SOL    HW288100   2.972   8.337   1.294  0.9402  0.9132  0.7594
28490SOL     OW88101   6.798   0.934   3.065  1.0801  0.2063 -0.6411
28490SOL    HW188102   6.858   1.003   3.092  0.0028  1.2022 -0.7341
28490SOL    HW288103   6.853   0.855   3.061  1.8626  0.5573  1.6985
28491SOL     OW88104   8.773   8.312   9.004  0.1931 -0.3563 -0.6096
28491SOL    HW188105   8.830   8.380   8.969 -1.7999  2.4114  1.0615
28491SOL    HW288106   8.815   8.285   9.086 -1.1355  2.3405  1.0957
28492SOL     OW88107  10.177   5.269   3.371  0.3454 -0.0928  0.0769
28492SOL    HW188108  10.086   5.249   3.350  0.4152 -0.8658  0.4693
28492SOL    HW288109  10.173   5.348   3.425 -0.2467 -1.0292  1.4757
28493SOL     OW88110   1.803   2.874   1.458  0.5141  0.2926  0.3501
28493SOL    HW188111   1.785   2.909   1.545 -1.6549  0.9493 -0.2933
28493SOL    HW288112   1.755   2.791   1.455  0.4451  0.3490 -0.2600
28494SOL     OW88113   1.670   9.950   3.470 -0.6043  0.3884  0.3104
28494SOL    HW188114   1.669   9.861   3.504  0.8259  0.6836  1.2233
28494SOL    HW288115   1.638  10.004   3.543  0.6714  0.8280  0.5748
28495SOL     OW88116   1.014   9.080   9.848  0.3536  0.3332 -0.1467
28495SOL    HW188117   0.987   9.165   9.811  1.0528  0.5889 -0.0856
28495SOL    HW288118   0.965   9.073   9.930  1.0526  1.1533  0.3534
28496SOL     OW88119   8.021   8.231   7.115 -0.6236 -0.1760  0.3457
28496SOL    HW188120   7.956   8.300   7.107 -0.2715  0.0426 -0.9547
28496SOL    HW288121   8.036   8.203   7.024  0.2459 -1.0035  0.7355
28497SOL     OW88122   5.832   1.153   0.978 -0.0298 -0.4302 -0.1971
28497SOL    HW188123   5.906   1.212   0.983 -1.4855  1.4490  0.4536
28497SOL    HW288124   5.761   1.206   0.942 -1.1552 -2.0860 -0.5660
28498SOL     OW88125  10.280   8.411   3.462  0.3798 -0.4343 -0.7911
28498SOL    HW188126  10.286   8.503   3.436 -2.9404  0.0384 -0.3090
28498SOL    HW288127  10.371   8.383   3.468  1.5990  3.1038  0.1233
28499SOL     OW88128   1.349   3.561   0.730  0.0747  0.0548 -0.2771
28499SOL    HW188129   1.363   3.469   0.707  1.2074  0.5064 -1.4989
28499SOL    HW288130   1.275   3.559   0.792  0.2968 -1.6918 -0.0131
28500SOL     OW88131   6.045   3.043   4.445  0.4329 -1.0242  0.0929
28500SOL    HW188132   5.961   3.072   4.480  1.4909 -0.9874  2.8716
28500SOL    HW288133   6.041   3.064   4.352 -2.0004  0.4425  0.4415
28501SOL     OW88134   4.447   3.861   8.179  0.3954  0.2447  0.0391
28501SOL    HW188135   4.532   3.878   8.221  0.2738  1.4537 -0.1581
28501SOL    HW288136   4.414   3.782   8.222  1.9491 -0.6904 -0.4041
28502SOL     OW88137   6.566   6.142   6.009  0.6325  0.0909 -0.9649
28502SOL    HW188138   6.509   6.101   5.944 -1.5303  2.2524 -0.5822
28502SOL    HW288139   6.608   6.214   5.962 -0.1364  1.0135 -0.2841
28503SOL     OW88140  10.298  10.011   4.960 -0.0559  0.0581  0.2739
28503SOL    HW188141  10.282  10.098   4.924  1.2807  0.6049  0.9483
28503SOL    HW288142  10.349   9.966   4.893  0.2214  0.1914  0.3929
28504SOL     OW88143   8.089   6.498   5.705 -0.2024 -0.5199 -0.3454
28504SOL    HW188144   8.008   6.535   5.741 -1.3731  0.4702 -3.6638
28504SOL    HW288145   8.119   6.563   5.641  2.9141 -1.1729  0.2971
28505SOL     OW88146   2.957   0.501   6.761 -0.6172  0.0205  0.2110
28505SOL    HW188147   2.868   0.534   6.776 -0.1847  1.5951 -0.5266
28505SOL    HW288148   2.998   0.506   6.848 -0.9646  0.1649  0.3721
28506SOL     OW88149   6.461   6.198  10.117 -0.1938  0.7589  0.2152
28506SOL    HW188150   6.504   6.246  10.047 -0.6945 -0.2004 -0.7942
28506SOL    HW288151   6.372   6.185  10.086 -1.5109  3.2488  2.5206
28507SOL     OW88152   2.288   2.928   8.537 -0.3389 -0.1166 -0.4693
28507SOL    HW188153   2.284   3.011   8.490  0.1637 -0.1689 -0.6122
28507SOL    HW288154   2.376   2.925   8.574 -1.3721  0.8560  2.2591
28508SOL     OW88155   9.432   9.050   3.602 -0.1792 -0.5131 -0.1261
28508SOL    HW188156   9.448   9.064   3.508 -1.7782  2.5559 -0.0777
28508SOL    HW288157   9.395   8.962   3.607 -1.5663 -0.1912 -2.6350
28509SOL     OW88158   9.827   0.083   8.736 -0.1501  0.0668 -0.1910
28509SOL    HW188159   9.891   0.142   8.696  0.4808 -0.2662  0.3147
28509SOL    HW288160   9.811   0.016   8.670  1.3293 -0.8090  0.3075
28510SOL     OW88161   4.458   5.127   3.055 -0.2661  0.1349  0.1105
28510SOL    HW188162   4.510   5.048   3.065  0.3132  0.7383  2.6030
28510SOL    HW288163   4.368   5.099   3.070 -0.2954 -0.3616 -0.9572
28511SOL     OW88164   9.232   9.899   6.817  0.1700 -0.2485  0.1057
28511SOL    HW188165   9.316   9.864   6.848 -0.3889 -0.9164  0.8963
28511SOL    HW288166   9.178   9.905   6.895 -0.7664 -0.5053 -0.5078
28512SOL     OW88167   0.179   1.976   7.504  0.3886  0.1990 -0.2356
28512SOL    HW188168   0.241   1.976   7.431  1.2115  0.4427  0.4494
28512SOL    HW288169   0.215   1.912   7.566  0.1511  0.6051  0.3308
28513SOL     OW88170   0.994   8.004   0.718  0.6611  0.0859 -0.3563
28513SOL    HW188171   0.986   7.917   0.757 -1.1082  0.5794  0.4625
28513SOL    HW288172   1.046   8.054   0.781 -1.4774  0.6366  1.0807
28514SOL     OW88173   4.813   1.700   5.922 -0.1878 -0.0717  0.0569
28514SOL    HW188174   4.781   1.625   5.872  1.4006 -0.7007 -0.0527
28514SOL    HW288175   4.740   1.723   5.980 -1.0771 -1.0116 -0.6466
28515SOL     OW88176   2.252   9.453   2.378  0.2131 -0.8800 -0.5309
28515SOL    HW188177   2.272   9.523   2.316 -2.6031  0.2884 -0.2895
28515SOL    HW288178   2.337   9.417   2.402  1.8834  2.7608 -0.3271
28516SOL     OW88179   6.095   0.106   4.250 -0.8062 -0.1403 -0.3013
28516SOL    HW188180   6.072   0.063   4.332 -1.6519  0.9580  0.0751
28516SOL    HW288181   6.156   0.047   4.207 -0.4877 -0.8157  1.0416
28517SOL     OW88182   5.630   7.250   1.589  0.1573 -0.2851  0.1370
28517SOL    HW188183   5.551   7.196   1.594 -0.7571  1.0266  0.2888
28517SOL    HW288184   5.692   7.208   1.648 -1.0579 -0.3254  1.4245
28518SOL     OW88185   0.475   5.875   4.491 -0.3514 -0.2696  0.9597
28518SOL    HW188186   0.527   5.819   4.549 -0.5791 -0.8850  0.5740
28518SOL    HW288187   0.385   5.858   4.517 -0.3751  3.1111  3.8139
28519SOL     OW88188   1.113   1.717   2.474 -0.0697  0.1267 -0.3162
28519SOL    HW188189   1.023   1.693   2.495  0.1965 -1.8438 -1.1875
28519SOL    HW288190   1.166   1.673   2.541  0.2939  0.5908 -0.2952
28520SOL     OW88191   1.805   2.487   1.033 -0.3999 -0.0040 -0.5322
28520SOL    HW188192   1.735   2.488   1.098  0.9860 -0.8118  1.0399
28520SOL    HW288193   1.839   2.397   1.035  0.2586  0.1895 -1.7475
28521SOL     OW88194   7.085   2.118   2.378 -0.5260 -0.0753 -0.0511
28521SOL    HW188195   7.023   2.111   2.306 -1.0898 -0.5358  0.4692
28521SOL    HW288196   7.146   2.046   2.364  0.7186  1.1398 -1.3003
28522SOL     OW88197   3.334   0.224  10.291  0.3151 -0.0418 -0.2952
28522SOL    HW188198   3.261   0.171  10.260  0.1922  0.0436 -0.1496
28522SOL    HW288199   3.363   0.179  10.371  0.2620  0.0663 -0.2153
28523SOL     OW88200   4.835   6.267   6.836 -0.0544 -0.2894 -0.1102
28523SOL    HW188201   4.848   6.219   6.754  0.8104  0.7445 -0.5975
28523SOL    HW288202   4.781   6.208   6.889  0.0193 -1.3110 -1.1153
28524SOL     OW88203   7.109   4.004   7.283  0.0380 -0.3518 -0.2740
28524SOL    HW188204   7.135   4.067   7.351 -0.4578 -0.0736 -0.3384
28524SOL    HW288205   7.173   4.016   7.213  1.2528 -1.4303  0.5916
28525SOL     OW88206   9.363   6.960   1.710  0.3640  0.6083 -0.0209
28525SOL    HW188207   9.363   6.890   1.645 -3.8802  0.1081  0.2116
28525SOL    HW288208   9.424   6.930   1.778 -0.3093 -2.2910 -0.5593
28526SOL     OW88209   5.929   4.766   2.744 -0.4995 -0.0708 -0.4444
28526SOL    HW188210   5.992   4.704   2.706 -0.3616 -0.0963 -0.1807
28526SOL    HW288211   5.893   4.719   2.819 -1.5921 -0.4528 -1.1795
28527SOL     OW88212   7.602   7.955   0.140 -0.5837  0.0551 -0.5578
28527SOL    HW188213   7.607   8.039   0.184 -1.3622 -0.8768  1.4113
28527SOL    HW288214   7.681   7.908   0.167 -1.4914 -0.8524  0.6575
28528SOL     OW88215   8.218   5.056   7.925 -0.2630  0.1855  0.7491
28528SOL    HW188216   8.312   5.037   7.924 -0.1887  0.5655 -0.4253
28528SOL    HW288217   8.205   5.105   8.005  0.9303  1.9856 -0.0984
28529SOL     OW88218  10.042   5.087   7.377  0.0128  0.1591  0.0618
28529SOL    HW188219  10.027   5.153   7.444 -1.8316 -1.6287  1.5549
28529SOL    HW288220  10.081   5.014   7.425 -0.3143 -0.7451 -1.0187
28530SOL     OW88221   7.668   1.699   4.025  0.2713 -0.0794  0.1279
28530SOL    HW188222   7.714   1.761   3.969 -0.9795  0.0894 -0.7637
28530SOL    HW288223   7.625   1.754   4.091 -1.2068  0.0898 -0.9299
28531SOL     OW88224   6.961   1.674   6.985 -0.2310 -0.1417 -0.5005
28531SOL    HW188225   7.026   1.736   6.954 -0.2328 -0.0491 -0.3210
28531SOL    HW288226   6.881   1.697   6.938 -0.7299  1.2227  0.9430
28532SOL     OW88227  10.112   5.466   3.551 -0.0150  0.4440  0.2655
28532SOL    HW188228  10.053   5.506   3.614 -1.5411  1.2153 -1.5743
28532SOL    HW288229  10.175   5.535   3.531  1.5469 -0.3344  2.1204
28533SOL     OW88230   1.712   4.117   8.364 -0.1968  0.2380 -0.3429
28533SOL    HW188231   1.690   4.042   8.309 -1.0991  0.0709  0.2328
28533SOL    HW288232   1.733   4.187   8.301  0.6112 -0.4668 -0.8830
28534SOL     OW88233   5.781   2.910   6.306 -0.2917  0.2474 -0.2479
28534SOL    HW188234   5.822   2.829   6.276  1.4830  0.4332  1.5067
28534SOL    HW288235   5.853   2.961   6.343 -1.4642  2.3894 -0.7557
28535SOL     OW88236   7.301   6.955   7.932  0.0357 -0.1507  0.0371
28535SOL    HW188237   7.261   6.876   7.895  1.1325 -1.0492  0.7107
28535SOL    HW288238   7.323   6.931   8.022 -2.1698  1.8429  1.2156
28536SOL     OW88239   3.275   7.675   0.506 -0.1114  0.5133  0.0834
28536SOL    HW188240   3.312   7.629   0.581  0.7007 -2.1367 -1.7832
28536SOL    HW288241   3.200   7.724   0.541  0.7354  0.0444  2.6997
28537SOL     OW88242   8.102   1.464   8.734  0.2916  0.0360 -0.3845
28537SOL    HW188243   8.077   1.554   8.755 -0.1991 -0.2922  0.4453
28537SOL    HW288244   8.035   1.410   8.775  0.4065 -0.7047 -1.1508
28538SOL     OW88245   0.316   1.149   2.091  0.4563 -0.3350 -0.3671
28538SOL    HW188246   0.323   1.057   2.064  0.5913 -0.3239 -0.3709
28538SOL    HW288247   0.405   1.183   2.084  0.1632  0.2344 -1.9483
28539SOL     OW88248  10.090   1.393   4.789 -0.1540  0.6698  0.2006
28539SOL    HW188249  10.080   1.486   4.769  0.3166  0.7542  0.3288
28539SOL    HW288250  10.019   1.350   4.742  1.3074  0.7787 -2.2947
28540SOL     OW88251   2.408   9.481   3.968  0.1228 -0.2689  0.1355
28540SOL    HW188252   2.397   9.485   4.063 -2.1787 -0.9660 -0.0423
28540SOL    HW288253   2.469   9.408   3.953  0.6075 -0.0640  1.0546
28541SOL     OW88254   5.642   5.259   6.192  0.3109  0.3661  0.1508
28541SOL    HW188255   5.633   5.267   6.097 -1.6258  0.1282  0.2795
28541SOL    HW288256   5.707   5.190   6.204 -0.9612 -1.1103 -1.0353
28542SOL     OW88257   4.853   0.893   5.178 -0.2243  0.0229  0.2254
28542SOL    HW188258   4.906   0.879   5.099 -1.2603  0.5960 -0.5995
28542SOL    HW288259   4.804   0.811   5.188 -0.2379  0.0216  0.1514
28543SOL     OW88260   9.446   9.896   7.868  0.0293 -0.0216 -0.2098
28543SOL    HW188261   9.373   9.900   7.806 -1.1335 -1.3773  1.0221
28543SOL    HW288262   9.440   9.977   7.918 -1.4054 -0.6479  0.6840
28544SOL     OW88263   8.509   6.046   2.902  0.0806  0.1076  0.1383
28544SOL    HW188264   8.600   6.032   2.878 -0.1612 -1.1239 -0.1421
28544SOL    HW288265   8.463   6.054   2.818  0.0254  1.5147  0.2832
28545SOL     OW88266   7.416   4.871   8.843  0.0469  0.7122  0.4759
28545SOL    HW188267   7.444   4.955   8.878 -0.4227  0.2701  1.9723
28545SOL    HW288268   7.479   4.808   8.879  0.7546  0.4608 -1.0974
28546SOL     OW88269   9.976   9.209   2.113  0.0465  0.6714  0.3759
28546SOL    HW188270   9.947   9.284   2.166  0.1452 -0.6087  2.3503
28546SOL    HW288271  10.070   9.221   2.104 -0.0719  1.2642 -0.1315
28547SOL     OW88272   9.251   4.318   8.297  0.4896 -0.4157 -0.0543
28547SOL    HW188273   9.317   4.255   8.328  1.2810  0.9863  1.2077
28547SOL    HW288274   9.167   4.274   8.312  0.9378 -0.6309  2.2574
28548SOL     OW88275   2.458   7.819   2.853  0.0749  0.6811  0.0688
28548SOL    HW188276   2.456   7.752   2.784  1.7171  0.0638  0.5653
28548SOL    HW288277   2.382   7.800   2.907 -0.3925  0.2352 -0.7168
28549SOL     OW88278   8.555   1.892   7.929  0.5146 -0.2404  0.5544
28549SOL    HW188279   8.623   1.916   7.991  0.9702  1.3736 -0.5162
28549SOL    HW288280   8.505   1.972   7.914 -0.8181 -1.0709  0.3109
28550SOL     OW88281   0.215   5.062   7.333 -0.4312  0.0488 -0.0818
28550SOL    HW188282   0.301   5.080   7.297 -1.1017  1.9198 -0.8341
28550SOL    HW288283   0.229   4.987   7.392  1.5102 -0.2344 -0.8459
28551SOL     OW88284   3.713   3.653   8.842 -0.3977  0.1528 -0.3358
28551SOL    HW188285   3.724   3.654   8.937 -1.8350 -2.4071 -0.0705
28551SOL    HW288286   3.702   3.561   8.819 -1.7403  0.8165 -2.7789
28552SOL     OW88287   3.654   0.624   1.453  0.5358  0.1673 -0.0689
28552SOL    HW188288   3.653   0.699   1.394 -1.4117 -0.1252 -0.4742
28552SOL    HW288289   3.565   0.620   1.489  0.3753 -2.2768 -0.5397
28553SOL     OW88290   0.450   3.441   6.417 -0.3043 -0.0325 -0.4964
28553SOL    HW188291   0.543   3.457   6.436  0.2637 -0.9606 -2.2316
28553SOL    HW288292   0.434   3.353   6.451 -0.4302 -0.0414 -0.5777
28554SOL     OW88293   9.603   7.202  10.065 -0.0391  0.3593 -0.2815
28554SOL    HW188294   9.582   7.217  10.158 -1.4055 -0.4120 -0.4364
28554SOL    HW288295   9.616   7.290  10.030  0.9506  0.6410  0.7303
28555SOL     OW88296   9.655   4.101   7.733 -0.2333 -0.3230  0.0745
28555SOL    HW188297   9.732   4.140   7.691 -1.6789  1.3447 -1.1459
28555SOL    HW288298   9.639   4.157   7.809 -1.0740  0.2515 -0.5029
28556SOL     OW88299   0.473   9.237   8.807  0.1710  0.3734 -0.0776
28556SOL    HW188300   0.407   9.221   8.874 -0.8924  0.1469 -1.1362
28556SOL    HW288301   0.461   9.329   8.782  0.6892  0.5107  0.1733
28557SOL     OW88302   9.417   9.773   8.853  0.1884  0.1684  0.4055
28557SOL    HW188303   9.393   9.853   8.901 -1.1019  0.1953 -0.2492
28557SOL    HW288304   9.383   9.702   8.908  0.4589  0.1141  0.5014
28558SOL     OW88305   8.357   8.582   8.005  0.0561  0.0064 -0.2027
28558SOL    HW188306   8.327   8.633   7.930  1.0280 -1.1266 -1.3942
28558SOL    HW288307   8.282   8.527   8.028 -1.2927  2.3918  1.5934
28559SOL     OW88308   4.578   5.540   0.733 -0.1782  0.0070  0.5881
28559SOL    HW188309   4.509   5.574   0.676  2.0945  2.1138 -1.1131
28559SOL    HW288310   4.579   5.599   0.807  1.1907  1.4064 -0.4830
28560SOL     OW88311   9.156   4.368   4.185  0.3383 -0.7067 -0.8432
28560SOL    HW188312   9.215   4.428   4.139 -0.3785 -0.0971 -0.9768
28560SOL    HW288313   9.214   4.312   4.236  1.2019 -1.5200 -2.5966
28561SOL     OW88314   8.211   5.150  10.188  0.2923  1.0686  0.3733
28561SOL    HW188315   8.216   5.073  10.132  1.9164  0.8303  0.7913
28561SOL    HW288316   8.158   5.123  10.263  0.4189  0.5289  0.2664
28562SOL     OW88317   1.201   1.727   8.432  0.2371 -0.2319  0.1366
28562SOL    HW188318   1.111   1.746   8.405  0.1030 -2.1289 -0.9284
28562SOL    HW288319   1.204   1.752   8.524 -1.1016  0.7496 -0.0623
28563SOL     OW88320   7.141   2.426   0.597 -0.4425 -0.8386 -0.0020
28563SOL    HW188321   7.230   2.407   0.628 -0.8489 -1.5161  0.8014
28563SOL    HW288322   7.124   2.516   0.626  0.2388 -0.4460 -0.7918
28564SOL     OW88323   9.650   3.184   5.055  1.1354  0.0888  0.7409
28564SOL    HW188324   9.567   3.139   5.069  1.9631 -1.2514  1.5936
28564SOL    HW288325   9.701   3.165   5.134  3.0466 -1.0050 -0.6621
28565SOL     OW88326   6.011   8.939   3.622  0.1055  0.1850  0.0978
28565SOL    HW188327   6.033   9.021   3.578 -0.2214  0.0228 -0.3810
28565SOL    HW288328   5.919   8.949   3.645 -0.3829 -0.6389 -1.3482
28566SOL     OW88329   0.940   5.697   0.343  0.6758  0.0109 -0.0773
28566SOL    HW188330   0.993   5.672   0.418 -0.0469 -1.3205  0.0349
28566SOL    HW288331   0.974   5.644   0.271 -0.5214 -0.9432  0.0229
28567SOL     OW88332   1.804   7.287   9.777 -0.3950  0.3299 -0.9555
28567SOL    HW188333   1.869   7.320   9.715 -0.2062  2.2528  0.1845
28567SOL    HW288334   1.732   7.349   9.772 -0.8703 -0.1352 -0.0974
28568SOL     OW88335   0.293   4.084   0.170  0.2520 -0.1250 -0.2341
28568SOL    HW188336   0.217   4.127   0.130  0.1037  0.2720  0.4578
28568SOL    HW288337   0.268   4.071   0.261  0.3855 -1.4963 -0.3844
28569SOL     OW88338   0.909   7.733   3.067  0.3030  0.0946  0.0223
28569SOL    HW188339   0.856   7.674   3.121 -1.5153  1.0977 -0.5737
28569SOL    HW288340   0.873   7.820   3.086  0.7226  0.6379 -1.5763
28570SOL     OW88341   1.029   0.421   4.865  0.4664 -0.6489 -0.6993
28570SOL    HW188342   1.062   0.433   4.776  1.1539  3.5604 -0.1106
28570SOL    HW288343   0.934   0.435   4.857  0.4511 -0.8153 -0.8244
28571SOL     OW88344   4.905   4.275   3.577 -0.1630  0.3490 -0.3940
28571SOL    HW188345   4.870   4.198   3.623 -1.3354  0.3690 -1.1986
28571SOL    HW288346   4.998   4.256   3.566 -0.1206 -0.2220  0.8435
28572SOL     OW88347   7.539   8.531   9.694 -0.3021 -0.0041  0.1443
28572SOL    HW188348   7.504   8.542   9.783 -1.7451  0.9460 -0.4944
28572SOL    HW288349   7.480   8.584   9.639  0.9134 -0.0985 -1.2992
28573SOL     OW88350   6.664   2.488  10.098  0.1177  0.1223  0.1658
28573SOL    HW188351   6.576   2.457  10.117  0.6277 -1.0660  0.7001
28573SOL    HW288352   6.705   2.499  10.183  0.7218 -0.0501 -0.0959
28574SOL     OW88353   6.031   0.616   8.512 -0.3172  1.1610 -0.0953
28574SOL    HW188354   5.955   0.567   8.545 -0.7393  1.9179  0.0887
28574SOL    HW288355   6.044   0.686   8.576  1.2085  0.4237  0.4308
28575SOL     OW88356   7.553   1.482   4.593  0.3251  0.3078 -0.4403
28575SOL    HW188357   7.573   1.478   4.500 -2.0280 -0.7199 -0.9713
28575SOL    HW288358   7.501   1.403   4.610  0.5287  0.5691  1.7120
28576SOL     OW88359   8.874   8.755   4.655 -0.4111  0.1797 -0.2808
28576SOL    HW188360   8.895   8.816   4.585  1.0426 -2.1533 -2.0198
28576SOL    HW288361   8.959   8.718   4.681 -1.3299 -2.1743 -0.3838
28577SOL     OW88362   4.772   5.420   1.319  0.1780 -0.1061  0.2364
28577SOL    HW188363   4.852   5.417   1.372 -0.2751 -1.3615  0.8984
28577SOL    HW288364   4.776   5.340   1.266 -1.2744 -0.9160  1.2881
28578SOL     OW88365   8.545   3.182   8.116  0.5155  0.1765 -0.3306
28578SOL    HW188366   8.458   3.214   8.092  0.1408 -0.4204  0.1912
28578SOL    HW288367   8.606   3.244   8.076 -0.1901  2.1679  1.4559
28579SOL     OW88368   1.748   8.916   7.876 -0.4376 -0.2383  0.2269
28579SOL    HW188369   1.832   8.943   7.840 -0.7621 -0.0831 -0.4220
28579SOL    HW288370   1.745   8.821   7.862 -0.3022 -0.2679  0.3971
28580SOL     OW88371   8.883   8.365   0.767 -0.6853  0.5528  0.1684
28580SOL    HW188372   8.865   8.296   0.703 -0.6261 -1.8629  2.5483
28580SOL    HW288373   8.806   8.364   0.824 -0.2683  1.8407  0.7794
28581SOL     OW88374  10.269   4.434   8.792  0.2435 -0.4126 -0.8196
28581SOL    HW188375  10.338   4.493   8.824  1.2523 -0.8518 -2.1047
28581SOL    HW288376  10.220   4.487   8.729  1.0926 -0.8668 -1.9043
28582SOL     OW88377   3.235   1.684   3.005  0.3204 -0.0864 -0.2504
28582SOL    HW188378   3.191   1.635   2.935  0.3239 -0.5401  0.0593
28582SOL    HW288379   3.316   1.715   2.966 -0.1783  0.6031 -0.7746
28583SOL     OW88380   5.455   1.619   5.208  0.0105  0.0001 -0.3521
28583SOL    HW188381   5.472   1.642   5.299 -2.3299 -0.8591  0.3878
28583SOL    HW288382   5.462   1.701   5.160  1.7937  0.3704  0.4836
28584SOL     OW88383   9.501   0.991   9.390 -0.2831 -0.5485 -0.5381
28584SOL    HW188384   9.510   1.006   9.296 -0.1889 -2.5380 -0.8876
28584SOL    HW288385   9.534   0.902   9.404 -0.2262 -0.2709  1.3943
28585SOL     OW88386   8.072   5.062   0.024 -0.1024  0.3671  0.0226
28585SOL    HW188387   8.036   5.110   0.099 -0.7282 -0.8513  0.5330
28585SOL    HW288388   8.003   4.999   0.000  1.0798 -1.0068  0.0741
28586SOL     OW88389   1.258   8.625  10.118 -0.2725 -0.2719 -0.1332
28586SOL    HW188390   1.350   8.605  10.129 -0.8279 -3.3574 -0.0362
28586SOL    HW288391   1.250   8.650  10.026  0.4951 -1.4353 -0.5430
28587SOL     OW88392  10.236   9.208   2.073 -0.0455 -0.9462 -0.0894
28587SOL    HW188393  10.260   9.194   2.165 -2.1658  0.0635  0.6714
28587SOL    HW288394  10.229   9.119   2.037 -0.0607 -1.3973  0.9673
28588SOL     OW88395   8.129   4.761   9.700  0.0516  0.1347  0.8217
28588SOL    HW188396   8.195   4.711   9.748  1.3650  0.6330 -0.3968
28588SOL    HW288397   8.055   4.701   9.692  1.5340 -1.6470 -0.4956
28589SOL     OW88398   4.855   6.702   1.694  0.4224 -0.3481  0.2291
28589SOL    HW188399   4.759   6.700   1.697  0.4343 -2.1645  3.0302
28589SOL    HW288400   4.876   6.791   1.665 -2.1041  0.6071  1.0598
28590SOL     OW88401   8.658   6.921   2.394  0.4487 -0.3583  0.0150
28590SOL    HW188402   8.614   7.005   2.381 -1.3062 -1.4898 -2.2392
28590SOL    HW288403   8.588   6.863   2.426  1.2951 -1.2664  0.2527
28591SOL     OW88404   2.925   1.430   1.604  0.2715  0.3469  0.4037
28591SOL    HW188405   2.863   1.485   1.651 -0.8409 -0.3479 -0.2074
28591SOL    HW288406   2.977   1.388   1.672 -0.8849 -0.1427  1.0142
28592SOL     OW88407   2.814   3.288   2.249 -0.0123 -0.3975 -0.1106
28592SOL    HW188408   2.774   3.266   2.164 -1.9299  0.6380  0.4468
28592SOL    HW288409   2.850   3.376   2.236 -0.4002 -0.1947  0.1603
28593SOL     OW88410   4.895   6.154   1.372  0.4778  0.5391 -0.6419
28593SOL    HW188411   4.848   6.214   1.313  0.2840  0.3416 -0.6899
28593SOL    HW288412   4.974   6.202   1.396  0.3723  0.7767 -0.7590
28594SOL     OW88413   7.409   5.226   5.792  0.1346 -0.2743  0.0013
28594SOL    HW188414   7.496   5.265   5.799 -0.3063  0.8683 -0.5869
28594SOL    HW288415   7.354   5.296   5.755 -1.2948 -0.6004  1.4036
28595SOL     OW88416   0.391   4.157   3.031  0.1083 -0.3977 -0.6642
28595SOL    HW188417   0.471   4.210   3.033 -0.7902  1.0970 -1.8676
28595SOL    HW288418   0.334   4.198   3.096  0.2143 -1.2943  0.0016
28596SOL     OW88419   7.871   9.224   1.863 -0.5546 -0.0430 -0.2794
28596SOL    HW188420   7.813   9.186   1.798  0.6323  0.7861 -1.8896
28596SOL    HW288421   7.847   9.317   1.864  0.9041  0.3813 -1.2227
28597SOL     OW88422   1.753   4.471   2.503 -0.1643  0.1872 -0.0627
28597SOL    HW188423   1.828   4.475   2.563 -0.1423  3.4155 -0.1336
28597SOL    HW288424   1.781   4.411   2.434  1.4521 -0.4086  1.0427
28598SOL     OW88425   8.938   9.644   5.050  0.2831 -0.1745 -0.5483
28598SOL    HW188426   8.950   9.703   5.125 -1.1056 -0.5250 -0.0008
28598SOL    HW288427   8.956   9.698   4.974 -1.0462  1.0378 -0.0615
28599SOL     OW88428   9.717  10.110  10.135 -0.4306  0.0398 -0.4126
28599SOL    HW188429   9.646  10.152  10.086  0.7016  3.1600  0.3874
28599SOL    HW288430   9.797  10.141  10.093  0.5140 -1.4372  0.2301
28600SOL     OW88431   6.190   6.879   1.327  0.1686  0.1051  0.2376
28600SOL    HW188432   6.161   6.807   1.383 -0.8301 -0.5038 -1.0038
28600SOL    HW288433   6.193   6.955   1.385 -0.5980 -0.5535  1.1782
28601SOL     OW88434   0.136   5.073   5.258 -0.9160  0.6925 -0.3277
28601SOL    HW188435   0.060   5.124   5.286  0.0093  2.3353 -0.7205
28601SOL    HW288436   0.211   5.119   5.294 -0.0918 -1.9013  1.6468
28602SOL     OW88437   1.634   6.811   4.636  0.6612 -0.0336  0.0720
28602SOL    HW188438   1.540   6.790   4.640  0.4522 -0.4581 -3.7253
28602SOL    HW288439   1.647   6.876   4.705 -2.5862  0.6037  0.2370
28603SOL     OW88440   7.024   2.223   4.234  0.5470  0.1415  1.1330
28603SOL    HW188441   6.961   2.174   4.287 -0.2703 -2.5918 -2.0185
28603SOL    HW288442   7.101   2.231   4.290 -0.7470 -1.1933  3.2535
28604SOL     OW88443   4.762   3.737   7.929 -0.5899  0.7747  0.1080
28604SOL    HW188444   4.740   3.646   7.947 -0.2752  0.9628  1.5948
28604SOL    HW288445   4.840   3.754   7.982 -0.0908  1.6538 -0.8675
28605SOL     OW88446   6.205   0.535   5.427 -0.2871  0.3673 -0.2834
28605SOL    HW188447   6.299   0.517   5.430 -0.3092  0.4013  1.1990
28605SOL    HW288448   6.197   0.610   5.369  0.5697  0.1785 -0.6636
28606SOL     OW88449   0.295   9.255   4.729  0.2893  0.2854  0.3043
28606SOL    HW188450   0.255   9.276   4.814 -1.2938  1.0111 -0.5651
28606SOL    HW288451   0.221   9.234   4.673  1.1949  0.9419 -1.2032
28607SOL     OW88452   6.718   4.496   2.399  0.0423 -0.0747 -0.3841
28607SOL    HW188453   6.699   4.421   2.456  0.3669 -0.2203 -0.4671
28607SOL    HW288454   6.773   4.553   2.451 -1.3394  0.7949  0.1876
28608SOL     OW88455   8.625   6.280   4.072  0.0878 -0.3764 -0.5514
28608SOL    HW188456   8.627   6.203   4.129 -2.3512 -1.4149 -1.7176
28608SOL    HW288457   8.558   6.260   4.007  1.0556  1.7659 -2.3601
28609SOL     OW88458   2.526   4.188   2.996 -0.1453  0.3940 -0.2348
28609SOL    HW188459   2.543   4.281   2.978 -1.9722  0.8324  0.0632
28609SOL    HW288460   2.492   4.187   3.086 -0.1905 -0.5622 -0.2545
28610SOL     OW88461  10.350   9.506   6.393 -0.0979  0.3077 -0.2320
28610SOL    HW188462  10.262   9.507   6.356 -0.7803  1.5430  1.2897
28610SOL    HW288463  10.401   9.565   6.337 -0.9402  1.6520  0.3758
28611SOL     OW88464   6.056   6.858   2.328  0.1622  0.1438  0.0308
28611SOL    HW188465   6.011   6.880   2.247  0.3234  0.5572  0.0545
28611SOL    HW288466   5.988   6.816   2.382 -0.3404  1.2332  0.2680
28612SOL     OW88467   2.367   5.443   4.729  0.4430  0.1449  0.3134
28612SOL    HW188468   2.322   5.455   4.812 -0.4200 -1.0291  0.0528
28612SOL    HW288469   2.328   5.363   4.692  1.7170 -0.0810 -0.6136
28613SOL     OW88470   5.760   3.523   2.108 -0.0411  0.4293  0.0983
28613SOL    HW188471   5.796   3.555   2.191 -0.1964  0.5098  0.1365
28613SOL    HW288472   5.818   3.452   2.082 -0.7264 -0.4788  0.9496
28614SOL     OW88473   0.232   5.690   7.014  0.2688  0.2069 -0.2982
28614SOL    HW188474   0.311   5.744   7.012  0.8455 -0.6372 -0.4297
28614SOL    HW288475   0.185   5.719   7.092  1.0480  0.2237  0.1646
28615SOL     OW88476   2.776   5.213   6.589  0.4662 -0.5852 -0.5753
28615SOL    HW188477   2.689   5.245   6.568  1.1250  0.8856 -1.2312
28615SOL    HW288478   2.832   5.291   6.583  1.9056 -1.5941 -0.7133
28616SOL     OW88479   1.412   4.762   9.400  0.2370 -0.4423  0.4654
28616SOL    HW188480   1.475   4.827   9.431 -0.1499 -1.5658  4.1280
28616SOL    HW288481   1.363   4.807   9.331  1.7640  2.1771  0.9549
28617SOL     OW88482  10.123   7.944   3.860 -0.5405 -0.0024  0.2229
28617SOL    HW188483  10.169   7.917   3.780 -2.4896  0.2476 -1.0544
28617SOL    HW288484  10.033   7.959   3.832 -2.0110 -2.5344  2.9567
28618SOL     OW88485   6.046   8.172   6.333  0.2566 -0.4731 -0.0932
28618SOL    HW188486   6.021   8.194   6.244 -0.9356  0.9513  0.5444
28618SOL    HW288487   6.116   8.233   6.355 -0.6670  0.3904  0.5185
28619SOL     OW88488   5.235   2.004   6.436 -0.2246  0.5953  0.3110
28619SOL    HW188489   5.308   1.950   6.467  0.9770  0.2120 -2.8515
28619SOL    HW288490   5.166   1.941   6.415 -0.2695  0.6735  0.2265
28620SOL     OW88491   6.826   6.867   0.539 -0.5657 -0.1802 -0.4977
28620SOL    HW188492   6.826   6.963   0.543  0.5812 -0.1744 -0.0974
28620SOL    HW288493   6.861   6.848   0.452  0.1824 -0.2144 -0.2022
28621SOL     OW88494  10.219   8.213   7.749 -0.2124 -0.1512 -0.4505
28621SOL    HW188495  10.167   8.237   7.672 -2.1919 -0.7505  0.6195
28621SOL    HW288496  10.172   8.253   7.823 -0.1756 -2.1344  0.7344
28622SOL     OW88497   7.948   7.170   1.035  0.0811 -0.0302 -0.4215
28622SOL    HW188498   7.876   7.182   1.097  1.0771  0.3955  0.6795
28622SOL    HW288499   7.929   7.086   0.993 -1.3013  0.2979 -0.4924
28623SOL     OW88500   8.332  10.356   6.902  0.0886 -0.0115  0.1237
28623SOL    HW188501   8.382  10.297   6.846  0.9273  1.0318 -0.2599
28623SOL    HW288502   8.246  10.363   6.860  0.4798  0.2151 -0.6496
28624SOL     OW88503   8.169   2.433   5.500 -0.3630  0.0816  0.5454
28624SOL    HW188504   8.182   2.513   5.449 -0.0680 -0.1723  0.2205
28624SOL    HW288505   8.206   2.453   5.586 -0.3286  0.3053  0.4803
28625SOL     OW88506   9.583   0.969   0.129 -0.3802 -0.0491  0.0547
28625SOL    HW188507   9.624   0.998   0.210 -0.6223 -0.4461  0.3210
28625SOL    HW288508   9.504   0.922   0.156 -0.1666 -0.6731 -0.3795
28626SOL     OW88509   4.440   2.076   6.339 -0.1090  0.1009 -0.6070
28626SOL    HW188510   4.426   1.993   6.293  1.9091 -0.2577 -0.6594
28626SOL    HW288511   4.437   2.142   6.270 -0.2726 -0.0854 -0.7810
28627SOL     OW88512   1.489   3.938   8.544  0.3804 -0.5175 -0.2357
28627SOL    HW188513   1.551   3.899   8.606  0.6615 -1.8862 -1.3222
28627SOL    HW288514   1.545   3.983   8.480  0.2551 -1.4213 -0.9983
28628SOL     OW88515   6.745   4.134   7.969  0.4041 -0.2846 -0.5337
28628SOL    HW188516   6.805   4.189   7.920  1.0294 -0.4578  0.0206
28628SOL    HW288517   6.658   4.162   7.941  0.7324 -1.0537 -2.4858
28629SOL     OW88518   7.946   7.640   1.191  0.0835  0.0599  1.2552
28629SOL    HW188519   8.040   7.638   1.175  0.0653  0.2407  1.1291
28629SOL    HW288520   7.911   7.568   1.138  0.0449  0.5382  0.6164
28630SOL     OW88521   1.559   6.491   2.673  0.0816  0.0627 -0.5742
28630SOL    HW188522   1.628   6.426   2.657  0.8651  0.4818  0.8385
28630SOL    HW288523   1.549   6.492   2.769 -0.2430  1.6685 -0.5889
28631SOL     OW88524   0.840   0.974   6.390 -0.6029  0.6790  0.1705
28631SOL    HW188525   0.752   0.992   6.425 -0.8493 -0.5785  0.2484
28631SOL    HW288526   0.877   1.060   6.372 -1.7818  1.2354  0.3265
28632SOL     OW88527   8.298   9.486   8.541  0.1935  0.3984 -0.1709
28632SOL    HW188528   8.220   9.444   8.505 -1.3955  0.1608  3.1377
28632SOL    HW288529   8.356   9.414   8.565 -0.3045  0.3272  0.8695
28633SOL     OW88530   1.519   8.638   6.883 -0.2246 -0.3666  0.2926
28633SOL    HW188531   1.475   8.558   6.855  0.9341 -1.2815  1.0186
28633SOL    HW288532   1.569   8.667   6.807 -0.2467 -0.6101  0.1867
28634SOL     OW88533   4.682   7.947   5.035  0.3010 -0.4193  0.3425
28634SOL    HW188534   4.662   7.947   4.941 -0.1366 -1.2025  0.4252
28634SOL    HW288535   4.622   7.882   5.072  1.7254 -1.4719  0.8835
28635SOL     OW88536   3.067   9.475   3.449  0.3795  0.3432 -0.0464
28635SOL    HW188537   2.979   9.506   3.425 -0.2485  0.4432  2.1338
28635SOL    HW288538   3.124   9.550   3.432 -0.3308  1.0365  0.5197
28636SOL     OW88539   2.195   3.417   7.507  0.3599 -1.0049  0.1298
28636SOL    HW188540   2.164   3.326   7.509 -0.2551 -0.8306 -1.1418
28636SOL    HW288541   2.283   3.411   7.469 -0.8455 -0.7923 -2.9074
28637SOL     OW88542  10.071   7.682   9.249  0.0858 -0.2531  0.1792
28637SOL    HW188543  10.127   7.740   9.301 -2.3507  0.7243  1.9600
28637SOL    HW288544  10.106   7.595   9.263  2.4012  0.4835 -0.5737
28638SOL     OW88545   9.551   5.271   7.534  0.4781  1.1125 -0.0439
28638SOL    HW188546   9.568   5.365   7.539  0.1213  1.2195 -0.7239
28638SOL    HW288547   9.625   5.230   7.579  0.1863  1.7518  1.0382
28639SOL     OW88548   3.309   8.242   9.214  0.0469  0.0927  0.3613
28639SOL    HW188549   3.224   8.275   9.243 -0.1944  0.6069 -0.8853
28639SOL    HW288550   3.290   8.155   9.178  0.2809 -0.3636  1.2944
28640SOL     OW88551   5.498   9.624   0.449  0.7071 -0.2500  0.1441
28640SOL    HW188552   5.446   9.559   0.497  1.7330 -0.6185  0.7871
28640SOL    HW288553   5.560   9.573   0.398 -0.7915  0.1060 -2.1756
28641SOL     OW88554   1.191   5.766   0.026  0.2296 -0.0603  0.1725
28641SOL    HW188555   1.269   5.819   0.014  0.1997  0.0644  0.5057
28641SOL    HW288556   1.159   5.749  -0.063 -0.4133  1.4650  0.0729
28642SOL     OW88557   1.608   1.454   8.805  0.3284  0.4251 -0.0244
28642SOL    HW188558   1.675   1.428   8.742 -0.6196 -4.5485  0.5823
28642SOL    HW288559   1.530   1.468   8.752  0.3217 -0.4965 -0.2860
28643SOL     OW88560   6.538  10.077   2.082  0.1910 -0.1385  0.7678
28643SOL    HW188561   6.609  10.100   2.143  0.0641 -2.2424  1.7917
28643SOL    HW288562   6.491  10.159   2.070  1.2963  0.7504  2.0869
28644SOL     OW88563   7.267   6.780   7.324 -0.0303 -0.0618  0.6252
28644SOL    HW188564   7.206   6.713   7.291 -1.0707  0.8759  0.5771
28644SOL    HW288565   7.334   6.787   7.256 -0.3216 -0.5210  0.2812
28645SOL     OW88566   4.209   9.775   0.189  0.5831  0.5847 -0.0444
28645SOL    HW188567   4.252   9.839   0.131 -2.0958  0.8348 -1.9566
28645SOL    HW288568   4.115   9.789   0.175 -0.1762 -1.0441  2.6074
28646SOL     OW88569   4.488   1.969   3.054  0.1576 -0.6794  0.4046
28646SOL    HW188570   4.533   2.012   2.981  1.4136 -1.6792  0.5440
28646SOL    HW288571   4.496   1.876   3.036 -0.6176 -0.9121  1.1906
28647SOL     OW88572   8.249   9.396   1.997 -0.3540  0.7945 -0.6793
28647SOL    HW188573   8.293   9.314   1.976 -0.5719  0.5916 -0.3648
28647SOL    HW288574   8.208   9.423   1.915 -3.2651 -1.2593 -0.0953
28648SOL     OW88575   3.188  10.062   1.227  0.2919 -0.0675  0.0480
28648SOL    HW188576   3.283  10.068   1.217  0.3323 -1.2843 -0.5681
28648SOL    HW288577   3.160  10.151   1.246  1.3400  0.7456 -1.8639
28649SOL     OW88578   4.443   3.460   2.815 -0.5314  0.0739 -0.0386
28649SOL    HW188579   4.503   3.396   2.777 -0.3544  0.2370 -0.0310
28649SOL    HW288580   4.495   3.508   2.879 -0.9653 -0.5606  0.8096
28650SOL     OW88581   8.462   8.612   8.446 -0.2572  0.6409  0.4021
28650SOL    HW188582   8.497   8.527   8.421 -1.7854  0.1768 -0.2421
28650SOL    HW288583   8.523   8.644   8.513  1.9280  0.2989 -1.2919
28651SOL     OW88584   3.959   9.717   3.659 -1.0808  0.0247  0.0628
28651SOL    HW188585   3.989   9.802   3.692 -1.3100 -0.3569  1.2955
28651SOL    HW288586   4.023   9.654   3.691 -1.7385 -0.4565  0.4770
28652SOL     OW88587   0.071   6.731   0.065 -0.8166 -0.7604 -1.0229
28652SOL    HW188588   0.062   6.636   0.072 -3.3653 -0.5642 -0.4268
28652SOL    HW288589   0.053   6.750  -0.027 -2.8585 -0.7304 -0.6691
28653SOL     OW88590   4.674   5.018   2.081 -0.5813 -0.5548 -0.5076
28653SOL    HW188591   4.599   5.000   2.137  0.7536 -0.7964  1.2944
28653SOL    HW288592   4.729   5.077   2.133  0.2088  0.1234 -2.0287
28654SOL     OW88593   8.830  10.042   2.715 -0.6722 -0.7003 -0.1804
28654SOL    HW188594   8.923  10.032   2.698 -0.9311 -2.0396 -1.0445
28654SOL    HW288595   8.820  10.020   2.807 -0.0311  0.3230  0.1411
28655SOL     OW88596   1.599   5.384   0.230 -0.6418  0.7684  0.3237
28655SOL    HW188597   1.611   5.290   0.239 -0.5455  0.6425 -0.9847
28655SOL    HW288598   1.599   5.417   0.320 -0.2692 -0.4238  0.7749
28656SOL     OW88599   4.319   4.544   2.912  0.1205 -0.4051  0.0318
28656SOL    HW188600   4.300   4.600   2.836  0.6200 -0.1359  0.0983
28656SOL    HW288601   4.371   4.472   2.876 -0.1800 -0.6143  0.0141
28657SOL     OW88602   1.759   3.604   5.425  0.3235 -0.4100  0.2141
28657SOL    HW188603   1.693   3.551   5.470  0.5019 -1.0318 -0.2579
28657SOL    HW288604   1.711   3.646   5.353  0.5166 -1.1595 -0.3601
28658SOL     OW88605   3.707   8.886   9.580  0.3695  0.5582 -0.4162
28658SOL    HW188606   3.630   8.940   9.563  0.4751  0.4964 -1.1536
28658SOL    HW288607   3.673   8.813   9.632 -0.0561  0.5691 -0.6678
28659SOL     OW88608   2.397   3.275   2.501 -0.0401  0.2020 -0.0008
28659SOL    HW188609   2.428   3.227   2.424  0.2950  0.8685 -0.2934
28659SOL    HW288610   2.329   3.219   2.538  1.6268 -1.4175  0.7703
28660SOL     OW88611   0.158   0.704   4.277 -0.3357 -0.2819  0.0599
28660SOL    HW188612   0.201   0.646   4.213  1.8881  1.4067 -0.1094
28660SOL    HW288613   0.108   0.765   4.223 -0.8425 -0.6352  0.1209
28661SOL     OW88614   4.006   4.653   3.179  0.2453 -0.0327  0.2941
28661SOL    HW188615   4.007   4.564   3.145 -3.1455 -0.4876  1.0274
28661SOL    HW288616   4.017   4.709   3.102  1.6472 -1.0204 -0.2670
28662SOL     OW88617   0.105   6.709   7.998  0.3400  0.0212  0.1072
28662SOL    HW188618   0.167   6.735   8.066  0.7226 -1.0252  0.1779
28662SOL    HW288619   0.039   6.658   8.044  1.0701 -1.4454 -0.4003
28663SOL     OW88620   3.328   4.041   0.786 -0.4478 -0.4981  0.0968
28663SOL    HW188621   3.371   4.072   0.705 -0.6863  0.2891  0.2558
28663SOL    HW288622   3.277   3.966   0.758  1.6904 -2.0236  0.0660
28664SOL     OW88623   6.698   1.916   4.982  0.1494 -0.7271 -0.0033
28664SOL    HW188624   6.645   1.837   4.993  0.0080 -1.1093 -2.6708
28664SOL    HW288625   6.788   1.883   4.975  0.1829 -0.5817 -0.2842
28665SOL     OW88626   0.766   9.910   7.824  0.3215  0.0003 -0.2727
28665SOL    HW188627   0.799   9.999   7.832  1.1897 -0.2606 -0.8648
28665SOL    HW288628   0.683   9.920   7.777 -1.2589  0.7956  2.4015
28666SOL     OW88629   4.784  10.336   0.054  0.5999 -0.0844 -0.2766
28666SOL    HW188630   4.703  10.343   0.104  1.8666  2.1324  1.6309
28666SOL    HW288631   4.755  10.333  -0.037 -1.7012 -2.4677  0.3807
28667SOL     OW88632   6.012   8.899   2.432 -0.6310  0.5753  0.1909
28667SOL    HW188633   5.978   8.823   2.385 -1.4490  1.9636 -1.5795
28667SOL    HW288634   6.076   8.862   2.493 -0.2296 -1.4277 -1.3168
28668SOL     OW88635   2.674   8.900   6.288 -0.6797 -0.0376  0.0732
28668SOL    HW188636   2.653   8.972   6.230  1.0457 -1.3673 -2.4099
28668SOL    HW288637   2.751   8.930   6.336 -1.1822  0.4995  0.5537
28669SOL     OW88638   2.175   2.713   5.204  0.2935  0.0926  0.0672
28669SOL    HW188639   2.240   2.782   5.196 -2.9858  3.7358  1.5823
28669SOL    HW288640   2.167   2.696   5.298  0.5867 -2.0155 -0.2305
28670SOL     OW88641   1.053   7.742   7.103  0.0840 -0.3334  0.2025
28670SOL    HW188642   1.035   7.669   7.044  0.7768 -0.5849  0.3027
28670SOL    HW288643   1.037   7.707   7.191 -0.9406  0.0387  0.1845
28671SOL     OW88644   5.595   6.936   4.932  0.9383 -0.5511  0.6794
28671SOL    HW188645   5.534   6.898   4.994  0.6642  0.5947  1.1450
28671SOL    HW288646   5.617   7.022   4.969 -0.0776  0.6502 -1.2998
28672SOL     OW88647   1.215   5.248   3.075  0.4491 -0.0839 -0.0907
28672SOL    HW188648   1.297   5.297   3.077 -0.0219  0.7122  0.0354
28672SOL    HW288649   1.231   5.177   3.012  0.8811  0.6989 -0.8734
28673SOL     OW88650   8.300   2.641   0.435  0.5340  0.5147 -0.4339
28673SOL    HW188651   8.284   2.547   0.426  0.9474  0.3171  0.8442
28673SOL    HW288652   8.382   2.656   0.389 -0.5655  0.6437 -2.4837
28674SOL     OW88653   8.647   7.276   9.418 -0.3229  0.9467  0.2084
28674SOL    HW188654   8.685   7.191   9.441  0.2495  1.5253  1.5194
28674SOL    HW288655   8.590   7.297   9.492 -1.9915  0.8424 -0.9904
28675SOL     OW88656   0.580   0.160   2.928  0.2366 -0.2799  0.1232
28675SOL    HW188657   0.664   0.155   2.973  0.0363 -0.7924  0.4523
28675SOL    HW288658   0.602   0.149   2.835  0.8657  2.6632 -0.1715
28676SOL     OW88659   6.874   0.769   3.523  0.0621  0.0163  0.0646
28676SOL    HW188660   6.879   0.766   3.619 -2.0354 -1.2004  0.1860
28676SOL    HW288661   6.906   0.857   3.501  0.8385  0.2372  1.8290
28677SOL     OW88662   8.498   4.128   3.491  0.1604  0.4096 -0.2975
28677SOL    HW188663   8.532   4.215   3.470  0.0233  0.9228  1.4543
28677SOL    HW288664   8.565   4.089   3.547 -0.7111  0.1909  0.6052
28678SOL     OW88665   9.059   6.624   7.588 -0.1485 -0.4151 -0.0159
28678SOL    HW188666   9.147   6.597   7.613 -0.5065 -0.6183  1.0902
28678SOL    HW288667   9.003   6.553   7.618 -0.7395 -0.1000 -0.3431
28679SOL     OW88668   0.267   1.820   9.196 -0.1005 -0.2425 -0.5348
28679SOL    HW188669   0.205   1.869   9.141  0.0774 -0.4200 -0.9007
28679SOL    HW288670   0.262   1.730   9.163 -1.0935 -0.6834  0.7192
28680SOL     OW88671   1.211   3.350   9.406  0.4220 -0.0633  0.0318
28680SOL    HW188672   1.139   3.412   9.419  1.5381  1.0551  1.0984
28680SOL    HW288673   1.246   3.373   9.320 -0.7512 -0.9178 -0.7027
28681SOL     OW88674   5.221   3.381   6.637  0.8417 -0.3378  0.6985
28681SOL    HW188675   5.226   3.428   6.720  0.4171  1.6613 -0.3479
28681SOL    HW288676   5.283   3.309   6.647  1.3686  0.3062  2.4740
28682SOL     OW88677   4.377   6.288   3.291 -0.0387 -0.5983  0.1479
28682SOL    HW188678   4.424   6.319   3.213 -2.0288 -1.3879 -1.4369
28682SOL    HW288679   4.397   6.354   3.358 -0.1600  1.4165 -1.6911
28683SOL     OW88680   9.186   4.753   5.714  0.3767  0.8976  0.2628
28683SOL    HW188681   9.107   4.724   5.670 -0.1060  1.3281  0.8266
28683SOL    HW288682   9.207   4.837   5.673  0.6113  0.7302  0.0354
28684SOL     OW88683   5.585   4.634   2.994  0.1861 -0.1750 -0.3403
28684SOL    HW188684   5.561   4.711   2.942  0.4188 -1.5129 -2.5633
28684SOL    HW288685   5.681   4.632   2.989  0.2929  0.2779  1.1206
28685SOL     OW88686   4.841   8.836   0.185 -0.2060  0.4650 -0.2055
28685SOL    HW188687   4.798   8.916   0.215  0.1932 -0.0133  1.7673
28685SOL    HW288688   4.769   8.773   0.174 -0.3478  0.5991 -0.0537
28686SOL     OW88689   4.095   0.256   7.515 -0.1963  0.3683  0.1079
28686SOL    HW188690   4.116   0.311   7.440 -0.1796  1.7970  1.1123
28686SOL    HW288691   4.177   0.210   7.535 -0.7445 -1.6951 -1.9999
28687SOL     OW88692   0.142   2.309   4.600  0.1508  0.1394  0.1365
28687SOL    HW188693   0.124   2.394   4.639 -1.6735  0.3286 -1.0158
28687SOL    HW288694   0.162   2.328   4.508  2.8537 -0.4394  0.5109
28688SOL     OW88695   2.363   8.617   3.144 -0.2975  0.6125 -0.4628
28688SOL    HW188696   2.385   8.606   3.052 -0.2348 -0.5770 -0.3202
28688SOL    HW288697   2.294   8.552   3.161  0.6081 -0.1165  0.6263
28689SOL     OW88698   9.198   2.642   2.127  0.0902 -0.3212 -0.2758
28689SOL    HW188699   9.172   2.639   2.035  1.1939  0.4486 -0.6366
28689SOL    HW288700   9.225   2.552   2.148  1.7992 -0.0919 -1.3236
28690SOL     OW88701   7.301   1.973   1.880  0.2069 -0.3845 -0.4289
28690SOL    HW188702   7.353   1.893   1.893 -0.5171 -0.8382 -0.2484
28690SOL    HW288703   7.218   1.955   1.924  0.0350  0.4793 -0.3823
28691SOL     OW88704   8.953   5.506   7.159 -0.6661 -0.3965 -0.6940
28691SOL    HW188705   8.899   5.514   7.237  2.2479  0.3047  1.4127
28691SOL    HW288706   8.927   5.579   7.103 -2.2601 -0.4499 -0.0671
28692SOL     OW88707   1.878   9.285   8.133 -0.4408  0.1466  0.7963
28692SOL    HW188708   1.874   9.317   8.043 -0.4691  0.2853  0.8469
28692SOL    HW288709   1.823   9.207   8.132  2.0112 -1.6860 -0.0488
28693SOL     OW88710   2.805   4.831   5.032  0.1451 -0.4692  0.1002
28693SOL    HW188711   2.882   4.800   4.984  0.4754 -1.2746  1.1228
28693SOL    HW288712   2.812   4.790   5.118 -1.3854 -0.4967  0.2401
28694SOL     OW88713   3.764   8.103   3.674  0.7976  0.1164 -0.1226
28694SOL    HW188714   3.671   8.085   3.682  0.6104  1.5083  1.5188
28694SOL    HW288715   3.777   8.124   3.581 -0.5595  0.1374 -0.3187
28695SOL     OW88716   9.551   4.284   5.767  0.3543 -0.4890 -0.2712
28695SOL    HW188717   9.487   4.231   5.719  0.6642 -0.8437 -0.2898
28695SOL    HW288718   9.507   4.303   5.851 -0.8623  1.5050 -1.2736
28696SOL     OW88719   3.015   1.844   9.120  1.0685 -0.3236 -0.4898
28696SOL    HW188720   2.924   1.835   9.092  1.3078 -4.8218 -0.6231
28696SOL    HW288721   3.064   1.853   9.038  0.9154 -1.7963 -0.7863
28697SOL     OW88722  10.299   1.631   1.975 -0.7099 -0.3415 -0.0185
28697SOL    HW188723  10.245   1.657   1.901 -0.7904 -0.4765 -0.0072
28697SOL    HW288724  10.359   1.566   1.939 -0.8881 -0.5610  0.0831
28698SOL     OW88725   1.239   7.966   2.363  0.4098  0.3099 -0.1756
28698SOL    HW188726   1.295   7.892   2.389 -0.6290  0.4916  2.8872
28698SOL    HW288727   1.299   8.040   2.355  1.1299 -0.3343 -1.0541
28699SOL     OW88728   3.026   7.643   7.846 -0.2342 -0.4940  0.7176
28699SOL    HW188729   2.950   7.663   7.900 -1.9517  1.0861 -2.0709
28699SOL    HW288730   3.086   7.716   7.859 -1.1717  0.4994 -0.3130
28700SOL     OW88731   3.643   3.778   3.781  0.3005 -0.5199  0.0813
28700SOL    HW188732   3.633   3.852   3.841 -1.2612 -1.2596  0.7857
28700SOL    HW288733   3.719   3.801   3.728 -0.0710  1.5303  0.3501
28701SOL     OW88734   3.880   8.819   8.870  0.1261  0.0200 -0.2418
28701SOL    HW188735   3.803   8.767   8.846  0.5059 -0.4165 -0.5373
28701SOL    HW288736   3.852   8.870   8.945 -0.7496  0.5740 -0.9276
28702SOL     OW88737   6.103   3.700   9.734 -0.1181  0.0009 -0.3653
28702SOL    HW188738   6.031   3.713   9.796 -0.7995 -1.6781 -0.7643
28702SOL    HW288739   6.171   3.656   9.786 -0.7416 -1.5302 -0.7908
28703SOL     OW88740   5.134   6.117   0.569 -0.7151  0.2269  0.1389
28703SOL    HW188741   5.119   6.031   0.530 -0.6227  0.0483  0.5001
28703SOL    HW288742   5.046   6.149   0.589 -0.9101  1.0751 -1.8089
28704SOL     OW88743   8.705   4.333   2.560  0.8940 -0.6225  0.0045
28704SOL    HW188744   8.615   4.311   2.536  0.6753 -0.6310  0.8120
28704SOL    HW288745   8.697   4.409   2.617  1.3479 -1.0306  0.6297
28705SOL     OW88746   3.382   8.531   4.583  0.0728  0.3192 -0.8028
28705SOL    HW188747   3.409   8.461   4.643 -0.4575  0.2250 -0.6699
28705SOL    HW288748   3.385   8.489   4.496 -2.2769 -0.5208 -0.5326
28706SOL     OW88749   1.768   8.125   4.435  0.3525 -0.5471 -0.1410
28706SOL    HW188750   1.864   8.129   4.437  0.5392 -3.2328 -0.1212
28706SOL    HW288751   1.747   8.083   4.351 -0.9071  1.0482 -0.6756
28707SOL     OW88752   4.734   9.822   1.169 -0.0435 -0.5300  0.1704
28707SOL    HW188753   4.714   9.782   1.084 -1.4395  1.2154 -0.3821
28707SOL    HW288754   4.830   9.828   1.170  0.0162 -0.9456 -1.0873
28708SOL     OW88755   4.678   0.576   9.723  0.0718 -0.4219  0.3431
28708SOL    HW188756   4.666   0.636   9.797  0.6331 -0.7454  0.6968
28708SOL    HW288757   4.729   0.626   9.659  2.8977 -1.3714  1.7307
28709SOL     OW88758   2.982   2.340   5.321  0.6216  0.1074  0.0754
28709SOL    HW188759   3.065   2.293   5.331 -0.1137 -1.5854 -1.2611
28709SOL    HW288760   2.915   2.272   5.323 -0.8757  1.5141  2.0304
28710SOL     OW88761   5.400   9.117   2.511 -0.1173  0.0983  0.2405
28710SOL    HW188762   5.374   9.147   2.423  1.9150 -0.5434 -0.6293
28710SOL    HW288763   5.495   9.118   2.509 -0.0276 -1.1422  2.0446
28711SOL     OW88764   6.772   0.356   7.875  0.2046 -0.0630  0.3400
28711SOL    HW188765   6.677   0.359   7.863  0.1605 -1.3628  0.2200
28711SOL    HW288766   6.802   0.444   7.854 -1.0820  0.6390  1.3282
28712SOL     OW88767   4.301   6.461   4.408  0.5645 -0.4017 -0.4248
28712SOL    HW188768   4.252   6.542   4.423  1.3577  0.0779 -0.3424
28712SOL    HW288769   4.327   6.432   4.496 -0.3278 -1.1499 -0.3924
28713SOL     OW88770   9.504   9.353   7.811 -0.2811  0.4388 -0.0452
28713SOL    HW188771   9.457   9.430   7.778 -1.6582 -0.7725 -1.0524
28713SOL    HW288772   9.544   9.314   7.733  0.4347  0.1554  0.4575
28714SOL     OW88773   8.147   2.920  10.343 -0.0695  0.1471  0.1842
28714SOL    HW188774   8.209   2.873  10.287  1.1859  0.9473  0.8406
28714SOL    HW288775   8.102   2.851  10.391  2.0085 -0.4361  1.4283
28715SOL     OW88776   6.449   7.138   7.503 -0.2767  0.0487  0.3272
28715SOL    HW188777   6.402   7.055   7.502 -1.2538  0.4758  2.8600
28715SOL    HW288778   6.381   7.205   7.496  0.1949  0.6501  1.2079
28716SOL     OW88779   4.472   2.826   8.212 -0.0704 -0.0483  0.3000
28716SOL    HW188780   4.497   2.736   8.188  0.4581  0.2551 -0.3319
28716SOL    HW288781   4.513   2.840   8.297  0.1871 -0.2739  0.2166
28717SOL     OW88782   6.505   5.381   5.658  0.2336 -0.3185  0.2175
28717SOL    HW188783   6.584   5.334   5.633  1.0270  1.1088 -0.0751
28717SOL    HW288784   6.468   5.329   5.729  3.0405  0.4070  2.4210
28718SOL     OW88785   4.093   1.674   1.400  0.3139 -0.1176 -0.0387
28718SOL    HW188786   4.032   1.630   1.342  0.4009  1.2408 -1.2002
28718SOL    HW288787   4.136   1.740   1.346  1.0772  0.5751  1.3337
28719SOL     OW88788   6.757   3.230   1.113 -0.2625  0.2324  0.3510
28719SOL    HW188789   6.820   3.285   1.160 -0.1530 -0.6884  1.3162
28719SOL    HW288790   6.808   3.157   1.079 -1.0407 -1.7978  3.1238
28720SOL     OW88791   9.730   1.966   3.005 -0.0225  0.0573  0.0479
28720SOL    HW188792   9.684   1.982   2.923  1.2354  0.6210 -0.5849
28720SOL    HW288793   9.800   2.032   3.006 -0.5002  0.6081  1.9728
28721SOL     OW88794   4.010   8.596   5.748  0.6540  0.2474  0.3895
28721SOL    HW188795   4.038   8.684   5.724 -0.7723  0.8633  0.8523
28721SOL    HW288796   4.012   8.596   5.844 -0.0931  0.0483  0.4132
28722SOL     OW88797   5.695   0.444   2.107 -0.0198 -0.2166  0.5387
28722SOL    HW188798   5.657   0.358   2.089 -1.0754  0.1329  1.0020
28722SOL    HW288799   5.767   0.452   2.045 -1.6086 -0.3225 -1.4041
28723SOL     OW88800   3.535   7.538   4.088  0.0028  0.1280  0.1771
28723SOL    HW188801   3.543   7.452   4.045  0.3070 -0.1179  0.7141
28723SOL    HW288802   3.487   7.592   4.025 -1.4295 -0.8373  0.3889
28724SOL     OW88803   3.838   5.090   1.589  0.3826  0.1138  0.2434
28724SOL    HW188804   3.876   5.028   1.526  2.0714  0.9626  0.3967
28724SOL    HW288805   3.813   5.035   1.664  1.7515 -0.4267  0.3330
28725SOL     OW88806   0.363   3.277   0.646  0.1092  1.1241 -0.2636
28725SOL    HW188807   0.389   3.266   0.737 -0.2180 -0.2612 -0.3163
28725SOL    HW288808   0.313   3.358   0.645  1.5109  2.0304  0.4625
28726SOL     OW88809  10.351   7.564  10.296 -0.3738 -0.1936 -0.2028
28726SOL    HW188810  10.346   7.631  10.364  2.6579  0.4517 -0.5012
28726SOL    HW288811  10.322   7.484  10.339  1.0868  0.2810  1.7500
28727SOL     OW88812   6.696   0.406   5.714  0.0650 -0.5897  0.1280
28727SOL    HW188813   6.628   0.347   5.744 -1.4231  1.1233  0.2743
28727SOL    HW288814   6.665   0.494   5.738  2.0412  0.2973 -0.3223
28728SOL     OW88815   8.199   4.506   0.090 -0.1776 -0.6817  0.3191
28728SOL    HW188816   8.268   4.501   0.156  0.4016 -1.2493 -0.3139
28728SOL    HW288817   8.244   4.535   0.010 -0.7008 -0.8533 -0.0463
28729SOL     OW88818  10.303   2.791   3.296 -0.5960  0.6568  0.6922
28729SOL    HW188819  10.384   2.742   3.290 -0.9434  0.2007 -0.7604
28729SOL    HW288820  10.319   2.870   3.244 -2.1413 -1.0695 -2.7476
28730SOL     OW88821   3.109   9.972   7.642 -0.1479  0.6259 -0.2318
28730SOL    HW188822   3.169  10.022   7.585 -0.3964  0.9745 -0.1917
28730SOL    HW288823   3.067   9.909   7.583 -0.4696  1.0447 -0.4595
28731SOL     OW88824   5.452   5.004   3.877 -0.5895  0.4106 -0.5468
28731SOL    HW188825   5.420   4.930   3.929  2.2559 -1.4979 -1.2407
28731SOL    HW288826   5.453   4.970   3.787 -0.1572  1.6522 -1.0283
28732SOL     OW88827   8.080   7.548   8.039  0.8389 -0.3468  0.2196
28732SOL    HW188828   8.079   7.556   8.135 -0.1201  1.1388  0.1192
28732SOL    HW288829   8.044   7.631   8.008  1.9534 -0.4474 -1.4659
28733SOL     OW88830   9.009   0.685   8.204 -0.3474  0.7854  0.3789
28733SOL    HW188831   8.960   0.763   8.180  1.9631  2.1598 -0.1591
28733SOL    HW288832   9.050   0.655   8.123 -0.5125 -0.4923  0.7409
28734SOL     OW88833   3.382   5.181   5.461 -0.0542 -0.1607  0.5029
28734SOL    HW188834   3.334   5.113   5.508 -1.9003  0.0571 -0.9204
28734SOL    HW288835   3.314   5.241   5.431  1.4048  1.6463  0.6266
28735SOL     OW88836   9.782   3.984   9.485  0.2300  0.3695  0.5002
28735SOL    HW188837   9.801   4.074   9.513  1.1454  0.6053 -0.8135
28735SOL    HW288838   9.850   3.931   9.527  1.0501  0.6043 -0.4906
28736SOL     OW88839   6.147   4.943   2.002 -0.4245 -0.3148 -0.1396
28736SOL    HW188840   6.113   4.982   2.083  0.5414  1.0631 -0.3546
28736SOL    HW288841   6.084   4.968   1.935  0.2005  0.9482 -0.2794
28737SOL     OW88842   2.155   3.865   2.333 -0.7623 -0.0941 -0.4201
28737SOL    HW188843   2.194   3.779   2.347 -0.0745  0.0656 -1.2888
28737SOL    HW288844   2.217   3.927   2.371 -0.2482  0.1438 -1.5931
28738SOL     OW88845   9.736   0.048   3.318  0.4777 -0.0274 -0.7142
28738SOL    HW188846   9.740   0.002   3.234  0.1380  1.3535 -1.5184
28738SOL    HW288847   9.813   0.105   3.317  0.1258  0.4604 -0.3702
28739SOL     OW88848   5.312   0.468   2.969 -0.6570  0.2171  0.0840
28739SOL    HW188849   5.285   0.522   2.894  2.6231  1.2853 -0.4927
28739SOL    HW288850   5.366   0.399   2.930  1.0332  0.7467  1.3914
28740SOL     OW88851   2.190   5.807   3.525  0.8495 -0.2086  0.3145
28740SOL    HW188852   2.265   5.807   3.584  0.6783  0.2864  0.5371
28740SOL    HW288853   2.117   5.841   3.578  0.5171 -0.4812  0.0403
28741SOL     OW88854   6.537   3.402   6.701 -0.1720 -0.2425 -0.7239
28741SOL    HW188855   6.624   3.377   6.734 -0.4136 -0.4539 -0.2373
28741SOL    HW288856   6.538   3.497   6.700 -0.6073 -0.1691  1.1741
28742SOL     OW88857   3.877   8.452   7.690 -0.4579 -0.2726 -0.0654
28742SOL    HW188858   3.930   8.526   7.660 -1.3662 -0.1614 -1.4852
28742SOL    HW288859   3.796   8.492   7.723 -1.5474 -0.6564 -2.1357
28743SOL     OW88860   0.607   2.933   8.330 -0.7004  0.6694  0.2295
28743SOL    HW188861   0.687   2.971   8.293 -1.6186  1.3899 -1.0430
28743SOL    HW288862   0.578   2.869   8.265 -0.5041 -0.5072  1.2576
28744SOL     OW88863   8.790   4.753   8.310  0.2502 -0.4872  0.7952
28744SOL    HW188864   8.814   4.717   8.224 -0.1783  1.2570 -0.1108
28744SOL    HW288865   8.865   4.735   8.366 -0.2519 -3.5059  0.7001
28745SOL     OW88866   3.501   5.186   0.024 -0.6021 -0.5060 -0.4816
28745SOL    HW188867   3.558   5.262   0.037  2.0403 -2.5307  0.8032
28745SOL    HW288868   3.527   5.126   0.094 -2.5302 -2.6233 -1.4947
28746SOL     OW88869   1.594   0.859   8.131 -0.0110  0.0546  0.0355
28746SOL    HW188870   1.686   0.887   8.133  0.3116 -0.8454  3.1936
28746SOL    HW288871   1.598   0.764   8.143 -1.3491  0.2863  2.9590
28747SOL     OW88872   8.317   1.960   9.246 -0.6701 -0.1225  0.0422
28747SOL    HW188873   8.354   1.878   9.280 -0.0368 -0.0685 -0.4918
28747SOL    HW288874   8.289   2.007   9.324 -0.2077 -0.4598  0.4226
28748SOL     OW88875   8.719   1.517  10.328  0.2896 -0.4969 -0.1357
28748SOL    HW188876   8.654   1.535  10.261 -0.3763  0.4129  0.7184
28748SOL    HW288877   8.784   1.461  10.285 -0.9648 -1.3074 -1.0497
28749SOL     OW88878   8.678   4.640   2.746  0.0210  0.7603 -0.2546
28749SOL    HW188879   8.671   4.677   2.658 -1.2243  0.2739 -0.3809
28749SOL    HW288880   8.651   4.711   2.805  1.1746  1.1935 -0.2145
28750SOL     OW88881   1.937   1.888   3.808 -0.3406 -0.4100 -0.1589
28750SOL    HW188882   1.874   1.892   3.880 -0.2793 -1.9250  0.0233
28750SOL    HW288883   1.974   1.976   3.803 -0.5570 -0.1936  1.4758
28751SOL     OW88884   0.651   2.603   6.563 -0.3928 -0.0532  0.2880
28751SOL    HW188885   0.596   2.661   6.615  1.2141  1.8270  0.0320
28751SOL    HW288886   0.622   2.617   6.472 -0.7873 -0.5755  0.3291
28752SOL     OW88887   4.988   6.394   2.000  0.0899  0.4504 -0.4988
28752SOL    HW188888   5.002   6.481   1.963  0.1654  0.1985 -1.0608
28752SOL    HW288889   4.896   6.376   1.984  0.3141  0.0005 -1.2973
28753SOL     OW88890   4.045   3.170   3.384 -0.2027  0.1404  0.3504
28753SOL    HW188891   4.016   3.079   3.388 -1.1583  0.4234  0.0640
28753SOL    HW288892   4.072   3.182   3.292  1.7958 -0.3915  0.8170
28754SOL     OW88893   7.606   3.214   7.156  0.5057 -0.0994 -0.0135
28754SOL    HW188894   7.536   3.172   7.207 -0.0784  1.2863  0.3862
28754SOL    HW288895   7.687   3.189   7.201  0.2563 -1.3756 -0.2292
28755SOL     OW88896   7.147   6.130   3.263 -0.2585 -0.0017 -0.8194
28755SOL    HW188897   7.054   6.108   3.262  0.1487 -1.9510 -0.0526
28755SOL    HW288898   7.155   6.197   3.330 -0.9529 -0.6865 -0.0252
28756SOL     OW88899   2.854   8.133   9.237 -0.3371 -0.0560  0.0310
28756SOL    HW188900   2.768   8.096   9.219 -1.3905  2.5529 -0.8550
28756SOL    HW288901   2.862   8.130   9.332 -0.6167 -1.8522  0.0360
28757SOL     OW88902   9.052   4.417   5.349  0.1645  0.6714  0.3919
28757SOL    HW188903   8.960   4.416   5.322  0.0390  0.8494  0.8088
28757SOL    HW288904   9.095   4.354   5.291 -0.4586 -0.3595  1.0135
28758SOL     OW88905   3.852   8.666  10.131 -0.6455  0.1211  0.4455
28758SOL    HW188906   3.862   8.604  10.203  0.5026 -0.4687 -0.1812
28758SOL    HW288907   3.765   8.650  10.096 -1.0897  0.2018  1.4924
28759SOL     OW88908   9.189   5.499   3.849 -0.2616  0.6331 -0.0424
28759SOL    HW188909   9.234   5.555   3.786  1.1658 -0.7635 -0.3429
28759SOL    HW288910   9.102   5.485   3.811 -0.5090  2.2984 -0.1397
28760SOL     OW88911   6.098   0.148  10.081  0.9012 -0.0774 -0.4606
28760SOL    HW188912   6.018   0.097  10.065  0.1511  1.4157 -1.7505
28760SOL    HW288913   6.100   0.212  10.010  2.4342  0.9362  0.4422
28761SOL     OW88914   5.534   0.986   8.883  0.4269 -0.0027 -0.0187
28761SOL    HW188915   5.608   0.984   8.943  0.7547  0.2173 -0.4070
28761SOL    HW288916   5.458   0.968   8.937  0.9747 -2.5107  0.0476
28762SOL     OW88917   8.083   0.111   7.858 -0.4161  0.1613  0.3250
28762SOL    HW188918   8.091   0.117   7.954  0.2535 -0.0279  0.2835
28762SOL    HW288919   8.146   0.044   7.833  0.8785  1.6214 -0.4481
28763SOL     OW88920   1.427   2.596   8.122  0.2901  0.3020 -0.2114
28763SOL    HW188921   1.414   2.596   8.027 -1.1578  1.4529 -0.0526
28763SOL    HW288922   1.435   2.689   8.144 -3.0639  0.3852  1.2032
28764SOL     OW88923   6.540   5.400   4.418  0.3440  0.0805 -0.0864
28764SOL    HW188924   6.615   5.455   4.395 -0.3704  1.4248  0.6696
28764SOL    HW288925   6.579   5.315   4.441  1.4009 -0.0351 -2.0769
28765SOL     OW88926   1.632   0.307   2.989 -0.2543  0.4146  0.1446
28765SOL    HW188927   1.698   0.353   3.042  0.9994  0.9477 -1.7449
28765SOL    HW288928   1.663   0.216   2.986  0.3076  0.6213 -0.5698
28766SOL     OW88929   1.749   6.317   5.959  0.4192 -0.2109  0.5113
28766SOL    HW188930   1.679   6.267   6.000 -2.0667  0.7044 -2.2186
28766SOL    HW288931   1.723   6.408   5.969  1.8368  0.2297  0.4058
28767SOL     OW88932  10.208   3.473   6.857 -0.0629 -0.8731  0.1852
28767SOL    HW188933  10.137   3.535   6.836  0.5721  0.8954  2.7775
28767SOL    HW288934  10.164   3.401   6.901 -0.2681  0.8065  2.9548
28768SOL     OW88935   7.592   1.281   3.729  0.7005  0.3593 -0.0389
28768SOL    HW188936   7.644   1.328   3.794 -1.9903  1.0989  1.7387
28768SOL    HW288937   7.546   1.349   3.681  0.1866 -0.3144 -0.5247
28769SOL     OW88938   8.959   3.849   6.853  0.0819  0.7501  0.1264
28769SOL    HW188939   9.041   3.808   6.880  0.6565  1.2217 -0.8605
28769SOL    HW288940   8.916   3.873   6.935 -0.3070 -1.8270  0.7674
28770SOL     OW88941   7.481   5.628   4.303  0.5927  0.0185  0.1842
28770SOL    HW188942   7.446   5.672   4.381  0.4897  1.4198 -0.6097
28770SOL    HW288943   7.514   5.545   4.336  0.2733  0.4337  1.6761
28771SOL     OW88944   4.932   4.182   1.659 -0.1361 -0.6157 -0.0822
28771SOL    HW188945   4.988   4.241   1.608  0.5603 -0.2520  1.0689
28771SOL    HW288946   4.993   4.123   1.703 -0.8245 -2.1418 -1.1067
28772SOL     OW88947   9.687   0.948   3.864  0.2930  0.9420  0.1612
28772SOL    HW188948   9.603   0.943   3.818 -0.6356 -1.3406  1.9481
28772SOL    HW288949   9.690   1.038   3.897 -0.1060  1.9117 -2.2418
28773SOL     OW88950   5.004   9.986   4.907  0.2301  0.1981  0.1952
28773SOL    HW188951   4.979  10.024   4.823 -0.9254 -0.9606 -0.0228
28773SOL    HW288952   5.099   9.997   4.911  0.2544  0.6073 -1.0880
28774SOL     OW88953   4.037   3.636   8.968 -0.4709 -0.1975  0.1600
28774SOL    HW188954   4.081   3.556   8.941 -1.1459 -1.3008  2.0804
28774SOL    HW288955   4.099   3.706   8.949  1.2800 -1.4807  0.8792
28775SOL     OW88956   0.777   5.324   4.078 -0.8550  0.0588 -0.3448
28775SOL    HW188957   0.730   5.350   4.000  1.7026  0.4278 -1.8797
28775SOL    HW288958   0.842   5.393   4.092 -0.2353 -0.7709  1.1999
28776SOL     OW88959   3.930   2.341   8.772 -0.0735  0.0027  0.2007
28776SOL    HW188960   3.949   2.270   8.833  0.2401  0.2017  0.3356
28776SOL    HW288961   3.844   2.319   8.735 -0.3084 -0.0630  0.7910
28777SOL     OW88962   0.402   9.125   3.411  0.3522  0.7105  0.5867
28777SOL    HW188963   0.390   9.068   3.334  0.2516  0.6296  0.6609
28777SOL    HW288964   0.339   9.196   3.397 -1.7211 -0.7268  1.9336
28778SOL     OW88965   9.862   4.006   8.325  0.0967  0.3100  0.1527
28778SOL    HW188966   9.873   3.928   8.378  0.3645 -0.7459 -1.3789
28778SOL    HW288967   9.880   4.079   8.384 -1.0467 -0.7256  1.8513
28779SOL     OW88968   1.815   9.656   0.275  0.1925  0.4084  0.3935
28779SOL    HW188969   1.805   9.732   0.331 -2.4305  0.0951  0.4728
28779SOL    HW288970   1.777   9.682   0.191 -0.7898 -0.7732  0.4351
28780SOL     OW88971   6.700   0.498   6.194  0.0681  0.0744 -0.3967
28780SOL    HW188972   6.785   0.536   6.171 -0.1755  0.6490 -0.3624
28780SOL    HW288973   6.639   0.535   6.130  0.0552 -1.3702 -1.2647
28781SOL     OW88974   1.473   5.460  10.329  0.0914  0.1981  0.2124
28781SOL    HW188975   1.533   5.431  10.398 -0.1285 -2.3549 -0.5518
28781SOL    HW288976   1.529   5.498  10.262  0.6955 -0.5882  0.2555
28782SOL     OW88977   5.756   1.090   1.475 -0.5458 -0.0750 -0.0622
28782SOL    HW188978   5.688   1.029   1.448 -0.6576  0.3790 -0.8543
28782SOL    HW288979   5.810   1.101   1.397  0.8275 -0.9293  0.7384
28783SOL     OW88980   7.648   4.124   5.212 -0.1889 -0.1151 -0.2943
28783SOL    HW188981   7.602   4.097   5.133 -0.2138 -1.6978  0.2185
28783SOL    HW288982   7.734   4.081   5.206  0.4059  0.9970 -0.1694
28784SOL     OW88983   1.066   6.264   3.488  0.0186  0.1502  0.3791
28784SOL    HW188984   1.009   6.223   3.554 -0.8376  1.2342  0.3546
28784SOL    HW288985   1.136   6.305   3.539  0.0995 -0.1496  0.5098
28785SOL     OW88986  10.251   8.445   2.374  0.0586 -0.2537 -0.1200
28785SOL    HW188987  10.264   8.435   2.469 -0.2291  0.7067  0.0353
28785SOL    HW288988  10.206   8.365   2.348  0.0781 -0.5049  0.5726
28786SOL     OW88989   9.090   7.706   3.974  0.0922  0.1135 -0.1960
28786SOL    HW188990   9.043   7.649   3.914  1.4897  1.0901 -2.3623
28786SOL    HW288991   9.044   7.790   3.969 -0.9524 -0.2991  1.6781
28787SOL     OW88992   2.188   5.840   9.166 -0.3963  0.1138  0.3250
28787SOL    HW188993   2.116   5.863   9.108 -0.4209 -2.6009 -0.8723
28787SOL    HW288994   2.261   5.895   9.135 -1.0365  0.4296 -0.7009
28788SOL     OW88995   4.824   7.497   2.983 -0.3365 -0.0976 -0.1042
28788SOL    HW188996   4.765   7.489   3.058  0.4273 -0.2574  0.4906
28788SOL    HW288997   4.815   7.588   2.956 -0.8194 -0.1081 -0.0029
28789SOL     OW88998   0.641   1.099   9.569  0.2636  0.4214 -0.2275
28789SOL    HW188999   0.618   1.024   9.623 -1.2826 -0.5546 -2.1030
28789SOL    HW289000   0.729   1.124   9.599 -0.3104 -0.3354  2.3249
28790SOL     OW89001   5.854   2.761   6.816 -0.4877  0.0651  0.3052
28790SOL    HW189002   5.902   2.714   6.748 -0.4762 -1.0544  1.0662
28790SOL    HW289003   5.763   2.762   6.784 -0.1910  1.1393 -0.5649
28791SOL     OW89004   1.579   7.870   1.994 -0.7756 -0.1924 -0.1761
28791SOL    HW189005   1.485   7.865   2.014 -0.7480  1.5902  0.5885
28791SOL    HW289006   1.593   7.962   1.970  0.5973 -0.6721 -1.3394
28792SOL     OW89007   0.223   5.193   1.790 -0.4574  0.5976 -0.0210
28792SOL    HW189008   0.152   5.139   1.825 -1.7845  2.1638 -0.1547
28792SOL    HW289009   0.181   5.249   1.725  0.9542  1.4011 -0.2887
28793SOL     OW89010   3.955   4.693   1.728 -0.0211  0.1686 -1.0529
28793SOL    HW189011   4.031   4.680   1.785  1.5230  1.6379 -2.6557
28793SOL    HW289012   3.882   4.708   1.789  1.0445 -0.7018  0.5224
28794SOL     OW89013   1.703   9.326   7.322  0.1647  0.0051  0.3848
28794SOL    HW189014   1.679   9.353   7.234  0.7270  0.3908  0.3424
28794SOL    HW289015   1.711   9.407   7.371 -2.7986 -0.2922  1.5445
28795SOL     OW89016   4.644   0.260  10.302 -0.1287 -0.0624 -0.0629
28795SOL    HW189017   4.661   0.184  10.247 -0.0444  0.5463 -0.9134
28795SOL    HW289018   4.731   0.294  10.324 -0.1176 -1.0694  1.5967
28796SOL     OW89019   9.755   9.083  10.142  0.2171 -0.6391  0.1722
28796SOL    HW189020   9.701   9.095  10.064  0.1854 -0.7184  0.1815
28796SOL    HW289021   9.722   9.147  10.205  0.5093 -0.2964 -0.0184
28797SOL     OW89022   7.268   0.905   3.308  0.6934 -0.0380  0.0299
28797SOL    HW189023   7.263   0.811   3.320  1.1645  0.0479  0.8957
28797SOL    HW289024   7.179   0.930   3.280  0.8468 -0.8666 -1.3072
28798SOL     OW89025   4.089   7.781   8.516 -0.4359 -0.3006 -0.1537
28798SOL    HW189026   3.994   7.772   8.522 -0.3584 -0.7456  0.6341
28798SOL    HW289027   4.123   7.713   8.574  0.3549  0.2640  0.0659
28799SOL     OW89028   3.813   5.033   6.307 -0.6330 -0.1184  0.0982
28799SOL    HW189029   3.763   4.993   6.378 -1.6910  0.7389 -0.1522
28799SOL    HW289030   3.800   5.127   6.318  0.3135  0.0934 -0.4342
28800SOL     OW89031   2.463   9.770   7.168  0.0952 -0.2183  0.1760
28800SOL    HW189032   2.379   9.769   7.123  0.4486  0.9264 -0.5570
28800SOL    HW289033   2.442   9.795   7.258 -0.3627 -0.1775  0.0606
28801SOL     OW89034   7.617   6.377   2.762 -0.7275  0.3448  0.2346
28801SOL    HW189035   7.664   6.302   2.799  0.6817  0.9981 -0.1745
28801SOL    HW289036   7.684   6.426   2.714 -1.6056  1.8934  0.5284
28802SOL     OW89037   0.885   2.800   8.529  0.4338 -0.5206  0.1218
28802SOL    HW189038   0.855   2.754   8.608 -0.7016 -0.0389 -0.0108
28802SOL    HW289039   0.831   2.764   8.459  0.0173  0.5053 -0.0981
28803SOL     OW89040   4.310   1.637   6.488  0.0637 -0.2309 -0.2262
28803SOL    HW189041   4.242   1.581   6.526  0.3354  0.3107  1.1381
28803SOL    HW289042   4.270   1.724   6.485  1.0358  0.3624  1.7775
28804SOL     OW89043   9.749   1.790   5.407  0.4223 -0.4230 -0.1545
28804SOL    HW189044   9.731   1.841   5.486  1.1375 -0.9249  0.3337
28804SOL    HW289045   9.840   1.809   5.386  0.0515  0.2550 -1.2746
28805SOL     OW89046   4.331   9.727   3.997 -0.5907 -0.1057  1.6909
28805SOL    HW189047   4.245   9.759   4.024  0.1009  1.5372  2.0732
28805SOL    HW289048   4.392   9.791   4.032  0.8000 -1.2299  1.3945
28806SOL     OW89049   4.567   2.068   0.747 -0.1811  0.0935 -0.3258
28806SOL    HW189050   4.617   2.105   0.819 -0.1370 -0.0602 -0.2771
28806SOL    HW289051   4.625   2.077   0.671 -0.1446  0.0647 -0.3015
28807SOL     OW89052   9.101   9.438   3.279 -0.3708  0.1744 -0.3920
28807SOL    HW189053   9.142   9.391   3.352 -0.3400 -0.0847 -0.5753
28807SOL    HW289054   9.089   9.371   3.211 -1.3787  0.1772 -0.2319
28808SOL     OW89055   2.069   6.949   6.616  0.0342 -0.2291 -0.1239
28808SOL    HW189056   1.986   6.910   6.588 -0.2735  1.3092 -1.6012
28808SOL    HW289057   2.129   6.933   6.542  0.0204  1.5767 -0.5846
28809SOL     OW89058   3.069   9.482   8.882  0.2705  0.3969  0.4746
28809SOL    HW189059   3.104   9.549   8.940  0.7395  0.2885  0.3243
28809SOL    HW289060   3.126   9.486   8.805 -0.4224  0.6340 -0.0347
28810SOL     OW89061   5.553   3.700   6.876  0.0257  0.2464  0.1893
28810SOL    HW189062   5.515   3.785   6.855  0.8581  0.4879 -0.3916
28810SOL    HW289063   5.550   3.695   6.971 -0.4792  0.7143  0.2012
28811SOL     OW89064   3.517   1.389   1.416 -0.4100 -0.0054  0.2760
28811SOL    HW189065   3.556   1.334   1.349 -0.5585 -0.0458  0.2224
28811SOL    HW289066   3.435   1.346   1.439 -0.5633  0.2320  0.1802
28812SOL     OW89067   1.642   2.951  10.158 -0.2132  0.1872 -0.6081
28812SOL    HW189068   1.715   2.998  10.117 -1.0480  0.8772 -1.3473
28812SOL    HW289069   1.628   2.997  10.241 -0.0641  0.3154 -0.6525
28813SOL     OW89070   8.899   6.730   5.217 -0.3026  0.0923  0.4922
28813SOL    HW189071   8.929   6.710   5.128 -1.3612  0.2284  0.0815
28813SOL    HW289072   8.883   6.644   5.256 -1.8469  0.0227 -0.1967
28814SOL     OW89073   9.813   7.980  10.031 -0.1911 -0.5457 -0.1666
28814SOL    HW189074   9.874   7.951  10.099 -0.1727  1.0927  0.5742
28814SOL    HW289075   9.765   7.902  10.006  0.3636 -1.3419  1.1622
28815SOL     OW89076   7.878   4.393   7.223 -0.1480  0.1876 -0.4979
28815SOL    HW189077   7.968   4.424   7.214 -0.1233  0.2018 -0.2185
28815SOL    HW289078   7.828   4.471   7.245 -0.4345  0.4029 -1.8289
28816SOL     OW89079   8.344  10.202   9.102  0.2215 -0.1720  0.1083
28816SOL    HW189080   8.344  10.262   9.027 -0.7699 -3.8327 -3.1827
28816SOL    HW289081   8.437  10.185   9.118  0.4545  0.5891 -0.3543
28817SOL     OW89082   2.939   0.728   4.858  0.0338 -0.3728 -0.1080
28817SOL    HW189083   2.921   0.803   4.915  0.7719 -0.2312 -0.0479
28817SOL    HW289084   3.024   0.696   4.888 -0.8054 -1.9992  0.6841
28818SOL     OW89085   1.482   3.285   6.202  0.2631  0.7413  0.0877
28818SOL    HW189086   1.420   3.340   6.154  0.8168  0.9355 -0.4080
28818SOL    HW289087   1.437   3.265   6.285 -1.1201 -0.3926 -0.8697
28819SOL     OW89088   8.343   4.052   6.704 -0.1142 -0.6162  0.1003
28819SOL    HW189089   8.313   3.997   6.776  0.8667 -1.7811 -0.3490
28819SOL    HW289090   8.357   3.991   6.631  0.0508  0.3692 -0.7215
28820SOL     OW89091   5.262   4.771   9.196 -0.2899  0.1899  0.4946
28820SOL    HW189092   5.356   4.762   9.185 -0.4604  0.0238 -0.9392
28820SOL    HW289093   5.237   4.843   9.138 -1.2756 -0.9114 -0.5007
28821SOL     OW89094   3.874   7.483   6.266  0.0235 -0.4387 -0.0475
28821SOL    HW189095   3.848   7.573   6.283  0.1737  0.1903 -2.6708
28821SOL    HW289096   3.797   7.443   6.225  1.1235 -0.2861 -2.4665
28822SOL     OW89097   1.825   5.855   4.634  0.6015 -0.4968 -0.3723
28822SOL    HW189098   1.890   5.791   4.605  0.4174 -1.2437  0.8084
28822SOL    HW289099   1.812   5.835   4.727 -0.0608  0.7407 -0.1831
28823SOL     OW89100   0.286  10.331   7.636  0.0588  0.1836  0.3914
28823SOL    HW189101   0.318  10.387   7.565 -1.8866 -0.3256 -0.9941
28823SOL    HW289102   0.359  10.325   7.697  2.4829 -0.7456 -2.3845
28824SOL     OW89103   1.159   4.647   7.318  0.4785 -0.2258  0.2060
28824SOL    HW189104   1.130   4.683   7.402  1.8662  1.0441  0.1862
28824SOL    HW289105   1.151   4.552   7.329 -1.1014 -0.0351  1.0916
28825SOL     OW89106   9.807   5.653   7.587 -0.1318  0.3750  0.0390
28825SOL    HW189107   9.723   5.607   7.584  0.6960 -1.2828 -2.9898
28825SOL    HW289108   9.849   5.621   7.667 -0.4293 -2.8179 -0.9321
28826SOL     OW89109   8.155   6.575   6.928  0.2802 -0.0252  0.5462
28826SOL    HW189110   8.095   6.524   6.982  1.9952 -1.8747  0.8594
28826SOL    HW289111   8.199   6.510   6.873  1.2574  1.3664 -0.4003
28827SOL     OW89112   3.008   3.024   8.653  0.9053  0.5331  0.7020
28827SOL    HW189113   2.954   3.005   8.576  0.7319 -0.9144  1.1490
28827SOL    HW289114   2.946   3.033   8.725  1.0538  2.0815  0.6637
28828SOL     OW89115   4.471   6.671   9.049  0.2352 -0.3118 -0.0182
28828SOL    HW189116   4.392   6.648   9.000  1.0464 -2.9636 -0.2705
28828SOL    HW289117   4.463   6.624   9.132  0.7284  0.8519  0.7042
28829SOL     OW89118   6.528   7.680   7.448 -0.5849 -0.2357 -0.2948
28829SOL    HW189119   6.591   7.747   7.422  1.1514 -1.8304 -0.4080
28829SOL    HW289120   6.484   7.717   7.525 -0.8185  1.6406 -1.2712
28830SOL     OW89121   9.481   5.970   5.144  0.6374 -0.2839 -0.1931
28830SOL    HW189122   9.568   5.992   5.110  1.2925 -1.2089  0.8042
28830SOL    HW289123   9.429   5.949   5.067  1.4714 -0.2914 -0.7617
28831SOL     OW89124   0.084   0.784   2.853  0.1749 -0.5539 -0.1841
28831SOL    HW189125   0.058   0.692   2.848 -0.0772 -0.6270  1.6478
28831SOL    HW289126   0.011   0.827   2.897 -0.3456  0.8310 -2.2850
28832SOL     OW89127   5.483   0.322   2.847 -0.8003 -0.6068 -0.0746
28832SOL    HW189128   5.542   0.293   2.917  0.9716  1.7747 -0.4763
28832SOL    HW289129   5.513   0.276   2.769 -0.2972 -0.3755 -0.0197
28833SOL     OW89130   4.335   8.311   1.816 -0.0251 -0.2060 -0.1556
28833SOL    HW189131   4.420   8.344   1.788  0.4249 -1.2473 -0.0896
28833SOL    HW289132   4.289   8.292   1.734 -0.5698  1.2300 -0.2019
28834SOL     OW89133   8.900   1.928   8.351  0.5079  0.2449  0.6904
28834SOL    HW189134   8.864   1.961   8.433  1.8011 -1.0307  1.8197
28834SOL    HW289135   8.979   1.881   8.377 -0.3591 -2.3229 -0.9994
28835SOL     OW89136   2.879   3.715   4.407  0.2293  0.6733  0.2703
28835SOL    HW189137   2.817   3.649   4.376  1.4580 -0.5146  0.2556
28835SOL    HW289138   2.964   3.674   4.398  0.8511  1.2180  2.8234
28836SOL     OW89139   4.827  10.121   7.953  0.2594  0.3038  0.1293
28836SOL    HW189140   4.744  10.168   7.950  0.1147  0.0299 -0.2164
28836SOL    HW289141   4.893  10.189   7.934 -0.0571  0.1182 -1.8598
28837SOL     OW89142   8.989   7.159   0.730 -0.1290 -0.2669  0.8437
28837SOL    HW189143   9.031   7.109   0.660  0.2381  1.4512 -0.2224
28837SOL    HW289144   8.947   7.233   0.685  0.8964  1.4249  2.4930
28838SOL     OW89145   6.713   4.857   0.570  0.1545  0.3266 -0.2061
28838SOL    HW189146   6.622   4.853   0.541 -0.5064  1.9163  1.4837
28838SOL    HW289147   6.758   4.905   0.501 -0.4224  0.1255 -0.7313
28839SOL     OW89148   8.076   0.774   4.034  0.4069 -0.3711  0.3206
28839SOL    HW189149   8.147   0.711   4.027  0.1649 -0.4622 -1.9742
28839SOL    HW289150   8.117   0.859   4.018  0.1588 -0.3437 -0.2082
28840SOL     OW89151   3.918   2.197  10.254 -0.3363  0.2603 -0.0430
28840SOL    HW189152   3.840   2.252  10.244 -0.3364  0.2220 -0.2406
28840SOL    HW289153   3.970   2.242  10.322 -0.1854  0.6708 -0.4258
28841SOL     OW89154   4.029   1.905   0.786 -0.5201 -0.2933 -0.9670
28841SOL    HW189155   4.109   1.892   0.735 -0.8559  0.7457 -1.7772
28841SOL    HW289156   4.040   1.848   0.862  1.8297  1.1790 -0.1010
28842SOL     OW89157   8.403   6.665   1.944  0.3396 -0.4421 -0.2013
28842SOL    HW189158   8.480   6.718   1.923 -0.4852  0.0789 -2.2370
28842SOL    HW289159   8.409   6.649   2.038  2.6739 -0.0408 -0.2309
28843SOL     OW89160   0.869   1.488  10.147 -0.4384  0.6725  0.2649
28843SOL    HW189161   0.951   1.505  10.194 -0.1512  1.6124 -0.5344
28843SOL    HW289162   0.892   1.496  10.055 -1.1228 -0.5751 -0.0379
28844SOL     OW89163   8.558   6.837   0.469 -0.3456  0.3348  0.3555
28844SOL    HW189164   8.646   6.875   0.470  0.1440 -0.7349 -0.0848
28844SOL    HW289165   8.572   6.748   0.438 -1.5830  0.1202  0.3964
28845SOL     OW89166   5.881   1.706   6.240  0.1115 -0.1141  0.3236
28845SOL    HW189167   5.929   1.788   6.232 -0.2902  0.5268  3.3278
28845SOL    HW289168   5.801   1.719   6.190  0.8449  0.6197 -0.7005
28846SOL     OW89169   7.991   9.137   2.383 -0.8364  0.4053  0.0159
28846SOL    HW189170   8.016   9.059   2.333 -1.2804 -0.9351  1.7334
28846SOL    HW289171   8.019   9.211   2.330  1.9105 -0.9289 -0.5969
28847SOL     OW89172   5.225   0.008   9.803 -0.9880  0.5446  0.2603
28847SOL    HW189173   5.261  -0.065   9.753 -0.1857  0.8495  0.3785
28847SOL    HW289174   5.164   0.051   9.742 -1.8840 -0.5299  0.3674
28848SOL     OW89175   5.760   4.337   7.455  0.6550  0.5281 -0.0231
28848SOL    HW189176   5.691   4.327   7.520  0.6527  0.5491 -0.0224
28848SOL    HW289177   5.714   4.344   7.371  0.6732 -0.0693 -0.0931
28849SOL     OW89178   2.677   6.484   1.971  0.6785 -0.8808  0.3706
28849SOL    HW189179   2.628   6.405   1.994 -0.2540 -0.3462  0.2797
28849SOL    HW289180   2.634   6.554   2.020 -0.7776  0.1348 -2.1376
28850SOL     OW89181   6.078   2.161   5.610  0.0058  0.3958  0.0456
28850SOL    HW189182   6.169   2.183   5.627  0.3539 -1.0494  0.2524
28850SOL    HW289183   6.077   2.130   5.520 -0.4483  1.1821 -0.2253
28851SOL     OW89184   5.623   0.159   5.732  0.3735 -0.7943  0.7679
28851SOL    HW189185   5.544   0.118   5.697  0.1405  1.3364 -1.4262
28851SOL    HW289186   5.695   0.114   5.687  0.3248 -1.1870  1.0709
28852SOL     OW89187   4.570   7.144   9.815 -0.6719 -0.1143  0.2004
28852SOL    HW189188   4.572   7.232   9.852 -1.4343 -0.2640  0.6202
28852SOL    HW289189   4.496   7.146   9.753 -1.2063 -0.6869  0.8123
28853SOL     OW89190   1.862   5.089   5.507 -0.9173  0.2554  0.3750
28853SOL    HW189191   1.951   5.124   5.496 -1.0285  0.4049 -0.0402
28853SOL    HW289192   1.866   5.040   5.589 -0.8159  1.4212  1.0867
28854SOL     OW89193   1.335   8.779   8.537 -0.2218  0.4096  0.2835
28854SOL    HW189194   1.333   8.875   8.534  0.8624  0.4312 -0.8625
28854SOL    HW289195   1.420   8.759   8.576 -0.1946 -0.0760 -0.0198
28855SOL     OW89196   0.356   1.704   0.314  0.7124 -0.2620  0.0669
28855SOL    HW189197   0.438   1.742   0.285  0.8828 -0.8023 -0.1826
28855SOL    HW289198   0.316   1.670   0.234  0.6623 -0.7805  0.3060
28856SOL     OW89199   6.380   9.865   0.767 -0.1967 -0.2812 -0.0580
28856SOL    HW189200   6.306   9.826   0.813  0.5589 -0.3880  1.1122
28856SOL    HW289201   6.378   9.957   0.792 -0.5687 -0.0530 -0.9019
28857SOL     OW89202   6.854   9.146   2.430 -0.1094  0.8189  0.0443
28857SOL    HW189203   6.942   9.152   2.392 -0.9814  1.5972 -1.9731
28857SOL    HW289204   6.835   9.052   2.428  0.7010  0.6246  0.6228
28858SOL     OW89205   4.543   7.394   3.715  0.4458  0.0039 -0.6478
28858SOL    HW189206   4.552   7.489   3.720  0.8604 -0.0939  1.2736
28858SOL    HW289207   4.589   7.370   3.635  1.3580  1.3203 -0.5500
28859SOL     OW89208   5.258   9.721   0.993 -0.3197  0.1534 -0.3170
28859SOL    HW189209   5.297   9.784   0.931  1.4105 -0.8664 -0.3341
28859SOL    HW289210   5.229   9.648   0.938  0.1573 -0.2434 -0.0456
28860SOL     OW89211   9.824   0.546   9.264  0.0930  0.2948 -0.0341
28860SOL    HW189212   9.834   0.573   9.173 -0.2899  1.1578  0.1715
28860SOL    HW289213   9.740   0.499   9.266 -0.5250  1.3713  0.1058
28861SOL     OW89214   6.237   8.405   0.405  0.1261 -0.1492  0.7585
28861SOL    HW189215   6.271   8.336   0.463 -0.1045 -0.2664  0.7526
28861SOL    HW289216   6.177   8.360   0.347 -1.3746  0.3454  1.8751
28862SOL     OW89217   0.286   5.610   8.186  0.5227  0.3339  0.0422
28862SOL    HW189218   0.221   5.641   8.249  0.3943  2.0413 -0.8818
28862SOL    HW289219   0.360   5.670   8.196  0.7138  0.2971 -1.0623
28863SOL     OW89220   5.543   3.646   9.300  0.6719 -0.0925  0.1346
28863SOL    HW189221   5.604   3.616   9.232  0.3981  0.3306 -0.2982
28863SOL    HW289222   5.461   3.660   9.255  0.2828 -0.5056  0.6931
28864SOL     OW89223   1.390  10.205   9.709  0.4464 -0.5636 -0.0881
28864SOL    HW189224   1.387  10.297   9.738  1.2687 -0.5012 -0.1682
28864SOL    HW289225   1.392  10.154   9.790  2.4225 -0.4011  0.0127
28865SOL     OW89226   3.817   9.710   2.244 -0.5399 -0.1018  0.0881
28865SOL    HW189227   3.891   9.768   2.261 -0.4189 -0.0012 -0.7428
28865SOL    HW289228   3.769   9.752   2.173 -1.1670 -0.3784  0.3399
28866SOL     OW89229   1.879   6.866  10.126 -0.2033  0.4140 -0.3530
28866SOL    HW189230   1.950   6.879  10.062  0.5160 -0.5153  0.2288
28866SOL    HW289231   1.817   6.809  10.081  1.0226 -1.4863  0.2423
28867SOL     OW89232   5.860   4.431   1.257 -0.0120  0.1436 -0.0403
28867SOL    HW189233   5.889   4.368   1.192  2.1032  2.6967 -1.7827
28867SOL    HW289234   5.937   4.448   1.311 -1.4313 -1.0891  2.5869
28868SOL     OW89235   5.096   9.603   2.020  0.4804  0.2511 -0.5141
28868SOL    HW189236   5.132   9.515   2.021 -0.4575 -0.1959 -1.9894
28868SOL    HW289237   5.154   9.652   1.961 -1.1037 -0.4327 -2.7774
28869SOL     OW89238   8.319   3.413   1.892  0.2309 -0.7003  0.1094
28869SOL    HW189239   8.396   3.358   1.878  0.8478  0.4923 -1.4537
28869SOL    HW289240   8.260   3.358   1.945  2.0214 -1.7262  1.1700
28870SOL     OW89241   6.315  10.212  10.010 -0.0963  0.1641 -0.1923
28870SOL    HW189242   6.354  10.274   9.948 -0.2504  2.4413  1.7940
28870SOL    HW289243   6.384  10.199  10.076 -1.1898  0.8542  1.1268
28871SOL     OW89244   3.219   9.326   2.767 -0.4234  0.2743  0.0748
28871SOL    HW189245   3.267   9.349   2.687 -0.3187  1.6213  0.5119
28871SOL    HW289246   3.270   9.365   2.838 -0.3566 -1.1501  0.8526
28872SOL     OW89247   8.347   3.239   9.851 -0.4239  0.4832 -0.1963
28872SOL    HW189248   8.356   3.240   9.756  0.0699  0.0325 -0.1582
28872SOL    HW289249   8.267   3.288   9.868 -2.8435 -2.8581 -1.0816
28873SOL     OW89250   5.134   6.476   2.871 -0.0785 -0.2958 -0.3602
28873SOL    HW189251   5.055   6.486   2.819 -0.7249 -1.3980  0.3585
28873SOL    HW289252   5.190   6.418   2.818 -0.3189 -0.6025 -0.2840
28874SOL     OW89253   8.929   5.141   4.364  0.1032  0.2140  0.1541
28874SOL    HW189254   8.978   5.080   4.418  0.5066 -0.3615 -0.8464
28874SOL    HW289255   8.837   5.119   4.381  0.2429 -0.5504 -0.0570
28875SOL     OW89256   7.613   2.294   1.858  0.3864  0.1024 -0.5941
28875SOL    HW189257   7.541   2.356   1.864  0.2947 -0.0772  0.4148
28875SOL    HW289258   7.637   2.294   1.766 -2.0689 -1.1362 -1.3303
28876SOL     OW89259   2.556   1.927   3.343 -0.1620  0.0168 -0.1042
28876SOL    HW189260   2.602   1.871   3.406  1.3637  0.8209 -0.4308
28876SOL    HW289261   2.504   1.866   3.291 -0.6347 -0.7788  1.2370
28877SOL     OW89262   5.435   3.122   2.652  0.5706 -0.2170  0.1148
28877SOL    HW189263   5.510   3.152   2.704  0.4838  0.5195 -0.1672
28877SOL    HW289264   5.385   3.066   2.711  0.0669  1.2105  1.0867
28878SOL     OW89265   7.009   8.200  10.314  0.4749  0.6738 -0.5828
28878SOL    HW189266   7.009   8.232  10.405  0.7382  1.0496 -0.7120
28878SOL    HW289267   6.918   8.177  10.296  0.4203  0.6038 -0.2268
28879SOL     OW89268   7.487   2.736   5.439  0.1936  0.2677  0.9084
28879SOL    HW189269   7.430   2.767   5.369 -1.5353 -2.9779  0.6778
28879SOL    HW289270   7.533   2.661   5.402  0.4054 -0.5806  2.7399
28880SOL     OW89271   7.957   4.770   3.872  0.0568 -0.4055 -0.1582
28880SOL    HW189272   7.898   4.833   3.830  0.7294  0.2126 -0.1924
28880SOL    HW289273   7.980   4.810   3.955 -0.1818 -1.0020  0.1990
28881SOL     OW89274   8.554   4.400   3.404  0.4234 -0.0302 -0.2378
28881SOL    HW189275   8.471   4.446   3.391 -0.6310 -1.7697  0.0887
28881SOL    HW289276   8.613   4.439   3.339 -1.1720 -0.0492 -1.7631
28882SOL     OW89277   1.892   6.304   5.734 -0.0466  0.1237 -0.0798
28882SOL    HW189278   1.952   6.231   5.743  1.1506  1.1148  0.2550
28882SOL    HW289279   1.835   6.298   5.810  0.1406 -0.3764  0.0197
28883SOL     OW89280   9.796   9.632   0.677 -0.1003 -0.4375 -0.6711
28883SOL    HW189281   9.796   9.543   0.711  0.9114 -0.4347 -0.6440
28883SOL    HW289282   9.878   9.670   0.708 -0.0905  0.2110 -1.4536
28884SOL     OW89283   6.779   5.916   0.515 -0.4000 -0.2159 -0.7459
28884SOL    HW189284   6.752   5.872   0.596  1.5283  0.3206  0.2587
28884SOL    HW289285   6.796   5.846   0.453  2.0932 -0.9399  0.6489
28885SOL     OW89286   3.943   2.336   2.622 -0.5990 -0.7261 -0.4790
28885SOL    HW189287   3.888   2.267   2.586 -0.4591 -1.1188  0.0521
28885SOL    HW289288   3.955   2.312   2.714 -1.0267  0.3039 -0.1363
28886SOL     OW89289   8.096   5.263   5.635  0.5454 -0.5351 -0.5291
28886SOL    HW189290   8.076   5.349   5.672  0.2294  0.0785 -2.0271
28886SOL    HW289291   8.188   5.249   5.654  0.2224 -0.6093  1.1169
28887SOL     OW89292   0.756   1.856  10.266  0.3044  0.0252 -0.6006
28887SOL    HW189293   0.783   1.946  10.283 -1.1863  0.6463 -1.3456
28887SOL    HW289294   0.832   1.815  10.225  1.7621  0.2714  1.6739
28888SOL     OW89295   1.246   7.617   3.672 -0.1845 -0.0023 -0.3330
28888SOL    HW189296   1.309   7.583   3.736 -1.8132 -1.6596  0.4532
28888SOL    HW289297   1.187   7.671   3.724 -0.8404 -0.4246 -0.6347
28889SOL     OW89298   7.218   8.086   7.724 -0.0537  0.7509 -0.0747
28889SOL    HW189299   7.284   8.146   7.759 -0.3131  0.1315  1.5667
28889SOL    HW289300   7.142   8.097   7.782 -0.1772 -0.9750  0.1674
28890SOL     OW89301   1.327  10.283   6.087  0.1518  0.4628  0.4653
28890SOL    HW189302   1.292  10.196   6.070  1.0137  0.3768 -1.0766
28890SOL    HW289303   1.251  10.341   6.080  0.0365  0.1392 -1.4711
28891SOL     OW89304   6.156  10.323   8.801  0.1542  0.3626  0.6344
28891SOL    HW189305   6.165  10.397   8.740 -1.0415 -0.5972 -0.7772
28891SOL    HW289306   6.172  10.246   8.747 -4.5747 -0.7881  0.4676
28892SOL     OW89307   7.218   6.502   1.869  0.1959 -0.0472 -0.3685
28892SOL    HW189308   7.309   6.492   1.840 -0.3630 -1.3220 -1.8074
28892SOL    HW289309   7.207   6.596   1.882  2.2394 -0.0001  1.6965
28893SOL     OW89310   0.627  10.197   8.163 -0.0205 -0.3062 -0.2134
28893SOL    HW189311   0.608  10.230   8.076  0.7444 -0.5189 -0.4638
28893SOL    HW289312   0.720  10.213   8.176  0.0016 -0.8165  0.3319
28894SOL     OW89313   9.739   7.077   3.925  0.3408  0.2745 -0.1036
28894SOL    HW189314   9.719   7.008   3.988  0.9108  0.1535 -0.0466
28894SOL    HW289315   9.790   7.033   3.857 -0.3673  0.3785 -0.7084
28895SOL     OW89316   6.520   0.459   7.812  0.7418  0.2304  0.8077
28895SOL    HW189317   6.451   0.435   7.874 -0.0046 -1.5004 -0.5931
28895SOL    HW289318   6.477   0.516   7.748 -0.3978 -3.2222 -1.8100
28896SOL     OW89319   3.486   2.454   5.394  0.7907  0.5585 -0.0285
28896SOL    HW189320   3.415   2.451   5.458  2.0414 -1.0679  1.3802
28896SOL    HW289321   3.450   2.503   5.320 -1.5783  0.2771  0.8653
28897SOL     OW89322   7.717   0.106   0.723 -0.0735 -0.0869 -0.0966
28897SOL    HW189323   7.746   0.029   0.773 -1.8948 -0.9385 -0.2558
28897SOL    HW289324   7.703   0.173   0.789 -2.2351 -1.1312  0.5848
28898SOL     OW89325   9.003   9.260   0.782 -0.1576  0.0147 -0.2220
28898SOL    HW189326   8.909   9.246   0.795 -0.0572  0.3537  1.0270
28898SOL    HW289327   9.035   9.175   0.752 -0.9464  0.0614 -1.2436
28899SOL     OW89328   7.469   5.873   6.005 -0.0718  0.1397  0.1483
28899SOL    HW189329   7.536   5.824   6.053  0.6832  1.1518  0.1327
28899SOL    HW289330   7.511   5.897   5.923 -0.5071  0.6512  0.0743
28900SOL     OW89331   8.088   3.753   5.324 -0.1432 -0.1695 -0.7089
28900SOL    HW189332   8.086   3.698   5.402 -0.0977 -0.5924 -1.0052
28900SOL    HW289333   8.005   3.801   5.326  0.5036  0.9871  0.4264
28901SOL     OW89334   4.057   3.799   6.408 -0.1983  0.7186 -0.5166
28901SOL    HW189335   4.049   3.804   6.313  0.0887 -1.2222 -0.7015
28901SOL    HW289336   4.002   3.870   6.441 -0.8350  1.0151 -2.1190
28902SOL     OW89337   4.370   8.457   0.495  0.4149  0.1375 -0.3205
28902SOL    HW189338   4.453   8.499   0.517  0.6850 -0.9244  0.8745
28902SOL    HW289339   4.303   8.514   0.533  0.3446  2.3283 -3.4034
28903SOL     OW89340   3.697   7.017   4.486  0.0264 -0.2805  0.5117
28903SOL    HW189341   3.706   7.068   4.566  0.1678  1.3057 -0.4739
28903SOL    HW289342   3.602   7.006   4.475 -0.0734  1.0158 -0.0073
28904SOL     OW89343   9.489   1.093   2.331  1.2501 -0.3394  0.0120
28904SOL    HW189344   9.400   1.094   2.296  1.9975  1.0114 -2.0425
28904SOL    HW289345   9.527   1.176   2.303  3.4764 -1.3011 -0.0462
28905SOL     OW89346   2.183   8.480   7.642 -0.3648  0.0665 -0.1488
28905SOL    HW189347   2.240   8.403   7.642  1.7104  1.5169 -0.8785
28905SOL    HW289348   2.111   8.456   7.700 -0.4900 -2.8791 -1.3788
28906SOL     OW89349   0.338   4.766   2.753  0.1241  0.4515  0.7374
28906SOL    HW189350   0.270   4.775   2.688  1.4800  2.4927 -0.5194
28906SOL    HW289351   0.292   4.746   2.835 -1.8369  0.6876 -0.2746
28907SOL     OW89352   3.116   2.162   4.702  0.2602 -0.3293 -0.2795
28907SOL    HW189353   3.083   2.073   4.694 -0.1935 -0.1816 -0.0974
28907SOL    HW289354   3.149   2.168   4.791  0.7165 -0.4570 -0.4408
28908SOL     OW89355   8.670   1.496   6.388 -0.3002 -0.8509 -0.1252
28908SOL    HW189356   8.665   1.567   6.324  1.7257 -1.3460 -0.9132
28908SOL    HW289357   8.718   1.427   6.343  3.0148 -0.5004  2.4787
28909SOL     OW89358   4.498   0.398   3.549  0.5230  0.5301 -0.0858
28909SOL    HW189359   4.505   0.493   3.559  1.5036  0.6285 -1.5102
28909SOL    HW289360   4.449   0.370   3.627 -1.9092  2.4525 -0.7843
28910SOL     OW89361   7.499   3.184   8.759  0.1494  0.5698 -0.4099
28910SOL    HW189362   7.492   3.274   8.730  2.2466  1.1790  0.7807
28910SOL    HW289363   7.477   3.186   8.852  0.8132 -0.0335 -0.2293
28911SOL     OW89364  10.148   3.450  10.295 -0.0349 -0.4098 -0.4417
28911SOL    HW189365  10.226   3.500  10.321 -0.3179 -0.4557  0.5505
28911SOL    HW289366  10.160   3.433  10.202  0.7682  0.2566 -0.4722
28912SOL     OW89367   2.503   9.271   5.567  0.3864 -0.4022  0.0089
28912SOL    HW189368   2.514   9.303   5.656 -0.0654 -0.3783  0.0580
28912SOL    HW289369   2.489   9.350   5.515 -1.7511 -0.5268  0.2762
28913SOL     OW89370  10.287   1.289   4.380  0.1171  0.0236 -0.2887
28913SOL    HW189371  10.197   1.320   4.388  0.7097  1.7484 -0.0642
28913SOL    HW289372  10.299   1.275   4.286 -0.3025 -0.0234 -0.3407
28914SOL     OW89373   3.081   4.374   9.533 -0.3635  0.1717  0.2597
28914SOL    HW189374   3.106   4.466   9.531  0.5125 -0.0458  0.5898
28914SOL    HW289375   3.156   4.330   9.573 -1.4267 -0.4785  1.6118
28915SOL     OW89376   5.075   0.211   6.774 -0.5506 -0.0854  0.0771
28915SOL    HW189377   5.147   0.150   6.754 -0.1373  0.7120 -0.9662
28915SOL    HW289378   5.117   0.281   6.823 -0.9657 -0.4622  0.9911
28916SOL     OW89379   5.724   0.385   4.765 -0.6029  0.2185  0.2356
28916SOL    HW189380   5.731   0.462   4.708  0.5154 -0.0407 -0.0006
28916SOL    HW289381   5.633   0.386   4.796 -1.1297  0.5811 -1.2443
28917SOL     OW89382   9.017   1.530   6.301  0.7321  0.2845  0.6005
28917SOL    HW189383   9.066   1.608   6.275  2.2864 -0.8100  0.0528
28917SOL    HW289384   9.078   1.481   6.357 -1.4382  1.1059  4.0148
28918SOL     OW89385   6.657   3.413   5.969  0.4652 -0.1470  0.0764
28918SOL    HW189386   6.705   3.371   6.040 -1.9854 -0.2169  1.8320
28918SOL    HW289387   6.615   3.341   5.922 -0.7243  0.0556  0.7781
28919SOL     OW89388   1.675   4.809   4.885  0.2956 -0.2669  0.2839
28919SOL    HW189389   1.715   4.778   4.803  0.4144 -0.6132  0.4715
28919SOL    HW289390   1.668   4.731   4.939  2.2326  0.3006  1.4568
28920SOL     OW89391   0.616   4.653   7.264 -0.1630 -0.0017 -0.2405
28920SOL    HW189392   0.615   4.573   7.317 -1.0432  0.0289 -0.2073
28920SOL    HW289393   0.592   4.723   7.325 -1.4846 -0.0059 -0.7215
28921SOL     OW89394   2.102   4.788   8.019  0.1416  0.0683  0.2155
28921SOL    HW189395   2.082   4.882   8.029  1.5557  0.3902  0.1397
28921SOL    HW289396   2.125   4.778   7.926 -0.6052 -0.4917  0.0773
28922SOL     OW89397   4.773   7.734   7.180  0.1963 -0.8242 -0.3697
28922SOL    HW189398   4.727   7.791   7.241 -0.0680 -0.2305 -1.0958
28922SOL    HW289399   4.749   7.645   7.206 -1.1256 -0.5372 -0.5390
28923SOL     OW89400   1.385   2.691   9.393  0.0176  0.1064 -0.2564
28923SOL    HW189401   1.374   2.714   9.485 -1.0855 -0.1562 -0.3111
28923SOL    HW289402   1.375   2.774   9.346  1.0648  0.3251 -0.1251
28924SOL     OW89403   4.217   4.781   7.832  0.6188  0.5373  0.1337
28924SOL    HW189404   4.148   4.828   7.878 -0.3866  1.9283 -2.6134
28924SOL    HW289405   4.297   4.805   7.879 -0.5119  0.0731  2.4558
28925SOL     OW89406   5.527  10.044   6.469  0.0177 -0.3867  0.1154
28925SOL    HW189407   5.582  10.059   6.547 -2.9764  0.4097  2.2465
28925SOL    HW289408   5.454   9.991   6.501 -1.1141 -0.3861 -2.2842
28926SOL     OW89409   1.529   5.955   3.857 -0.0469  0.5688  0.3141
28926SOL    HW189410   1.538   6.050   3.848 -1.3839  0.5616 -1.7453
28926SOL    HW289411   1.617   5.924   3.875  1.0314  1.9395 -2.1322
28927SOL     OW89412   3.373   6.333   5.373 -0.1919  0.2033  0.6408
28927SOL    HW189413   3.467   6.347   5.381  0.1159 -1.3652  0.1563
28927SOL    HW289414   3.365   6.257   5.315 -1.8037  1.3433 -0.7443
28928SOL     OW89415   4.495   5.894   7.510 -0.0595 -0.0644 -0.4918
28928SOL    HW189416   4.431   5.823   7.513  0.2871 -0.3417  1.2734
28928SOL    HW289417   4.442   5.974   7.513 -0.3895 -0.2566 -1.0858
28929SOL     OW89418   9.537   5.882   9.799 -0.3727 -0.3122 -0.1192
28929SOL    HW189419   9.466   5.847   9.853 -0.3827  1.9843  1.4679
28929SOL    HW289420   9.527   5.838   9.715 -3.1890 -0.6324  0.3074
28930SOL     OW89421   2.453   9.550  10.277 -0.0064  0.9142 -0.0969
28930SOL    HW189422   2.408   9.495  10.341  0.3805  0.7290  0.0177
28930SOL    HW289423   2.394   9.623  10.263  0.0343  1.1086  0.6970
28931SOL     OW89424   5.943   7.048   5.902 -0.1564 -0.1634  0.4944
28931SOL    HW189425   5.966   6.997   5.825 -0.7563  1.2477 -0.6793
28931SOL    HW289426   5.940   6.985   5.973  1.0169 -1.4093 -0.5148
28932SOL     OW89427   5.148   2.029   7.404 -0.1455 -0.3396 -0.6023
28932SOL    HW189428   5.077   2.036   7.340  0.7437 -0.9983 -1.7177
28932SOL    HW289429   5.219   2.081   7.365 -0.0804  0.5110  0.6041
28933SOL     OW89430   8.632   7.435   2.486 -0.0707  0.0887 -0.2596
28933SOL    HW189431   8.607   7.433   2.393 -0.9044 -0.1816 -0.0364
28933SOL    HW289432   8.620   7.527   2.511 -0.1973  0.0906 -0.3257
28934SOL     OW89433   0.520   4.784   5.266 -0.0594 -0.7496  0.3914
28934SOL    HW189434   0.443   4.749   5.311  0.3982 -1.2872  0.7758
28934SOL    HW289435   0.595   4.747   5.314  0.4547  1.0876  1.0810
28935SOL     OW89436   6.762  10.315   8.722 -0.5066  0.1670 -0.6987
28935SOL    HW189437   6.848  10.288   8.754 -0.1282  2.4904  0.5234
28935SOL    HW289438   6.706  10.239   8.734  0.4529 -0.1995  2.3931
28936SOL     OW89439   6.043   4.198   2.344  0.6424  0.7124 -0.3780
28936SOL    HW189440   5.954   4.173   2.367  1.0055 -0.0725  0.2014
28936SOL    HW289441   6.038   4.292   2.328 -0.6253  0.4174 -1.9955
28937SOL     OW89442   6.520   4.597   2.909 -0.3356 -0.3043  0.1036
28937SOL    HW189443   6.510   4.685   2.947  1.7067 -0.0109  0.0687
28937SOL    HW289444   6.549   4.543   2.982  2.9327  0.1129 -0.7117
28938SOL     OW89445   2.476   3.800   3.806 -0.1442  0.2854 -0.4172
28938SOL    HW189446   2.548   3.834   3.753 -0.5662  1.2385 -0.4062
28938SOL    HW289447   2.471   3.707   3.782  1.9710 -0.1537  0.6089
28939SOL     OW89448   4.218   1.587   5.858  0.1352  0.1203  0.0008
28939SOL    HW189449   4.168   1.521   5.810 -0.0806 -0.3833  0.8905
28939SOL    HW289450   4.174   1.669   5.838 -1.6636 -0.3940  1.4365
28940SOL     OW89451   8.600   8.200   2.164 -0.0768  0.0936 -0.7525
28940SOL    HW189452   8.656   8.192   2.241 -0.6444 -2.2803 -0.4938
28940SOL    HW289453   8.555   8.283   2.175 -0.8997 -0.6367  2.0460
28941SOL     OW89454   3.764   3.378   7.276 -0.6714 -0.0503  0.4264
28941SOL    HW189455   3.754   3.301   7.333  0.5577  0.1377  0.9325
28941SOL    HW289456   3.725   3.450   7.326 -2.1155 -0.3744 -0.1846
28942SOL     OW89457   4.086   0.031   4.153 -0.8079 -0.2093  0.2199
28942SOL    HW189458   4.169   0.005   4.193 -0.5514  1.1312  0.6268
28942SOL    HW289459   4.019   0.001   4.214 -0.6444 -1.4425 -0.1890
28943SOL     OW89460   2.681   9.162   4.260 -0.1122 -0.1337  0.0292
28943SOL    HW189461   2.637   9.154   4.344 -0.6209 -2.4732 -0.3650
28943SOL    HW289462   2.616   9.132   4.196  0.8529 -0.1538 -0.9763
28944SOL     OW89463   1.210   0.865   2.768  0.0238  0.2137 -0.2006
28944SOL    HW189464   1.232   0.773   2.784  2.4399  0.7421 -0.1101
28944SOL    HW289465   1.193   0.901   2.854 -0.7856 -0.0938 -0.2225
28945SOL     OW89466   6.494   1.591   8.572  0.1636 -0.0481  1.0072
28945SOL    HW189467   6.549   1.592   8.494  0.9496 -0.0742  1.5588
28945SOL    HW289468   6.516   1.672   8.618 -0.4073  0.0385  1.1370
28946SOL     OW89469   5.386   5.308   7.470 -0.0439  0.4879 -0.1236
28946SOL    HW189470   5.434   5.226   7.461  1.7760  1.4668  0.0144
28946SOL    HW289471   5.320   5.306   7.401  0.3427 -0.8392 -0.4798
28947SOL     OW89472   8.224   2.816   8.239 -0.6151 -0.4150  0.0654
28947SOL    HW189473   8.161   2.873   8.284  1.9916  2.0851  0.8091
28947SOL    HW289474   8.269   2.873   8.177  1.8238 -1.7088  0.5055
28948SOL     OW89475   1.870   8.343   1.874 -0.0384  0.3966  0.0711
28948SOL    HW189476   1.886   8.367   1.966 -0.0768  0.4599  0.0614
28948SOL    HW289477   1.906   8.255   1.866  1.2217  0.9091 -0.2051
28949SOL     OW89478   2.784   3.195   3.465 -0.0766 -0.6816 -0.1645
28949SOL    HW189479   2.830   3.112   3.455 -1.7529 -1.5606 -1.1254
28949SOL    HW289480   2.717   3.193   3.396 -1.6444  0.4404  1.2521
28950SOL     OW89481   0.214   1.984   2.899  0.2881 -0.4736 -0.4333
28950SOL    HW189482   0.302   1.970   2.935  0.2358  2.1309  0.9412
28950SOL    HW289483   0.218   2.071   2.861 -1.6877 -0.3677 -0.4680
28951SOL     OW89484   1.742   7.114   0.816 -0.2354  0.0669  0.4330
28951SOL    HW189485   1.812   7.126   0.880 -2.1357 -0.2449  2.7099
28951SOL    HW289486   1.668   7.163   0.852 -1.5096 -0.4447 -1.3399
28952SOL     OW89487   3.282   5.840   6.612  0.0219 -0.0284 -0.4695
28952SOL    HW189488   3.197   5.859   6.574 -0.6692 -0.9183  0.5664
28952SOL    HW289489   3.338   5.913   6.585 -0.6280 -0.2358 -2.5020
28953SOL     OW89490   6.087  10.230   9.889  0.1417  0.7018  0.3313
28953SOL    HW189491   6.015  10.218   9.952 -0.4974 -0.4812 -0.5745
28953SOL    HW289492   6.161  10.258   9.943 -0.6387  0.6587  1.4768
28954SOL     OW89493   1.645   9.587   0.510 -0.2713 -0.3168  0.6811
28954SOL    HW189494   1.725   9.585   0.562  0.0760 -0.1593  0.1568
28954SOL    HW289495   1.675   9.594   0.419 -0.8479 -1.5193  0.3731
28955SOL     OW89496   1.035   9.126   1.915  0.3279 -0.1980  0.2622
28955SOL    HW189497   0.972   9.056   1.904 -0.3382  0.1742  1.5066
28955SOL    HW289498   1.120   9.082   1.923  0.1557 -0.7361 -0.7887
28956SOL     OW89499   3.509   7.824   4.810 -0.5965 -0.9199 -0.6752
28956SOL    HW189500   3.436   7.854   4.864 -0.0029 -0.3158 -0.2035
28956SOL    HW289501   3.572   7.788   4.872  0.6701  0.9574 -0.7969
28957SOL     OW89502   3.984   8.353   6.842 -0.2027  0.1342 -0.1408
28957SOL    HW189503   3.909   8.297   6.859  0.3056 -0.7534 -0.7474
28957SOL    HW289504   4.038   8.303   6.781 -0.4744  1.9173 -1.9302
28958SOL     OW89505   0.264   1.158  10.349  0.2881 -0.4556 -0.0284
28958SOL    HW189506   0.351   1.193  10.328  0.1430 -1.1577 -2.0251
28958SOL    HW289507   0.215   1.167  10.267 -0.8659 -2.0041  0.4529
28959SOL     OW89508   2.168   9.733   2.208  0.5827  0.0546 -0.2749
28959SOL    HW189509   2.150   9.815   2.163  1.5071  0.8516  0.7419
28959SOL    HW289510   2.262   9.721   2.201  0.4790 -0.8470 -0.2778
28960SOL     OW89511   9.536   0.845   4.413  0.0372 -0.4872 -0.4544
28960SOL    HW189512   9.441   0.838   4.405  0.2059 -1.1125 -2.2001
28960SOL    HW289513   9.552   0.939   4.424 -0.7557 -0.3300 -0.5590
28961SOL     OW89514   9.671   0.344   5.258  0.7434  0.1861  0.5019
28961SOL    HW189515   9.576   0.354   5.270  0.8743  0.4568  1.3958
28961SOL    HW289516   9.686   0.250   5.261  0.4610  0.1191 -0.0300
28962SOL     OW89517   0.788   1.918   6.110  0.3263  0.0413 -0.4019
28962SOL    HW189518   0.738   1.958   6.039 -0.5890 -1.6040 -0.7318
28962SOL    HW289519   0.774   1.975   6.185  0.3517  1.1740 -1.2391
28963SOL     OW89520   2.941   2.218   8.782 -0.6773 -0.5425  0.1615
28963SOL    HW189521   2.899   2.258   8.705 -1.1279 -0.9505  0.1836
28963SOL    HW289522   3.024   2.263   8.790 -1.5770  1.0855  0.7817
28964SOL     OW89523   8.410   5.645   5.681  0.3167 -0.0471 -0.3735
28964SOL    HW189524   8.383   5.558   5.711  0.4884  0.1070  0.2518
28964SOL    HW289525   8.499   5.655   5.714 -0.1754  0.8984  0.7322
28965SOL     OW89526   9.201   3.160   2.270 -0.2827 -0.4597 -0.0463
28965SOL    HW189527   9.148   3.100   2.218 -0.7642 -0.5842  0.5839
28965SOL    HW289528   9.276   3.180   2.214  0.0763 -1.9247 -0.1294
28966SOL     OW89529   8.367   6.791   7.142  0.5537  0.0837 -0.1657
28966SOL    HW189530   8.367   6.886   7.145 -0.3901  0.0903  0.0542
28966SOL    HW289531   8.450   6.765   7.180  1.4339  0.8451 -1.5064
28967SOL     OW89532   7.857   0.900   9.318  0.4892  0.0124 -0.3032
28967SOL    HW189533   7.770   0.930   9.343  0.0226 -1.5233 -0.0056
28967SOL    HW289534   7.891   0.858   9.397  2.1748  1.9629  0.1069
28968SOL     OW89535   8.435   4.535   0.213  0.5056 -0.1121  0.6928
28968SOL    HW189536   8.481   4.459   0.248  0.5685 -1.0793 -1.3043
28968SOL    HW289537   8.503   4.601   0.200  0.3208  0.6457  3.2024
28969SOL     OW89538   3.674   4.270   5.615  0.3432 -0.0792  0.1702
28969SOL    HW189539   3.672   4.329   5.539  2.3282  0.0966  0.2010
28969SOL    HW289540   3.595   4.292   5.665 -0.0699  1.0350 -0.9285
28970SOL     OW89541   4.952   8.742   2.404  0.1881 -0.1566 -0.0921
28970SOL    HW189542   5.026   8.751   2.344 -0.3632  0.1685 -0.7239
28970SOL    HW289543   4.888   8.806   2.374  0.4576  1.0048  1.6876
28971SOL     OW89544   5.663   0.368   8.465 -0.1868 -0.3050  0.6392
28971SOL    HW189545   5.572   0.387   8.486 -0.8084 -0.2688 -1.8400
28971SOL    HW289546   5.681   0.417   8.385  1.2621 -2.1730 -0.2792
28972SOL     OW89547   8.543   1.547   1.261  0.3665  0.3896  0.0380
28972SOL    HW189548   8.515   1.494   1.187 -1.0854  1.3402 -0.1479
28972SOL    HW289549   8.635   1.524   1.275 -0.1712 -2.0713 -0.0860
28973SOL     OW89550   1.718   4.962   1.072  0.1452  0.0202 -0.0592
28973SOL    HW189551   1.688   4.972   0.981  0.6634  0.0085 -0.2340
28973SOL    HW289552   1.778   5.035   1.086  1.6548 -1.0950 -0.3943
28974SOL     OW89553   8.518   3.208   1.844 -0.2061 -0.6868  0.2901
28974SOL    HW189554   8.508   3.119   1.810 -1.6815 -0.7354  0.7853
28974SOL    HW289555   8.480   3.264   1.776 -1.3301 -0.6253  0.9538
28975SOL     OW89556   7.597   0.105   0.211  0.5943  0.0023  0.0428
28975SOL    HW189557   7.612   0.126   0.304  0.6302  0.5490 -0.0833
28975SOL    HW289558   7.505   0.079   0.207  0.5703  0.0568  0.2187
28976SOL     OW89559  10.283   4.619   7.714  0.1982  0.2124  0.2470
28976SOL    HW189560  10.299   4.542   7.768 -0.6737 -0.0366  0.1590
28976SOL    HW289561  10.300   4.590   7.624 -2.9277 -0.7573 -0.1366
28977SOL     OW89562   4.491   8.809   6.577 -0.0572 -0.2730 -0.3676
28977SOL    HW189563   4.408   8.828   6.620  0.1577 -1.8549  0.8386
28977SOL    HW289564   4.515   8.721   6.608  1.7720 -0.0970 -1.1411
28978SOL     OW89565   5.448   3.653   9.951  0.2317 -0.1946  0.3660
28978SOL    HW189566   5.500   3.596  10.008  1.3135  1.5324  1.1794
28978SOL    HW289567   5.412   3.719  10.010 -0.6105  0.2596 -0.6226
28979SOL     OW89568   7.861  10.288   6.296  0.3032 -0.1175 -0.5600
28979SOL    HW189569   7.896  10.362   6.245 -0.6761  0.0088 -1.0796
28979SOL    HW289570   7.856  10.321   6.386  0.4973  0.2256 -0.6737
28980SOL     OW89571   9.950   6.994   2.917 -0.1632  0.2963 -0.5286
28980SOL    HW189572  10.035   6.953   2.904 -0.1823  0.6352 -1.7842
28980SOL    HW289573   9.948   7.067   2.855 -1.0477  0.7974  0.0599
28981SOL     OW89574   0.919   2.227   9.012 -0.5296 -0.2043  0.4303
28981SOL    HW189575   0.912   2.288   9.085  0.9357 -2.4550  2.6056
28981SOL    HW289576   1.011   2.201   9.011 -0.7608 -1.1605 -1.4816
28982SOL     OW89577   0.587   1.965   2.396 -0.3268  0.0407  0.7990
28982SOL    HW189578   0.542   1.885   2.370 -1.6941  1.2737 -0.8865
28982SOL    HW289579   0.595   2.016   2.315 -0.5781  2.1148  2.0041
28983SOL     OW89580   4.660   1.257   3.434 -0.2740 -0.1911  0.3912
28983SOL    HW189581   4.735   1.250   3.493 -1.6640 -1.2588  2.1307
28983SOL    HW289582   4.648   1.351   3.421  1.0685  0.0018  0.4671
28984SOL     OW89583   8.248   2.007   8.953  0.3232  0.1850 -0.1380
28984SOL    HW189584   8.204   2.023   9.037 -0.6494 -1.9519 -0.1594
28984SOL    HW289585   8.313   1.940   8.973 -0.6634 -1.1652 -1.2391
28985SOL     OW89586   1.566   8.473   7.746  0.3489 -0.5093 -0.4661
28985SOL    HW189587   1.603   8.542   7.690 -1.0440 -0.4121 -1.3252
28985SOL    HW289588   1.593   8.496   7.834  0.4411  0.7915 -0.8178
28986SOL     OW89589   8.370   7.431   0.416 -0.9248  0.3223 -0.7124
28986SOL    HW189590   8.275   7.420   0.427 -1.1676  1.1742 -1.8014
28986SOL    HW289591   8.380   7.520   0.384  0.1852 -0.0108 -1.3372
28987SOL     OW89592   1.585   8.441   0.634 -0.1189 -0.1494  0.5674
28987SOL    HW189593   1.501   8.395   0.642 -0.5671  0.7014  0.9371
28987SOL    HW289594   1.594   8.457   0.540  0.6025 -1.9551  0.2864
28988SOL     OW89595   0.447   5.766   3.503  1.0147 -0.2395  0.6216
28988SOL    HW189596   0.499   5.688   3.522 -1.5775 -2.5252 -1.0037
28988SOL    HW289597   0.435   5.765   3.408 -1.1656  0.7194  0.8377
28989SOL     OW89598   1.055   8.014   5.492 -0.1120  0.5505  0.1237
28989SOL    HW189599   0.962   7.994   5.508 -0.4981  0.6545 -1.7107
28989SOL    HW289600   1.068   8.101   5.530 -0.3338 -0.0723  1.7264
28990SOL     OW89601   1.576   0.709   4.071 -0.4587  0.0969 -0.0546
28990SOL    HW189602   1.494   0.670   4.039  0.0999 -0.1656 -1.2052
28990SOL    HW289603   1.563   0.803   4.059 -0.6364  0.0678 -0.0998
28991SOL     OW89604   9.264   1.845  10.181  0.2695 -0.2138 -0.0316
28991SOL    HW189605   9.322   1.789  10.233  0.3742 -0.1388 -0.0691
28991SOL    HW289606   9.183   1.794  10.173 -0.0959  0.1739  1.0124
28992SOL     OW89607   3.765   7.996   6.467  0.4429 -0.3432  0.0544
28992SOL    HW189608   3.842   7.979   6.521  0.1326 -0.7947  0.3597
28992SOL    HW289609   3.753   7.916   6.416  0.4772 -0.0822 -0.3770
28993SOL     OW89610   0.356   4.234   6.583 -0.0294 -0.1174  0.4024
28993SOL    HW189611   0.338   4.312   6.531 -1.3933  0.1110  1.1861
28993SOL    HW289612   0.345   4.161   6.521 -0.4212  0.2236  0.0644
28994SOL     OW89613   9.455   4.366   9.071 -0.0861 -0.0275 -0.5037
28994SOL    HW189614   9.405   4.288   9.051 -0.5705 -0.5400  2.2430
28994SOL    HW289615   9.535   4.358   9.019 -1.0026 -1.3168 -1.7679
28995SOL     OW89616   4.952   0.241   7.965 -0.2045 -0.7529  0.3993
28995SOL    HW189617   4.912   0.164   8.006 -1.1736 -1.2708 -1.4157
28995SOL    HW289618   4.920   0.239   7.875  2.0090  0.2095 -0.4767
28996SOL     OW89619   4.394   2.363   1.555 -0.5996 -0.1458  0.3046
28996SOL    HW189620   4.420   2.370   1.647  2.9175 -3.0624 -0.2266
28996SOL    HW289621   4.462   2.411   1.508 -0.3308 -1.6166 -0.8649
28997SOL     OW89622   3.209   3.532   0.603 -0.3634  0.0345  0.3051
28997SOL    HW189623   3.206   3.449   0.650 -0.9891 -0.1751 -0.0838
28997SOL    HW289624   3.194   3.508   0.511 -1.8975  0.6952  0.3549
28998SOL     OW89625   1.725   0.138   3.751  0.2280 -0.0119 -0.4253
28998SOL    HW189626   1.633   0.152   3.774  0.6278  1.9566  0.1756
28998SOL    HW289627   1.729   0.048   3.718 -1.8656 -0.1834 -0.2955
28999SOL     OW89628   6.416   6.067   3.820  0.1296 -0.1585 -0.3964
28999SOL    HW189629   6.377   5.999   3.766  0.5115 -0.3113 -0.4806
28999SOL    HW289630   6.510   6.046   3.822  0.1505 -0.0353  0.1489
29000SOL     OW89631   2.451   1.888   8.671  0.1144  0.1262  0.3403
29000SOL    HW189632   2.381   1.846   8.721  0.1412  0.6978  0.8605
29000SOL    HW289633   2.481   1.819   8.611 -0.2044 -0.4361  0.8124
29001SOL     OW89634   2.062   5.194   3.106  0.3833  0.3141  0.1159
29001SOL    HW189635   1.989   5.254   3.123  0.0554  0.2342 -0.9323
29001SOL    HW289636   2.023   5.107   3.110  0.6099  0.2246  0.4175
29002SOL     OW89637   4.342   1.736   1.277  0.3324 -0.6374 -0.0288
29002SOL    HW189638   4.403   1.663   1.288  2.5872  0.9807 -1.1429
29002SOL    HW289639   4.390   1.813   1.308 -2.1275  0.3961  1.5206
29003SOL     OW89640   0.099  10.017   8.554 -0.2137  0.1494  0.0422
29003SOL    HW189641   0.038   9.947   8.530  0.9674 -0.9152  0.0441
29003SOL    HW289642   0.125  10.056   8.471  0.8903 -0.9665 -0.1651
29004SOL     OW89643   6.775   5.144   8.311 -1.1699  1.0437 -0.1270
29004SOL    HW189644   6.763   5.213   8.246 -1.1424  0.3965 -0.8223
29004SOL    HW289645   6.706   5.081   8.292 -1.0939  0.7930  0.4068
29005SOL     OW89646   0.210   2.187   8.179  0.3815  0.1525 -0.0004
29005SOL    HW189647   0.247   2.207   8.093 -0.0529 -0.2858 -0.2902
29005SOL    HW289648   0.215   2.270   8.226  1.3709  0.1983 -0.1645
29006SOL     OW89649   1.033   2.939   1.513  0.2747  0.3073 -0.7920
29006SOL    HW189650   0.977   2.958   1.438 -1.2244  0.1702  0.2433
29006SOL    HW289651   0.998   2.992   1.584 -1.8552 -3.3934  1.2681
29007SOL     OW89652   5.709   7.963   5.910 -0.4102 -0.4008  0.0957
29007SOL    HW189653   5.620   7.983   5.939 -0.1707  0.1211  0.4973
29007SOL    HW289654   5.762   7.974   5.989 -0.1671 -2.0648  0.1968
29008SOL     OW89655   1.823   8.264  10.211  0.2523 -0.1393  0.1208
29008SOL    HW189656   1.878   8.237  10.138  0.2133  2.5662 -0.9951
29008SOL    HW289657   1.782   8.182  10.241  0.6272 -1.4033 -2.5444
29009SOL     OW89658   1.274   9.523   2.653  0.1938  0.2176 -0.2398
29009SOL    HW189659   1.346   9.463   2.669 -0.0547  0.5397  2.5529
29009SOL    HW289660   1.196   9.476   2.682 -0.1081  1.4776  1.1661
29010SOL     OW89661   1.613   5.208   9.049  0.0509  0.5858 -0.1889
29010SOL    HW189662   1.632   5.247   8.964 -2.7077 -0.3413 -1.3657
29010SOL    HW289663   1.558   5.272   9.093 -0.3556  0.1483 -0.0473
29011SOL     OW89664   5.598   4.529   5.180 -0.1168  0.2649 -0.3333
29011SOL    HW189665   5.624   4.488   5.097 -1.7004 -0.7801 -0.3536
29011SOL    HW289666   5.533   4.595   5.155 -0.4739  0.0659  0.0567
29012SOL     OW89667   1.306   6.771   8.995 -0.3821 -0.2621 -0.4887
29012SOL    HW189668   1.372   6.714   8.956  1.5450  0.7682  1.0864
29012SOL    HW289669   1.231   6.765   8.936  1.6142 -0.3526 -3.1791
29013SOL     OW89670   2.054   3.015   5.235 -0.1188 -0.2623  0.4855
29013SOL    HW189671   2.149   3.009   5.228 -0.1555 -0.0055 -0.3527
29013SOL    HW289672   2.036   3.108   5.240 -0.3450 -0.2944  0.2851
29014SOL     OW89673   6.874   5.648   5.288  0.4972  0.3750 -0.3156
29014SOL    HW189674   6.786   5.616   5.307  0.9724 -3.8479 -3.7346
29014SOL    HW289675   6.863   5.703   5.210  0.8907 -0.5406 -1.0289
29015SOL     OW89676   0.327   7.052   2.057 -0.1416  0.1967 -0.1408
29015SOL    HW189677   0.361   6.971   2.097 -0.8032 -0.7025 -1.3561
29015SOL    HW289678   0.399   7.114   2.066  0.5037 -0.6169  0.5221
29016SOL     OW89679   4.272   2.157   2.834 -0.2174  0.6974  0.0689
29016SOL    HW189680   4.310   2.244   2.831  0.0584  0.5590 -0.5753
29016SOL    HW289681   4.335   2.105   2.884 -0.8940  1.0993  1.4014
29017SOL     OW89682   8.642   6.709   9.858 -0.4375 -0.7737  0.0103
29017SOL    HW189683   8.669   6.619   9.844  1.1848 -0.5087  1.1477
29017SOL    HW289684   8.723   6.760   9.853 -0.8011  0.2008  2.4998
29018SOL     OW89685   2.051   3.186   1.888  0.2643  0.3244 -0.2864
29018SOL    HW189686   2.035   3.093   1.905 -0.0576  0.8940  3.3725
29018SOL    HW289687   2.134   3.188   1.841 -0.4282 -1.8160 -1.7483
29019SOL     OW89688   4.343   8.810   5.849 -0.6092  0.1133 -0.3381
29019SOL    HW189689   4.412   8.774   5.793 -0.0947  2.1440 -1.0773
29019SOL    HW289690   4.389   8.846   5.924 -1.2829 -2.3944  1.4138
29020SOL     OW89691   3.734   9.567   6.133  0.5755 -0.2466  0.1809
29020SOL    HW189692   3.685   9.649   6.138  0.4771 -0.0469 -2.4913
29020SOL    HW289693   3.823   9.591   6.159  0.3064  0.4425  0.4919
29021SOL     OW89694   0.897   0.353   6.685  0.2986 -0.8813 -0.2399
29021SOL    HW189695   0.853   0.381   6.765 -0.0315 -2.2762  0.0922
29021SOL    HW289696   0.889   0.257   6.685  1.4484 -1.0072 -1.2739
29022SOL     OW89697  10.214   5.190   2.887  0.3231 -0.0220 -0.1485
29022SOL    HW189698  10.266   5.111   2.874 -0.4417 -0.5630 -0.0322
29022SOL    HW289699  10.170   5.175   2.971  1.9007  1.5297  1.0232
29023SOL     OW89700   1.283   8.259   3.245 -0.2348 -0.3810 -0.1049
29023SOL    HW189701   1.327   8.254   3.160 -0.4564 -0.3149 -0.2237
29023SOL    HW289702   1.354   8.261   3.309 -0.0440  0.6714 -0.3355
29024SOL     OW89703   5.056   1.609   6.059 -0.0409 -0.0020 -0.0593
29024SOL    HW189704   5.078   1.565   6.141 -0.3929  1.2351  0.7360
29024SOL    HW289705   4.982   1.559   6.024  0.3659 -0.7785  0.1715
29025SOL     OW89706   2.280   8.520   1.630 -0.1003 -0.0776 -0.2615
29025SOL    HW189707   2.290   8.425   1.618  1.2423 -0.0464  0.4440
29025SOL    HW289708   2.185   8.533   1.633 -0.3112 -1.5472  0.6342
29026SOL     OW89709   0.673   6.169   9.504  0.8085  0.1741  0.1103
29026SOL    HW189710   0.607   6.151   9.436  0.9982  0.8029 -0.2471
29026SOL    HW289711   0.751   6.197   9.455  0.4466  2.2657  0.6178
29027SOL     OW89712   9.359   8.614   2.554  0.2485 -0.1337 -0.2289
29027SOL    HW189713   9.280   8.560   2.546 -0.6254  1.0445  0.0910
29027SOL    HW289714   9.430   8.551   2.565 -0.6649 -1.2252 -0.3286
29028SOL     OW89715   3.653   9.811   5.200  0.2378 -0.0376 -0.1473
29028SOL    HW189716   3.617   9.884   5.149  0.6872  0.9898  0.9553
29028SOL    HW289717   3.747   9.813   5.182  0.2880 -0.1708  0.0942
29029SOL     OW89718   6.778   6.094   1.590 -0.6073  0.4644  0.2897
29029SOL    HW189719   6.858   6.094   1.641  0.5193 -0.4583 -1.3808
29029SOL    HW289720   6.751   6.002   1.586 -0.9176  0.5729 -0.3605
29030SOL     OW89721   4.408   3.817   6.083  0.4052 -0.2840 -0.3002
29030SOL    HW189722   4.318   3.809   6.115  0.1803 -2.1889 -1.2525
29030SOL    HW289723   4.398   3.832   5.989  0.9996 -3.2370 -0.9415
29031SOL     OW89724   3.588   2.778   0.302 -0.3020  0.2345 -0.4820
29031SOL    HW189725   3.652   2.715   0.269 -0.1726  0.1009  0.0264
29031SOL    HW289726   3.504   2.733   0.294 -0.2974  0.2881 -0.8426
29032SOL     OW89727   3.721   1.229   3.777 -0.3850 -0.1154 -0.7226
29032SOL    HW189728   3.792   1.278   3.818 -0.3638  0.6518 -1.6402
29032SOL    HW289729   3.716   1.147   3.826  2.2445 -0.9303 -1.6355
29033SOL     OW89730   2.484   2.434   9.468 -0.1097 -0.0289  0.7586
29033SOL    HW189731   2.502   2.527   9.482  1.0074 -0.0398 -0.4514
29033SOL    HW289732   2.565   2.399   9.431 -0.6937 -1.3751  0.7083
29034SOL     OW89733   8.118   6.387   7.996  0.0555 -0.0762 -0.5115
29034SOL    HW189734   8.044   6.329   7.984  0.9016 -1.3681  0.2361
29034SOL    HW289735   8.194   6.336   7.968  0.7248  1.0237 -0.7717
29035SOL     OW89736   9.500   0.562   9.203 -0.5951  0.7657 -0.1619
29035SOL    HW189737   9.488   0.469   9.224  0.0238 -0.0559 -2.9948
29035SOL    HW289738   9.419   0.603   9.231 -1.3733 -0.8447  0.0822
29036SOL     OW89739  10.117   1.481   2.694 -0.8764 -0.5386  0.0473
29036SOL    HW189740  10.201   1.523   2.708 -1.8276  1.8881 -0.9789
29036SOL    HW289741  10.094   1.444   2.779  0.9913 -0.8657  0.4414
29037SOL     OW89742   2.937   3.812   6.713  0.5623 -0.4457 -0.1815
29037SOL    HW189743   3.023   3.854   6.718  0.6364 -0.5698 -0.4005
29037SOL    HW289744   2.951   3.736   6.657  0.2716 -0.3748 -0.3501
29038SOL     OW89745   6.027   0.950   7.954 -0.2909 -0.0342  0.0836
29038SOL    HW189746   5.936   0.959   7.926  0.2617 -0.4442 -2.0572
29038SOL    HW289747   6.061   0.878   7.900  1.2897  0.0651  0.8868
29039SOL     OW89748   3.389   5.553   8.722 -0.3023  0.4921 -0.5253
29039SOL    HW189749   3.446   5.606   8.778 -1.1783  1.4129 -0.4748
29039SOL    HW289750   3.371   5.610   8.646 -1.9029  0.5990 -0.1021
29040SOL     OW89751   3.987  10.240   2.356  0.1314  0.0563  0.5889
29040SOL    HW189752   4.067  10.293   2.355 -0.6699  1.4041  2.3205
29040SOL    HW289753   4.010  10.161   2.307  2.0710  1.0196 -0.1636
29041SOL     OW89754   2.732  10.197   7.142 -0.3890  0.4840  0.5600
29041SOL    HW189755   2.757  10.288   7.150  0.8005  0.1035  1.4625
29041SOL    HW289756   2.814  10.150   7.126 -0.8915 -0.4867  0.7057
29042SOL     OW89757   4.852   6.945   9.178  0.6721 -0.2224 -0.5158
29042SOL    HW189758   4.879   6.864   9.135  2.0206 -1.2125  1.9861
29042SOL    HW289759   4.933   6.979   9.217 -0.6703 -0.2690  2.5277
29043SOL     OW89760   0.864   0.500   3.785 -0.3070 -0.0070 -0.1672
29043SOL    HW189761   0.841   0.587   3.754 -0.3226  0.6128  1.4899
29043SOL    HW289762   0.789   0.472   3.837  1.2317  0.6883  2.6099
29044SOL     OW89763   3.605   3.268   6.080 -0.3829  0.5119 -0.0315
29044SOL    HW189764   3.651   3.349   6.058 -0.2242  0.6535  0.8125
29044SOL    HW289765   3.600   3.221   5.996 -0.3921  1.3371 -0.5088
29045SOL     OW89766   3.797   4.858   6.670  0.0860 -0.1828  0.7563
29045SOL    HW189767   3.747   4.910   6.606 -1.4641 -1.4899  0.8557
29045SOL    HW289768   3.873   4.913   6.691 -0.4423  1.1556 -0.6564
29046SOL     OW89769   7.285   4.263   9.001 -0.5041 -0.0715  0.3146
29046SOL    HW189770   7.239   4.266   8.917 -0.3539 -1.3341  0.1700
29046SOL    HW289771   7.348   4.191   8.992  0.8990  1.0269  0.8266
29047SOL     OW89772   3.920   1.585   3.652 -0.2703  0.0534 -0.5525
29047SOL    HW189773   3.840   1.613   3.608 -0.9333 -1.3309 -0.2870
29047SOL    HW289774   3.990   1.635   3.610 -1.3339  1.8167 -0.2994
29048SOL     OW89775   6.575   4.534   1.631 -0.0155 -0.3626  0.1665
29048SOL    HW189776   6.587   4.440   1.620  0.5920 -0.2303 -0.3644
29048SOL    HW289777   6.659   4.572   1.606 -0.5178  0.3782 -0.4366
29049SOL     OW89778   6.192   2.094   9.532 -0.3380 -0.0218  0.3334
29049SOL    HW189779   6.240   2.120   9.611  3.4379 -2.0803 -1.0328
29049SOL    HW289780   6.246   2.125   9.459 -1.8094 -1.3562 -1.4273
29050SOL     OW89781   1.999   2.864   1.951  0.1290 -0.1723 -0.1466
29050SOL    HW189782   2.046   2.837   1.872  0.4363 -0.5179  0.1509
29050SOL    HW289783   1.908   2.836   1.935 -0.0145  0.6436 -0.7874
29051SOL     OW89784   1.819   9.402   6.848  0.0138  0.7183  0.1436
29051SOL    HW189785   1.844   9.309   6.850 -1.7801  0.1581 -0.8727
29051SOL    HW289786   1.884   9.443   6.791 -0.8639 -0.5555 -1.8885
29052SOL     OW89787   5.835   4.232   4.047  0.3326  0.4150  0.6638
29052SOL    HW189788   5.834   4.176   3.970  0.2540  1.6035 -0.2289
29052SOL    HW289789   5.864   4.175   4.118  0.0208 -0.7992 -0.1562
29053SOL     OW89790   0.981   8.826   9.729  0.4016  0.0336 -0.6217
29053SOL    HW189791   0.976   8.915   9.764 -0.1019  0.5791 -1.9898
29053SOL    HW289792   1.070   8.818   9.695  0.6968 -0.2743  0.2216
29054SOL     OW89793   2.830   8.186   1.838  0.0663 -0.3723 -0.4051
29054SOL    HW189794   2.825   8.142   1.923  0.9246 -1.0642 -0.6918
29054SOL    HW289795   2.747   8.166   1.796 -0.2102 -0.3476  0.1211
29055SOL     OW89796   4.417   3.552   7.413  0.0782 -0.1353  0.0456
29055SOL    HW189797   4.468   3.613   7.466  1.8786 -0.1131 -1.5995
29055SOL    HW289798   4.417   3.471   7.464  0.4654  0.3135  0.7708
29056SOL     OW89799   3.508   1.409   2.896  0.2046 -0.0050 -0.3367
29056SOL    HW189800   3.445   1.405   2.967 -0.7422  1.2771 -1.0634
29056SOL    HW289801   3.544   1.321   2.891 -1.9267 -0.9407 -0.2441
29057SOL     OW89802   2.582   7.052   7.562 -0.3666 -0.2871 -0.0679
29057SOL    HW189803   2.547   7.141   7.564 -1.1183 -0.5656 -0.4869
29057SOL    HW289804   2.655   7.054   7.623 -1.3769  0.2008  1.1810
29058SOL     OW89805   2.852   6.381   2.296 -0.4417 -0.2382 -0.3757
29058SOL    HW189806   2.882   6.296   2.263 -1.3325 -0.3416 -0.9247
29058SOL    HW289807   2.778   6.360   2.353  0.4552  0.0230  0.9486
29059SOL     OW89808   5.646   7.452   2.795 -0.9635 -0.2823 -0.1443
29059SOL    HW189809   5.617   7.419   2.880 -0.5243 -1.6726 -0.4943
29059SOL    HW289810   5.741   7.448   2.799 -0.8936  0.9099 -0.2501
29060SOL     OW89811   3.310   4.503   3.255  0.5412 -0.1011 -0.0485
29060SOL    HW189812   3.354   4.509   3.170 -0.6672 -0.2707 -0.7121
29060SOL    HW289813   3.296   4.593   3.282  0.5984 -0.0433 -0.2107
29061SOL     OW89814   2.369   7.356   4.728 -0.1148  0.1888 -0.2857
29061SOL    HW189815   2.336   7.326   4.813 -1.1356  1.0195 -0.3701
29061SOL    HW289816   2.338   7.290   4.666  0.9548 -0.6256  0.0132
29062SOL     OW89817   4.022   5.903   5.003  0.0514  0.5337 -0.1320
29062SOL    HW189818   4.084   5.957   5.051 -0.2583  2.2720 -1.5707
29062SOL    HW289819   3.938   5.918   5.046  0.2708 -0.3311  0.6354
29063SOL     OW89820   9.188   3.627   0.055 -0.3843 -0.1324  0.4348
29063SOL    HW189821   9.100   3.642   0.090 -0.0889  0.7898  0.8154
29063SOL    HW289822   9.199   3.694  -0.012  1.2000  1.9817  2.6095
29064SOL     OW89823   0.380   0.803   2.407  0.0218 -0.2883 -0.3361
29064SOL    HW189824   0.313   0.791   2.341  0.2473 -0.4515 -0.5362
29064SOL    HW289825   0.332   0.808   2.490 -0.2443 -0.2751 -0.4911
29065SOL     OW89826   3.751   1.860   6.386 -0.0059 -0.1809 -0.0274
29065SOL    HW189827   3.801   1.830   6.310  0.0879  0.9879 -0.4467
29065SOL    HW289828   3.699   1.932   6.353 -0.7664 -0.3429  0.7914
29066SOL     OW89829   9.595   5.793   9.499  0.1620 -0.4667 -0.2435
29066SOL    HW189830   9.517   5.849   9.499 -2.1588 -3.4085  0.7686
29066SOL    HW289831   9.592   5.749   9.414  3.5007  2.6104 -2.2210
29067SOL     OW89832   4.315   5.344   6.705 -0.5991 -0.2417 -0.0066
29067SOL    HW189833   4.371   5.422   6.706 -1.2532  0.2415  0.0735
29067SOL    HW289834   4.373   5.272   6.683  0.0670  0.2362  0.1752
29068SOL     OW89835  10.274   1.916   6.402  0.0114 -0.4211  0.3584
29068SOL    HW189836  10.350   1.858   6.404  1.0487  0.9020  0.5980
29068SOL    HW289837  10.268   1.945   6.311 -1.8331 -2.5138 -0.2862
29069SOL     OW89838   0.270   7.909   4.077  0.1088 -0.3429 -0.2214
29069SOL    HW189839   0.191   7.928   4.026  0.6780  0.9051 -0.6874
29069SOL    HW289840   0.245   7.927   4.168 -0.6394 -1.6623 -0.1493
29070SOL     OW89841   8.333   1.336   7.388 -0.1471 -0.7502 -0.1327
29070SOL    HW189842   8.370   1.416   7.350  0.5554 -0.2676  1.4700
29070SOL    HW289843   8.279   1.300   7.318  0.4515  0.4900 -1.3107
29071SOL     OW89844   2.184   4.163   6.043  0.4308  0.3302  0.2185
29071SOL    HW189845   2.250   4.179   6.110  0.5218 -0.8849  0.4582
29071SOL    HW289846   2.135   4.087   6.076 -0.7592  0.9007 -0.1928
29072SOL     OW89847  10.334   9.600   2.212 -0.4455  0.1694  0.7472
29072SOL    HW189848  10.394   9.659   2.166 -0.1803  0.7404  1.8121
29072SOL    HW289849  10.391   9.540   2.260 -0.7166  0.6906  1.7337
29073SOL     OW89850   9.748   4.780   0.344  0.2400 -0.6013 -0.1834
29073SOL    HW189851   9.833   4.801   0.383  0.3885 -1.2164 -0.1750
29073SOL    HW289852   9.684   4.813   0.407  0.4700 -0.3076 -0.1002
29074SOL     OW89853   0.421   8.944   4.460  0.2513 -0.0021 -0.5292
29074SOL    HW189854   0.465   8.886   4.397 -0.2843 -1.6886  0.5697
29074SOL    HW289855   0.468   9.027   4.452  1.2504 -0.6466 -1.9689
29075SOL     OW89856   4.730   6.222   3.324  0.0707  0.3601  0.2636
29075SOL    HW189857   4.698   6.276   3.252 -0.7188  0.3803  0.6141
29075SOL    HW289858   4.825   6.228   3.319  0.1628 -1.3770 -2.1241
29076SOL     OW89859   7.707   4.406   7.566 -0.4909 -0.0307 -0.9169
29076SOL    HW189860   7.749   4.461   7.499  0.7771 -0.5945 -0.6306
29076SOL    HW289861   7.617   4.436   7.569 -0.4988  0.2353 -2.6444
29077SOL     OW89862  10.006   0.224   5.278  0.0448  0.4078 -0.0236
29077SOL    HW189863   9.949   0.272   5.218  1.6310  1.0034 -1.1100
29077SOL    HW289864  10.054   0.292   5.325 -0.6626 -0.0659  1.4769
29078SOL     OW89865   7.740   5.843   9.100  0.1605  0.2143  0.0999
29078SOL    HW189866   7.726   5.937   9.086 -0.4384  0.2029  0.5858
29078SOL    HW289867   7.658   5.802   9.072  0.5207 -0.1983 -0.3756
29079SOL     OW89868   9.606   6.963   4.552 -0.4989 -0.2265 -0.3805
29079SOL    HW189869   9.545   7.030   4.582 -1.8100 -1.1687 -0.8894
29079SOL    HW289870   9.649   7.002   4.476 -2.9327 -0.7379 -2.1347
29080SOL     OW89871   2.767  10.027   2.473  0.0624  0.5022  0.6438
29080SOL    HW189872   2.714  10.005   2.396  0.8836  1.5231 -0.2556
29080SOL    HW289873   2.807   9.944   2.500  0.0542  0.1923 -0.2672
29081SOL     OW89874   3.202   7.321   1.898  0.4868  0.1736 -0.4627
29081SOL    HW189875   3.109   7.320   1.921  0.2718  1.2312 -1.2555
29081SOL    HW289876   3.220   7.231   1.869  0.0458 -0.3832  0.8907
29082SOL     OW89877   2.683   3.899   8.974  1.0671 -0.2726 -0.0741
29082SOL    HW189878   2.701   3.825   8.916  2.2135 -0.4973  0.5266
29082SOL    HW289879   2.657   3.970   8.915  1.1208 -0.8163 -0.7652
29083SOL     OW89880   9.763   6.528   7.903 -0.1916 -0.0620  0.2765
29083SOL    HW189881   9.739   6.559   7.990 -0.6404  0.7958 -0.1334
29083SOL    HW289882   9.836   6.584   7.877 -1.3923  1.1031 -0.7133
29084SOL     OW89883   2.556   8.853   3.711  0.2525  0.0680 -0.2826
29084SOL    HW189884   2.570   8.764   3.678 -0.7302 -0.6497  1.1190
29084SOL    HW289885   2.633   8.870   3.766 -0.2714 -0.5432  0.6705
29085SOL     OW89886   0.165   6.189   4.457 -0.3057  0.1188 -0.1932
29085SOL    HW189887   0.208   6.274   4.457  2.8901 -1.3583  0.5340
29085SOL    HW289888   0.112   6.190   4.537 -0.7929  1.6069 -0.5066
29086SOL     OW89889   3.165   5.664   2.643 -0.7489 -0.0870  0.4498
29086SOL    HW189890   3.201   5.724   2.707 -0.2942 -1.5559  1.6256
29086SOL    HW289891   3.070   5.669   2.655 -0.7794  1.0998 -0.1597
29087SOL     OW89892   1.546  10.075   0.824  0.2034  0.1478  0.1088
29087SOL    HW189893   1.616  10.086   0.887  0.1399 -2.7752  0.8062
29087SOL    HW289894   1.558   9.987   0.788 -2.6143 -0.1688 -0.3245
29088SOL     OW89895   5.300   9.760   7.964 -0.2794 -0.0972 -0.1679
29088SOL    HW189896   5.253   9.779   8.045 -1.0717  1.6881 -0.9827
29088SOL    HW289897   5.390   9.789   7.981 -0.4788  0.4070  0.0338
29089SOL     OW89898   8.323   3.446   9.014 -0.1592  0.4527 -0.2782
29089SOL    HW189899   8.397   3.443   9.075 -0.7696  1.3007  0.5249
29089SOL    HW289900   8.246   3.430   9.068 -0.6197  0.1540 -1.0107
29090SOL     OW89901   4.760   0.886   6.111  0.0185  0.2178 -0.4298
29090SOL    HW189902   4.799   0.972   6.129 -0.3211  0.5671 -1.2883
29090SOL    HW289903   4.821   0.823   6.150  0.8415  0.8028 -0.7322
29091SOL     OW89904   8.734   8.716   0.814  0.3978  0.1214 -0.2867
29091SOL    HW189905   8.776   8.793   0.776  0.3734  0.7074  0.8378
29091SOL    HW289906   8.650   8.710   0.768 -1.5924  3.3722  2.4540
29092SOL     OW89907   4.190  10.120   9.372 -0.7053  0.7926  0.1918
29092SOL    HW189908   4.266  10.132   9.428 -0.1156  0.4432 -0.5088
29092SOL    HW289909   4.142  10.047   9.411 -0.5551  0.8631  0.5050
29093SOL     OW89910   0.577   9.492   5.835 -0.1965 -0.3548 -0.4745
29093SOL    HW189911   0.598   9.579   5.871 -1.0737 -0.8222  1.3029
29093SOL    HW289912   0.482   9.485   5.844 -0.4394 -0.6528 -2.7156
29094SOL     OW89913   6.429   2.427   0.547  0.4150  0.8798 -0.3803
29094SOL    HW189914   6.342   2.464   0.530 -0.1402 -0.4095 -0.4655
29094SOL    HW289915   6.447   2.371   0.471  0.7385  0.1077  0.2540
29095SOL     OW89916   8.213   5.171   8.270 -1.0351  0.1887 -0.2325
29095SOL    HW189917   8.137   5.113   8.273  0.1015 -1.3805 -0.5383
29095SOL    HW289918   8.287   5.112   8.256  0.4089  1.5203  1.3342
29096SOL     OW89919   1.645   9.094   3.394  0.0574  0.6726 -0.1713
29096SOL    HW189920   1.560   9.065   3.362  0.1330 -0.3030  0.4647
29096SOL    HW289921   1.708   9.045   3.342  0.2120  0.8301 -0.1315
29097SOL     OW89922   7.088   6.972   8.582  0.0728 -0.2209  0.3482
29097SOL    HW189923   7.076   6.902   8.519 -2.2068  0.1656  0.2677
29097SOL    HW289924   7.167   7.018   8.553  0.5966 -1.6752 -0.6018
29098SOL     OW89925   9.906   8.583   9.024 -0.1265 -0.1459 -0.1657
29098SOL    HW189926   9.863   8.668   9.013  0.4542 -0.0441 -1.7980
29098SOL    HW289927   9.838   8.527   9.061 -0.2992  1.1994  1.7187
29099SOL     OW89928   0.034   5.121   0.200  0.3001  0.1000 -0.6233
29099SOL    HW189929  -0.000   5.111   0.111 -1.3468 -0.4969  0.0282
29099SOL    HW289930   0.020   5.213   0.221  0.6846  0.2412 -0.9766
29100SOL     OW89931   9.037   8.587   0.896  0.1437  0.4452 -0.0092
29100SOL    HW189932   8.976   8.654   0.868 -0.2392  0.6982  1.3955
29100SOL    HW289933   9.008   8.508   0.850 -0.3907  0.8610 -0.4016
29101SOL     OW89934   7.128   6.776   9.726  0.2702  0.0799 -0.5257
29101SOL    HW189935   7.119   6.852   9.782 -0.6296  0.2508 -0.8792
29101SOL    HW289936   7.174   6.808   9.649 -0.0162  0.2501 -0.6292
29102SOL     OW89937   9.094   6.080   5.163  0.5702  0.7603  0.0585
29102SOL    HW189938   9.048   6.159   5.135  2.4906  2.0351  0.2844
29102SOL    HW289939   9.098   6.089   5.259 -0.2585 -0.2634  0.2061
29103SOL     OW89940   6.795   5.677   6.969  0.1911  0.6330 -0.7237
29103SOL    HW189941   6.877   5.641   7.003  0.1299  0.3408 -0.8809
29103SOL    HW289942   6.728   5.645   7.030 -0.0339 -0.6197 -1.5822
29104SOL     OW89943   4.544   4.943  10.072  0.9130 -0.1768  0.0883
29104SOL    HW189944   4.548   4.919   9.979 -1.0598  2.4272 -0.7837
29104SOL    HW289945   4.550   5.039  10.072  0.5230 -0.0948  2.6474
29105SOL     OW89946   8.278  10.265   3.414  0.1313 -0.3649 -0.2547
29105SOL    HW189947   8.235  10.346   3.440  0.5770 -0.0548 -0.4636
29105SOL    HW289948   8.223  10.228   3.345  0.2186  0.0480 -0.5475
29106SOL     OW89949   1.620   9.559   8.015  0.0372  0.0123 -0.1576
29106SOL    HW189950   1.569   9.589   7.940  0.1730 -0.3958 -0.4220
29106SOL    HW289951   1.710   9.582   7.993 -0.1148  1.4615  0.6743
29107SOL     OW89952   4.875   9.876   7.414 -0.5248 -0.0597 -0.4131
29107SOL    HW189953   4.937   9.913   7.477  0.8843 -0.1504 -1.6879
29107SOL    HW289954   4.859   9.947   7.352 -1.0954 -0.2993 -0.5469
29108SOL     OW89955   2.900   1.449   7.900 -0.3250 -0.6059  0.7261
29108SOL    HW189956   2.908   1.369   7.848  0.1285 -0.3759  0.4391
29108SOL    HW289957   2.985   1.460   7.942  0.1097  0.5056 -0.3834
29109SOL     OW89958   1.279   2.621   2.043 -0.0339 -0.0098 -0.2842
29109SOL    HW189959   1.370   2.591   2.044  0.4916  1.4428  1.7036
29109SOL    HW289960   1.243   2.590   2.127 -0.4860  1.8700  0.2523
29110SOL     OW89961  10.162   2.614   5.043  0.7306 -0.4581  0.1619
29110SOL    HW189962  10.112   2.570   5.112  1.3318 -0.2431  0.7392
29110SOL    HW289963  10.249   2.574   5.046  0.6767 -0.6701 -0.6863
29111SOL     OW89964   7.318   8.525   8.027  0.2912  0.2438  0.4046
29111SOL    HW189965   7.393   8.583   8.045  0.8582  0.0169 -1.0892
29111SOL    HW289966   7.246   8.585   8.007 -0.0740  0.4742  2.2127
29112SOL     OW89967   3.336   7.284   4.671  0.3869 -0.2713  0.2814
29112SOL    HW189968   3.320   7.285   4.577  2.1202 -0.5291 -0.0513
29112SOL    HW289969   3.291   7.362   4.704  0.2928  0.1631 -0.8441
29113SOL     OW89970   3.708  10.191  10.175 -0.6969 -0.1656  0.0963
29113SOL    HW189971   3.772  10.225  10.112 -0.3879  0.0532  0.5219
29113SOL    HW289972   3.714  10.096  10.168  1.6550 -0.2677  2.0370
29114SOL     OW89973   2.868   3.658   7.558  0.2995  0.4049 -0.6309
29114SOL    HW189974   2.928   3.588   7.583  1.3893  1.5749  0.1736
29114SOL    HW289975   2.781   3.617   7.560  0.8172 -0.7198  0.6057
29115SOL     OW89976   4.948   2.120   6.956  0.4554  0.3946 -0.1777
29115SOL    HW189977   4.867   2.100   6.908  0.5585  0.3039 -0.3141
29115SOL    HW289978   5.018   2.104   6.893  0.6112 -0.0747  0.1136
29116SOL     OW89979   7.467   0.204   8.940 -0.3497  0.5282  0.7152
29116SOL    HW189980   7.466   0.216   9.035  0.8616  2.0874  0.5718
29116SOL    HW289981   7.560   0.198   8.918 -0.6289 -0.1468 -0.3521
29117SOL     OW89982   0.795   1.544   4.135 -0.3197  0.3210 -0.2664
29117SOL    HW189983   0.872   1.586   4.175 -1.5480  0.1457  2.5222
29117SOL    HW289984   0.729   1.613   4.132 -0.2607  0.3398 -2.1806
29118SOL     OW89985   3.309   2.113   9.385  0.4281  0.3377  0.3437
29118SOL    HW189986   3.267   2.197   9.403  0.0853  0.4173 -0.7309
29118SOL    HW289987   3.318   2.071   9.471 -1.8992  0.2994  0.6348
29119SOL     OW89988   1.426   6.285   8.837  0.5524  0.0583  0.0770
29119SOL    HW189989   1.426   6.276   8.742  2.0887 -2.3402  0.2283
29119SOL    HW289990   1.506   6.334   8.857  0.6510 -0.1488  0.1881
29120SOL     OW89991   0.211   9.527   8.621 -0.8605 -0.7918  0.2971
29120SOL    HW189992   0.206   9.619   8.596 -0.0053 -0.7681  0.1810
29120SOL    HW289993   0.164   9.480   8.552 -0.0146 -0.5686 -0.4508
29121SOL     OW89994   3.676   2.800   2.186  0.2245 -0.4197 -0.0376
29121SOL    HW189995   3.672   2.763   2.098  1.3321  0.6377 -0.5712
29121SOL    HW289996   3.594   2.848   2.196  0.6592  0.5919 -1.0561
29122SOL     OW89997   4.503   6.540   9.286  0.1930 -0.2361  0.3528
29122SOL    HW189998   4.468   6.595   9.357 -1.9014 -0.9608 -0.0240
29122SOL    HW289999   4.510   6.453   9.325  3.0964  0.1132  0.8251
29123SOL     OW90000   5.846   6.105   2.519  0.3611  0.2886  0.0222
29123SOL    HW190001   5.852   6.200   2.511  0.6610  0.3895  1.2621
29123SOL    HW290002   5.849   6.089   2.613  2.4160 -1.0911 -0.2357
29124SOL     OW90003  10.200   0.967   3.954 -0.5356 -0.2621  0.4338
29124SOL    HW190004  10.259   0.969   4.030 -0.0798  0.3610  0.0705
29124SOL    HW290005  10.113   0.961   3.992 -0.3618  0.8231  1.0363
29125SOL     OW90006   1.956   5.974   7.934  0.9363  0.0693  0.3020
29125SOL    HW190007   2.029   6.025   7.898  0.8086  0.8575  1.1252
29125SOL    HW290008   1.988   5.945   8.020  0.6251 -0.3697  0.2690
29126SOL     OW90009   0.398   6.359   6.606  0.1229  0.2674 -0.0285
29126SOL    HW190010   0.350   6.418   6.548  0.6821 -0.0862 -0.8669
29126SOL    HW290011   0.468   6.413   6.643 -0.0036  0.3964  0.0222
29127SOL     OW90012   8.435   0.318   2.606 -0.2694 -0.4112  0.3026
29127SOL    HW190013   8.412   0.269   2.685  1.0269 -0.9284  0.3813
29127SOL    HW290014   8.498   0.262   2.560 -0.3364  0.2677 -0.6647
29128SOL     OW90015  10.120   1.451   3.895 -0.2862  0.0198 -0.3781
29128SOL    HW190016  10.089   1.519   3.955 -2.3798 -0.1525 -1.1816
29128SOL    HW290017  10.183   1.496   3.838  1.3554  0.3010  1.5378
29129SOL     OW90018   4.084   8.194  10.355  0.5698 -0.4328  0.3786
29129SOL    HW190019   4.070   8.142  10.434 -1.8703  0.4095  0.5927
29129SOL    HW290020   4.090   8.129  10.285 -0.0922 -1.0985  0.9161
29130SOL     OW90021   6.988   6.429   3.921 -0.2571 -0.2187 -0.9181
29130SOL    HW190022   6.896   6.409   3.940 -0.5881  2.2246  0.5440
29130SOL    HW290023   6.988   6.456   3.830 -1.7133  2.8149 -0.1591
29131SOL     OW90024   1.669   7.937   7.451 -0.5579  0.3072 -0.0085
29131SOL    HW190025   1.671   8.032   7.465 -2.5413  0.5610 -1.0783
29131SOL    HW290026   1.759   7.908   7.468  0.1789  2.4186 -0.0471
29132SOL     OW90027   7.970   3.804   0.400  0.3154 -0.5271  0.0322
29132SOL    HW190028   8.032   3.833   0.332  0.6621 -2.8204 -0.6978
29132SOL    HW290029   8.024   3.755   0.462 -0.5651 -1.4347  0.0945
29133SOL     OW90030   9.913   9.153   4.294  0.0705  0.2617  0.0935
29133SOL    HW190031   9.932   9.188   4.207  1.2219 -1.0464 -0.2216
29133SOL    HW290032   9.824   9.121   4.288  0.3163 -0.2983 -0.7924
29134SOL     OW90033   5.358   3.050   9.404  0.4142  0.3184  0.0424
29134SOL    HW190034   5.269   3.014   9.399  0.5481 -0.0946  0.6264
29134SOL    HW290035   5.349   3.140   9.371 -0.3312  0.4747  0.6428
29135SOL     OW90036   8.506   3.876   6.198  0.2193  0.2201 -0.1841
29135SOL    HW190037   8.421   3.835   6.215  0.7235 -0.8311 -0.1290
29135SOL    HW290038   8.492   3.928   6.119 -0.7262  0.8428  0.3763
29136SOL     OW90039   5.340   7.949   5.289  0.4174 -0.2296  0.6342
29136SOL    HW190040   5.379   8.018   5.235 -0.6233  1.3101  1.7681
29136SOL    HW290041   5.276   7.995   5.344  0.1725 -2.0031  1.9061
29137SOL     OW90042   2.312   9.414   9.838  0.0662 -0.4181 -0.2053
29137SOL    HW190043   2.361   9.360   9.776 -1.0356 -0.7396 -0.8394
29137SOL    HW290044   2.261   9.351   9.890  1.0942 -0.1640  1.1735
29138SOL     OW90045   3.579   1.264   0.181  0.2332  0.4393  0.8465
29138SOL    HW190046   3.623   1.216   0.111  0.7374  1.6028  0.3308
29138SOL    HW290047   3.494   1.288   0.144  0.6284  1.3377  0.4885
29139SOL     OW90048   0.557   1.686   3.008  0.0933  0.7960  0.1406
29139SOL    HW190049   0.639   1.635   3.006  0.6276  1.5624  1.2570
29139SOL    HW290050   0.504   1.648   2.938  1.0386 -0.3321 -0.0062
29140SOL     OW90051   4.146   6.314   2.737  0.5282 -0.4716 -0.0163
29140SOL    HW190052   4.165   6.224   2.711 -1.2437 -0.6809 -0.7552
29140SOL    HW290053   4.104   6.306   2.823  0.5745 -0.3261  0.0202
29141SOL     OW90054   6.080   0.418   3.580 -0.6117 -0.5731 -0.0976
29141SOL    HW190055   6.085   0.411   3.484 -2.8701  0.9943 -0.4196
29141SOL    HW290056   6.025   0.344   3.606 -0.0717 -0.9473 -0.0080
29142SOL     OW90057   2.323   1.733   7.702  0.6572 -0.2176  0.2283
29142SOL    HW190058   2.353   1.766   7.617 -1.0624 -0.9758 -0.7092
29142SOL    HW290059   2.380   1.658   7.720  0.2431 -0.8030 -0.8526
29143SOL     OW90060   9.867   9.598   5.125  0.3033  0.0080  0.6456
29143SOL    HW190061   9.890   9.561   5.210 -0.9214 -4.6142 -0.7964
29143SOL    HW290062   9.773   9.588   5.119  0.3105  0.6943 -1.1362
29144SOL     OW90063   8.751   7.525   1.372 -0.2566  0.2212  0.5242
29144SOL    HW190064   8.788   7.450   1.418  0.8440  0.7714  0.5821
29144SOL    HW290065   8.679   7.489   1.320  0.7030 -1.0009 -0.0112
29145SOL     OW90066   4.158   3.101   4.104 -0.1255 -0.0576  0.3627
29145SOL    HW190067   4.070   3.097   4.141 -0.2156 -0.3448  0.1262
29145SOL    HW290068   4.158   3.181   4.051 -0.0841  0.2050  0.7537
29146SOL     OW90069   2.374   6.391   5.523  0.4991 -0.2012  0.3551
29146SOL    HW190070   2.343   6.310   5.565 -0.9775 -0.1093 -0.5063
29146SOL    HW290071   2.470   6.385   5.529  0.3851 -0.5953  2.9163
29147SOL     OW90072   9.804   4.538   0.777 -0.1672 -0.5883  0.1464
29147SOL    HW190073   9.828   4.452   0.743 -0.4564 -0.1445 -1.2253
29147SOL    HW290074   9.716   4.554   0.742 -0.0478  0.3357  0.2385
29148SOL     OW90075  10.024   4.673   3.148 -0.0282 -0.1968  0.3076
29148SOL    HW190076   9.992   4.755   3.187 -1.5047 -1.7481  2.6070
29148SOL    HW290077   9.982   4.670   3.062 -1.9158  0.3819  1.1460
29149SOL     OW90078   0.103   8.157   3.232  0.1886  0.0846  0.6175
29149SOL    HW190079   0.024   8.136   3.281  0.6254 -1.5121  0.6899
29149SOL    HW290080   0.147   8.223   3.284 -1.3833  1.4726  0.2654
29150SOL     OW90081   9.423   8.491   6.453 -0.1728  0.3708 -0.5556
29150SOL    HW190082   9.369   8.558   6.496 -0.8559 -0.0998 -0.6716
29150SOL    HW290083   9.444   8.529   6.368  1.4150  1.4244  0.2555
29151SOL     OW90084   9.587   2.896   5.284 -0.0238 -0.0598 -0.0496
29151SOL    HW190085   9.550   2.958   5.346  0.3785  1.6945 -1.4604
29151SOL    HW290086   9.677   2.927   5.269  0.5738 -1.6587  0.0384
29152SOL     OW90087   4.180   1.169   6.917  0.4984  0.0066 -0.2132
29152SOL    HW190088   4.144   1.223   6.847 -0.4700 -0.5060 -0.1216
29152SOL    HW290089   4.148   1.081   6.898  2.3853 -0.6457 -0.5923
29153SOL     OW90090   3.718   6.288   0.016  0.1030 -0.3644  0.0970
29153SOL    HW190091   3.710   6.353  -0.055  1.9353 -1.1331 -0.8742
29153SOL    HW290092   3.644   6.308   0.074 -0.2466  1.6464 -0.9194
29154SOL     OW90093   1.219   9.448   9.677  0.0923 -0.1742 -0.4896
29154SOL    HW190094   1.148   9.440   9.741 -0.4150 -0.8385 -1.1228
29154SOL    HW290095   1.226   9.542   9.661  0.0737 -0.0155  0.3614
29155SOL     OW90096   0.130   5.241   0.661 -0.0184 -0.2770 -0.2546
29155SOL    HW190097   0.074   5.318   0.658 -2.1432 -1.7441 -0.6594
29155SOL    HW290098   0.145   5.226   0.754 -0.4269  0.0494 -0.1320
29156SOL     OW90099   5.985  10.226   2.128  0.3364 -1.0561  0.0901
29156SOL    HW190100   6.065  10.248   2.175 -0.6541  0.2401  1.2584
29156SOL    HW290101   5.957  10.142   2.164  1.6635 -2.0152 -1.0342
29157SOL     OW90102   1.701   4.624   1.804 -0.1439 -0.0214  0.3122
29157SOL    HW190103   1.736   4.674   1.731 -0.3428 -0.9186 -0.4234
29157SOL    HW290104   1.610   4.607   1.780  0.4171 -2.3914 -0.4352
29158SOL     OW90105   1.542   3.538   4.683  0.6151 -0.1379 -0.3303
29158SOL    HW190106   1.498   3.457   4.710  0.2064  0.0760 -0.3604
29158SOL    HW290107   1.627   3.534   4.727  0.8490 -0.8877 -0.8248
29159SOL     OW90108   4.082   0.750   0.827  0.2091  0.5055  0.1633
29159SOL    HW190109   4.030   0.702   0.762 -0.3408  1.9066 -0.4596
29159SOL    HW290110   4.018   0.792   0.883  0.6276  2.0005 -0.4235
29160SOL     OW90111   4.666   1.199   9.232  0.2208  0.5716 -0.2346
29160SOL    HW190112   4.641   1.292   9.227 -4.0095 -0.4277 -1.3552
29160SOL    HW290113   4.598   1.159   9.284  0.3206 -2.3640 -2.1533
29161SOL     OW90114   8.528   2.125   4.509  0.5686  0.5107 -0.0659
29161SOL    HW190115   8.494   2.153   4.594  0.6958 -0.7967  0.4241
29161SOL    HW290116   8.469   2.166   4.445 -1.3152 -0.8569  0.7300
29162SOL     OW90117   6.534   6.764   7.575  0.2368  0.2643  0.7805
29162SOL    HW190118   6.454   6.816   7.582 -0.6843 -1.1192  0.7132
29162SOL    HW290119   6.554   6.739   7.665  0.3234  0.2088  0.7456
29163SOL     OW90120   2.806   7.256   8.010 -0.3454 -0.3859 -0.6228
29163SOL    HW190121   2.811   7.178   8.067  1.1018 -1.5803 -2.2647
29163SOL    HW290122   2.871   7.316   8.048  0.6310 -1.1818 -0.9782
29164SOL     OW90123  10.148   5.830   8.459  0.3173 -0.1599 -0.5630
29164SOL    HW190124  10.175   5.899   8.520  1.5191 -0.5011 -0.6991
29164SOL    HW290125  10.064   5.799   8.493  0.5620  0.2411  0.4200
29165SOL     OW90126   4.535   6.937  10.332 -0.8425 -0.4229  0.2986
29165SOL    HW190127   4.516   7.025  10.365 -0.7124 -0.2644 -0.0424
29165SOL    HW290128   4.625   6.943  10.301 -1.6624  0.0639 -2.1397
29166SOL     OW90129   2.549   1.917   4.030 -0.0439 -0.5215 -0.0771
29166SOL    HW190130   2.614   1.985   4.048  0.3974 -0.6927 -0.9384
29166SOL    HW290131   2.560   1.854   4.101 -1.6585  1.1207  1.7441
29167SOL     OW90132   9.037   5.746   1.264  0.4307 -0.3787  0.3072
29167SOL    HW190133   8.982   5.818   1.295 -0.5922 -0.9133 -0.2142
29167SOL    HW290134   9.063   5.773   1.176 -0.4223 -0.8821 -0.1111
29168SOL     OW90135   0.462   6.116   6.131 -0.4712  0.0143 -0.0579
29168SOL    HW190136   0.471   6.165   6.213  0.7268  0.0483 -0.1875
29168SOL    HW290137   0.405   6.043   6.153  2.1870 -1.6946  1.6555
29169SOL     OW90138   9.480   2.211   6.355  0.1544  0.7195  0.2591
29169SOL    HW190139   9.503   2.250   6.271  0.1814 -1.4898 -0.8141
29169SOL    HW290140   9.399   2.254   6.380  1.5283  3.3916  0.5207
29170SOL     OW90141   1.581   1.257   9.868  0.3102  0.4152 -0.5140
29170SOL    HW190142   1.584   1.239   9.774 -0.6009  2.3934 -0.9833
29170SOL    HW290143   1.565   1.352   9.873  1.2531  0.5123  1.6397
29171SOL     OW90144   4.176   7.781   5.736  0.2584 -0.2579  0.0405
29171SOL    HW190145   4.188   7.875   5.723  1.4567 -0.1963  1.3140
29171SOL    HW290146   4.081   7.767   5.726  0.1295  0.9806 -0.6594
29172SOL     OW90147   4.275   9.818   8.646 -0.1261  0.2924 -0.1218
29172SOL    HW190148   4.312   9.794   8.561  0.0417 -0.3978  0.1407
29172SOL    HW290149   4.186   9.783   8.644 -0.6046  1.4727 -0.5377
29173SOL     OW90150   4.888   4.846  10.209  0.1486  0.2696  0.3051
29173SOL    HW190151   4.815   4.907  10.220  0.1700  0.1114  1.4930
29173SOL    HW290152   4.914   4.824  10.299  0.6854 -0.8394 -0.1056
29174SOL     OW90153   5.489   2.578   7.787 -0.4681 -0.2262 -0.2053
29174SOL    HW190154   5.515   2.663   7.824  1.5710 -0.6660 -0.5386
29174SOL    HW290155   5.394   2.585   7.776 -0.6283  1.2528  1.6762
29175SOL     OW90156   3.418   4.642   5.806 -0.3455  0.6346 -0.5863
29175SOL    HW190157   3.463   4.700   5.867 -1.6530 -0.3285  1.3881
29175SOL    HW290158   3.332   4.682   5.793 -1.3025 -0.8236  0.8875
29176SOL     OW90159   0.379   2.966   3.977  0.3342  1.0554 -0.2092
29176SOL    HW190160   0.382   3.036   4.043  2.2917  2.1112 -1.3354
29176SOL    HW290161   0.349   3.010   3.898  0.0050  0.2459 -0.5387
29177SOL     OW90162   9.014   2.316   7.472  0.1634  0.4942  0.8500
29177SOL    HW190163   9.040   2.406   7.491  0.2047  0.1663  2.5355
29177SOL    HW290164   8.920   2.321   7.453  0.5194  1.1087 -0.9525
29178SOL     OW90165   8.884   8.842   3.421  0.8136  0.2822 -0.5394
29178SOL    HW190166   8.887   8.930   3.383 -1.9348  0.6042 -0.2088
29178SOL    HW290167   8.821   8.794   3.367  1.4152 -1.1613 -0.0301
29179SOL     OW90168   3.507   4.101   4.981  0.1425  0.5033 -1.0540
29179SOL    HW190169   3.529   4.021   5.030 -2.6081  1.0168  1.2756
29179SOL    HW290170   3.511   4.171   5.046  1.0856  2.1127 -2.7323
29180SOL     OW90171   1.317   3.319   6.440 -0.2087  0.5604 -0.3107
29180SOL    HW190172   1.331   3.263   6.516 -0.2433  1.2792  0.2354
29180SOL    HW290173   1.321   3.408   6.475 -1.8366  0.8813 -0.8655
29181SOL     OW90174   3.256   3.121   0.288  0.2493 -0.1012 -0.5495
29181SOL    HW190175   3.225   3.050   0.345 -1.1800  1.1893  0.3772
29181SOL    HW290176   3.182   3.139   0.230 -0.1789  1.8678  0.5092
29182SOL     OW90177   9.978   8.911   0.926 -0.4520 -0.4807  0.1657
29182SOL    HW190178  10.073   8.901   0.926 -0.4431 -0.3801 -0.3784
29182SOL    HW290179   9.948   8.866   0.847 -0.8837 -0.7668  0.4837
29183SOL     OW90180   9.839   4.075   3.283 -0.4297 -0.2626 -0.1130
29183SOL    HW190181   9.743   4.069   3.278 -0.3635 -0.5562 -1.4662
29183SOL    HW290182   9.864   4.007   3.345 -1.0208 -0.9733 -0.6453
29184SOL     OW90183   5.199   8.334   2.818  0.1205 -0.1952 -0.6116
29184SOL    HW190184   5.208   8.243   2.847 -0.9083 -0.2436 -0.3966
29184SOL    HW290185   5.288   8.360   2.793  1.2234 -0.0593  2.8377
29185SOL     OW90186   7.755   4.288   9.797  0.0676 -0.1100  0.1285
29185SOL    HW190187   7.673   4.260   9.756 -0.7849 -0.5329  2.0366
29185SOL    HW290188   7.734   4.299   9.890  1.4698  2.5775  0.2521
29186SOL     OW90189   3.630   0.642   1.099  0.0999 -0.7970  0.2047
29186SOL    HW190190   3.569   0.668   1.168 -0.9513 -1.4916 -0.4250
29186SOL    HW290191   3.629   0.715   1.037  0.4706 -0.4945  0.5543
29187SOL     OW90192   6.287   4.154   6.278  0.3607 -0.4816  0.0232
29187SOL    HW190193   6.230   4.168   6.353  0.9082 -0.2697  0.4061
29187SOL    HW290194   6.236   4.098   6.219 -0.4420  0.1205  0.1189
29188SOL     OW90195   1.512   8.795   3.217  0.2839 -0.0712 -0.0369
29188SOL    HW190196   1.595   8.768   3.178  0.8352  1.3721  0.0402
29188SOL    HW290197   1.513   8.758   3.305  0.8538 -0.0737 -0.0398
29189SOL     OW90198   2.740   1.896   1.981 -0.6253  0.2504 -0.3041
29189SOL    HW190199   2.736   1.987   1.953 -1.5599  0.7242  1.2405
29189SOL    HW290200   2.819   1.890   2.034 -0.6195  0.1928 -0.3190
29190SOL     OW90201   1.343   3.437   5.430  0.7824 -0.4956 -0.5242
29190SOL    HW190202   1.354   3.422   5.336  1.3026  1.5644 -0.8453
29190SOL    HW290203   1.272   3.377   5.456  0.5034 -0.9733 -2.2532
29191SOL     OW90204   1.506   7.925   1.313 -0.0815 -0.4415  0.1875
29191SOL    HW190205   1.508   7.988   1.385 -3.1936  0.0059  0.0022
29191SOL    HW290206   1.576   7.863   1.334 -0.8298 -0.3163  3.5742
29192SOL     OW90207   8.627   7.327   5.314  0.1627  0.0151  0.5195
29192SOL    HW190208   8.540   7.318   5.353 -0.4415 -0.2240 -0.7991
29192SOL    HW290209   8.674   7.387   5.372 -1.0831  0.6194  0.9388
29193SOL     OW90210   1.368   6.656   0.547  0.0865 -0.8064  0.2790
29193SOL    HW190211   1.456   6.668   0.512  0.3178  0.8922  1.3145
29193SOL    HW290212   1.379   6.607   0.628  0.1492 -0.2090  0.6394
29194SOL     OW90213   6.418   3.864   3.087  0.9089 -0.7393  0.4157
29194SOL    HW190214   6.337   3.816   3.074 -0.3620  1.2040  0.7461
29194SOL    HW290215   6.411   3.900   3.175  1.3221  0.8410 -0.1581
29195SOL     OW90216   1.268   8.785   7.668 -0.3692 -0.2425  0.4269
29195SOL    HW190217   1.323   8.747   7.737  0.4247  1.6195  0.8803
29195SOL    HW290218   1.319   8.775   7.588  0.0339  0.2128  0.6182
29196SOL     OW90219   6.889   1.851   3.248 -0.6791 -0.6406 -0.1906
29196SOL    HW190220   6.888   1.790   3.322 -1.5384  0.5487  0.8250
29196SOL    HW290221   6.855   1.799   3.174 -2.5609 -1.0905  0.9212
29197SOL     OW90222   8.577   7.508   8.666 -0.5638 -0.1533 -0.0784
29197SOL    HW190223   8.551   7.426   8.625  3.0547 -1.5523  0.0495
29197SOL    HW290224   8.573   7.490   8.760  0.8761 -0.5038 -0.0551
29198SOL     OW90225   5.818   7.085   5.528  0.2119 -0.0953  0.7585
29198SOL    HW190226   5.888   7.129   5.479  1.6990 -1.2123  1.7803
29198SOL    HW290227   5.819   7.127   5.614 -1.6573  1.1213  0.2446
29199SOL     OW90228   6.664   9.753   3.060 -0.0873 -0.5512 -0.2867
29199SOL    HW190229   6.694   9.835   3.100  0.3093 -1.9595  2.5800
29199SOL    HW290230   6.575   9.771   3.031  0.7039  1.4568 -1.6873
29200SOL     OW90231   9.035   0.040   5.751 -0.2454  0.1535 -0.4356
29200SOL    HW190232   9.011   0.048   5.659  0.6741  0.9183 -0.6143
29200SOL    HW290233   9.125   0.071   5.756  1.1431 -3.4463  0.0507
29201SOL     OW90234   4.708   4.756   3.872 -0.1458  0.4246  0.6262
29201SOL    HW190235   4.651   4.776   3.797  0.3980  1.2126  0.4083
29201SOL    HW290236   4.730   4.841   3.909  1.0034  0.1468  0.6189
29202SOL     OW90237   9.768   7.251   8.881  0.0592  0.1472  0.5729
29202SOL    HW190238   9.808   7.177   8.836 -0.5797  0.6298 -0.8508
29202SOL    HW290239   9.841   7.301   8.916  0.4732 -1.5829  2.3079
29203SOL     OW90240   7.897   8.054   2.764 -1.1628  0.4971  0.3652
29203SOL    HW190241   7.842   8.109   2.819  0.9108  1.8930  1.1801
29203SOL    HW290242   7.900   7.969   2.808 -3.4950 -0.0011 -0.3139
29204SOL     OW90243   2.213   8.582   8.241  0.0026  0.6696  0.4972
29204SOL    HW190244   2.131   8.631   8.237 -0.2180  0.2628 -0.1188
29204SOL    HW290245   2.187   8.490   8.233  0.5798  0.5836 -0.6207
29205SOL     OW90246   8.820   5.094   7.131  0.3001 -0.3746 -0.3789
29205SOL    HW190247   8.849   5.180   7.161  0.5856 -0.5031 -0.2785
29205SOL    HW290248   8.734   5.109   7.093 -0.2275 -0.2536  0.8051
29206SOL     OW90249   9.697   3.725   8.922  0.3864  0.0293 -0.3561
29206SOL    HW190250   9.630   3.733   8.989 -0.2984 -0.8292 -0.9112
29206SOL    HW290251   9.766   3.672   8.962  0.1367 -0.1909 -0.2184
29207SOL     OW90252   7.158   1.601   4.807  0.4461  0.2586 -0.2914
29207SOL    HW190253   7.075   1.574   4.847  1.5783 -2.6363  0.3668
29207SOL    HW290254   7.174   1.689   4.843 -2.1019  0.7567 -0.1690
29208SOL     OW90255   8.989   9.388   4.120  0.1891  0.1532  0.5265
29208SOL    HW190256   8.898   9.371   4.095  0.4046  2.4833 -2.2661
29208SOL    HW290257   8.990   9.479   4.147  1.6021 -0.0391  1.2034
29209SOL     OW90258   4.194   0.719  10.010  0.1985  0.2036 -0.2274
29209SOL    HW190259   4.158   0.785  10.069 -0.0621  0.2196 -0.4054
29209SOL    HW290260   4.138   0.723   9.933 -0.3993 -0.8715  0.1299
29210SOL     OW90261   5.183   6.092   5.894  0.2573 -0.2397 -0.0048
29210SOL    HW190262   5.243   6.054   5.958  1.9691  1.3055 -0.5974
29210SOL    HW290263   5.109   6.125   5.946  1.0951  0.0136  1.0449
29211SOL     OW90264   1.115   3.136  10.061  0.1804  0.2646 -0.1950
29211SOL    HW190265   1.064   3.126  10.141 -0.6208 -0.5935 -0.7946
29211SOL    HW290266   1.195   3.086  10.077 -1.3190 -2.6030 -1.0326
29212SOL     OW90267   4.678   8.410   0.251  0.4599  0.3281 -0.2676
29212SOL    HW190268   4.584   8.393   0.262  0.6847  0.6107  3.1484
29212SOL    HW290269   4.704   8.453   0.332  3.3383  1.4405 -1.6524
29213SOL     OW90270   1.828   0.427   9.206  0.1592 -0.0439 -0.2490
29213SOL    HW190271   1.872   0.342   9.211 -4.4877 -2.9880 -2.2515
29213SOL    HW290272   1.782   0.435   9.289  1.0981  0.9408  0.2000
29214SOL     OW90273   2.439   2.308   5.955  0.2011  0.1258  0.0770
29214SOL    HW190274   2.492   2.383   5.980 -0.9573  0.2258  2.5616
29214SOL    HW290275   2.503   2.237   5.943  1.1326  0.9817 -0.1937
29215SOL     OW90276   0.423   7.371   3.086 -0.2825  0.3111  0.3704
29215SOL    HW190277   0.356   7.304   3.071  1.4689 -2.1943  2.7746
29215SOL    HW290278   0.393   7.417   3.164 -0.0693  0.3737  0.4155
29216SOL     OW90279   4.233   6.532   4.713  0.1862  0.2925 -0.3386
29216SOL    HW190280   4.250   6.609   4.768 -0.5409 -0.0651  0.4083
29216SOL    HW290281   4.165   6.561   4.652  0.9280  0.6612 -1.0131
29217SOL     OW90282   9.594   4.466   9.935 -0.3530 -0.3545 -0.2733
29217SOL    HW190283   9.625   4.542   9.886 -1.1707 -0.9699 -1.8543
29217SOL    HW290284   9.592   4.494  10.026 -0.0901  1.3224 -0.7558
29218SOL     OW90285   7.294   1.498   5.847 -0.4758 -0.2459  0.1656
29218SOL    HW190286   7.368   1.462   5.895 -0.3222  0.0457  0.1539
29218SOL    HW290287   7.333   1.541   5.771 -0.4543  1.5986  1.1652
29219SOL     OW90288   4.891   7.978   6.944 -0.7631 -0.4596  0.5487
29219SOL    HW190289   4.854   7.954   7.030 -1.4932 -0.2938  0.2880
29219SOL    HW290290   4.830   8.043   6.909  0.5562  0.9375  0.7269
29220SOL     OW90291   6.629   1.395   1.857  0.2581  0.5540  0.2675
29220SOL    HW190292   6.568   1.328   1.827  0.3659  0.9381 -0.8272
29220SOL    HW290293   6.631   1.460   1.787  1.6038  0.7607  0.4780
29221SOL     OW90294   0.785   8.871   8.666  0.2951  0.0311 -0.1067
29221SOL    HW190295   0.785   8.794   8.722 -0.2140  0.9135  1.1336
29221SOL    HW290296   0.753   8.942   8.721  0.2274  1.0332 -1.3757
29222SOL     OW90297   4.197   8.926   4.601 -0.1945 -0.1541 -0.0040
29222SOL    HW190298   4.211   8.832   4.608 -1.3342 -0.3776 -0.5370
29222SOL    HW290299   4.103   8.938   4.613 -0.6296  0.5503 -3.0504
29223SOL     OW90300  10.060   6.183   6.960  0.0870 -0.3090  0.4583
29223SOL    HW190301  10.044   6.113   6.897 -0.6259  0.4797 -0.2585
29223SOL    HW290302   9.974   6.223   6.974  0.5213  0.5657  0.6807
29224SOL     OW90303   2.508   2.892   2.983  0.0071  0.2261 -0.0201
29224SOL    HW190304   2.509   2.845   2.900  2.2291  0.1002 -0.0030
29224SOL    HW290305   2.560   2.971   2.965  1.8803 -0.5509  1.5775
29225SOL     OW90306   9.301   2.349   0.955 -0.3433 -0.2699  0.0632
29225SOL    HW190307   9.219   2.386   0.923  0.5188  1.5729 -0.1457
29225SOL    HW290308   9.322   2.280   0.892 -1.8535 -0.9916  0.3007
29226SOL     OW90309   6.210  10.064   7.573 -0.2281 -0.0707 -0.2330
29226SOL    HW190310   6.141  10.077   7.508  0.2491  1.0286 -0.5631
29226SOL    HW290311   6.194   9.978   7.610 -1.4898 -0.0260 -0.6425
29227SOL     OW90312   4.689   8.583   6.246  0.0357 -0.0425 -0.4403
29227SOL    HW190313   4.629   8.650   6.278  0.0069 -0.5253  0.5664
29227SOL    HW290314   4.747   8.629   6.186  0.7368  1.1554  1.0715
29228SOL     OW90315   6.067   5.625   1.527  0.4003  0.0096  0.1924
29228SOL    HW190316   5.987   5.595   1.570  0.0709  0.9480  0.2680
29228SOL    HW290317   6.071   5.719   1.548  2.2034 -0.2720  1.2703
29229SOL     OW90318   3.078   6.429   6.659 -0.2246  0.8567  0.3594
29229SOL    HW190319   3.008   6.487   6.689  1.1066  1.9673  1.4381
29229SOL    HW290320   3.032   6.353   6.622 -2.0518  2.6122 -1.2504
29230SOL     OW90321   6.556   3.714   2.716  0.5239 -0.2298  1.0215
29230SOL    HW190322   6.534   3.730   2.624  1.6245 -0.5211  0.7055
29230SOL    HW290323   6.474   3.733   2.763  0.1298  0.5463  0.0565
29231SOL     OW90324   5.745   4.127   5.840  0.2389  0.2498  0.3221
29231SOL    HW190325   5.685   4.062   5.802 -1.5527  1.6758  0.5754
29231SOL    HW290326   5.791   4.079   5.910 -1.6787 -0.5602  1.1045
29232SOL     OW90327   7.225   7.686   4.364 -0.8079  0.1094  0.1487
29232SOL    HW190328   7.142   7.649   4.395 -1.7020  0.5280 -1.6074
29232SOL    HW290329   7.268   7.718   4.444 -2.9899  1.1667  0.9984
29233SOL     OW90330   3.292   8.160   0.366 -0.1843  0.0726 -0.4993
29233SOL    HW190331   3.242   8.224   0.315 -1.6353  0.7102  1.6121
29233SOL    HW290332   3.229   8.092   0.388 -0.1016  0.6973  1.9080
29234SOL     OW90333   6.332   3.044   8.071  0.0965 -0.2253 -0.1733
29234SOL    HW190334   6.361   2.959   8.104  2.1861 -0.1386 -1.5955
29234SOL    HW290335   6.290   3.024   7.987  1.2962  0.1743 -0.8947
29235SOL     OW90336   6.587   6.633   8.226  0.4291  0.4196 -0.0568
29235SOL    HW190337   6.507   6.681   8.207  0.0776  0.0655  0.5013
29235SOL    HW290338   6.657   6.687   8.190  0.0235  1.2357  0.3584
29236SOL     OW90339   1.476   8.036   6.429 -0.5388 -0.7737  0.0641
29236SOL    HW190340   1.543   8.024   6.361 -1.0174  0.4641 -0.6657
29236SOL    HW290341   1.402   8.075   6.382 -0.8246  0.2623  1.3262
29237SOL     OW90342   9.674   0.336   4.033  0.6139  0.2296  0.3916
29237SOL    HW190343   9.745   0.285   3.996  1.2189  0.8140  0.7290
29237SOL    HW290344   9.695   0.344   4.126  1.0292  1.8568  0.1901
29238SOL     OW90345   3.204   4.068   4.304 -0.4868 -0.2782  0.0305
29238SOL    HW190346   3.272   4.023   4.355  1.3834  1.6138 -0.6259
29238SOL    HW290347   3.199   4.018   4.223  0.6844 -0.0317 -0.2144
29239SOL     OW90348   5.321   8.552   6.440 -0.1624  0.2885 -0.0878
29239SOL    HW190349   5.253   8.559   6.372  0.3508  0.2074 -0.6218
29239SOL    HW290350   5.276   8.572   6.522 -1.2539 -1.4936 -0.1962
29240SOL     OW90351   2.689   4.830   6.637  0.3664 -0.1586  0.3848
29240SOL    HW190352   2.600   4.842   6.601  1.2243  1.0524 -1.5026
29240SOL    HW290353   2.745   4.882   6.579  2.3760 -1.1990  1.3012
29241SOL     OW90354   9.222   3.868   8.284  0.3604  0.3229  0.4062
29241SOL    HW190355   9.154   3.915   8.236 -0.9967 -0.7026  1.2555
29241SOL    HW290356   9.257   3.806   8.221 -0.6593 -0.2705  0.3935
29242SOL     OW90357   3.722   1.505   5.083 -0.0598 -0.5173  0.1939
29242SOL    HW190358   3.636   1.507   5.043  0.2828 -0.4774 -0.5499
29242SOL    HW290359   3.752   1.415   5.073  1.1217  0.0606 -2.0433
29243SOL     OW90360   4.862   9.338  10.034  0.4359 -0.2502 -0.2696
29243SOL    HW190361   4.812   9.390   9.971  0.2129 -0.0187  0.0934
29243SOL    HW290362   4.831   9.368  10.120  1.2691 -0.0341 -0.0358
29244SOL     OW90363   6.260  10.043   1.923 -0.0502  0.1481  0.1131
29244SOL    HW190364   6.207  10.016   1.998 -0.0815 -1.4161 -0.4320
29244SOL    HW290365   6.310  10.119   1.954  1.2904 -1.5357  2.3083
29245SOL     OW90366   9.362   4.518   4.078  0.0397  0.8935  0.2034
29245SOL    HW190367   9.453   4.546   4.090 -0.2141  1.5519  0.6226
29245SOL    HW290368   9.331   4.571   4.004 -0.4138  1.6860  0.9400
29246SOL     OW90369   9.084   9.079   8.332  0.2671  0.6477  0.4392
29246SOL    HW190370   9.103   9.008   8.394  2.4854  1.1773  0.4661
29246SOL    HW290371   9.099   9.159   8.383  1.2535  1.0889 -0.5066
29247SOL     OW90372   7.549   4.295   1.326  0.2911  0.0102  0.0760
29247SOL    HW190373   7.635   4.334   1.312  0.0835 -0.2049 -2.1001
29247SOL    HW290374   7.526   4.256   1.242 -1.6198 -0.5902  0.8188
29248SOL     OW90375   0.347   6.641   1.671  0.4427  0.3327 -0.0370
29248SOL    HW190376   0.254   6.651   1.691  0.0046  0.2866 -1.8691
29248SOL    HW290377   0.378   6.573   1.732 -0.0178  2.2310  2.4557
29249SOL     OW90378   6.333   1.339   7.124 -0.5934 -0.0942 -0.1917
29249SOL    HW190379   6.320   1.245   7.116 -0.7683 -0.0556 -0.4114
29249SOL    HW290380   6.393   1.350   7.198 -0.9608 -0.3504  0.1497
29250SOL     OW90381  10.110   4.757   1.691  0.0512 -0.0396 -1.2475
29250SOL    HW190382  10.152   4.820   1.749  0.6177 -0.6774 -0.9460
29250SOL    HW290383  10.019   4.753   1.722  0.7230 -1.6161  0.7632
29251SOL     OW90384   6.306   0.128  10.273  0.0461  0.8300  0.3645
29251SOL    HW190385   6.243   0.089  10.212 -0.5358  0.8659  0.9327
29251SOL    HW290386   6.281   0.220  10.277  0.1600  0.8508  0.5662
29252SOL     OW90387   1.388  10.298   7.513  0.5038 -0.4101  0.0343
29252SOL    HW190388   1.378  10.367   7.447 -1.0427  0.0775  0.7453
29252SOL    HW290389   1.349  10.221   7.472 -0.7120 -0.0375  0.4601
29253SOL     OW90390   6.706   9.379   7.145  0.0871 -0.2344  0.0490
29253SOL    HW190391   6.726   9.372   7.238 -0.4796  0.8496  0.2681
29253SOL    HW290392   6.693   9.288   7.117 -2.0412 -0.4975  1.5784
29254SOL     OW90393   1.987   1.410   5.840 -0.1663 -0.1790 -0.2037
29254SOL    HW190394   1.940   1.366   5.769 -0.1711  0.7830 -0.8135
29254SOL    HW290395   1.986   1.503   5.816 -1.0823  0.3139  1.5992
29255SOL     OW90396   0.112   3.533   7.993  0.4102  0.2359  0.0620
29255SOL    HW190397   0.180   3.540   8.061 -0.3372 -0.6458  0.9207
29255SOL    HW290398   0.039   3.584   8.027 -0.0594 -0.4160  0.0463
29256SOL     OW90399   7.200   2.260   6.980  0.1703  0.2338 -0.4673
29256SOL    HW190400   7.200   2.301   6.893 -2.4129 -0.0043 -0.6472
29256SOL    HW290401   7.289   2.225   6.989  0.4735  0.0556 -3.1409
29257SOL     OW90402   4.518   0.430   7.576  0.7102  0.0250 -0.1900
29257SOL    HW190403   4.570   0.482   7.515  0.1818 -0.0664 -0.7267
29257SOL    HW290404   4.527   0.475   7.660 -0.7134  1.6929 -0.8738
29258SOL     OW90405   2.811   3.467   4.319  0.3935 -0.0064  0.2843
29258SOL    HW190406   2.857   3.493   4.239 -2.2400 -0.4256 -1.5084
29258SOL    HW290407   2.777   3.379   4.300 -3.9245  1.4903 -0.0031
29259SOL     OW90408   4.581   5.416   5.765 -0.4340 -0.2932 -0.5381
29259SOL    HW190409   4.525   5.399   5.841 -2.2823  0.7469 -1.6003
29259SOL    HW290410   4.554   5.352   5.700  1.3574 -1.3835 -0.2956
29260SOL     OW90411   7.329   9.322   7.803  0.3221 -0.4603  0.0260
29260SOL    HW190412   7.374   9.333   7.720 -1.9403  1.9796 -1.0320
29260SOL    HW290413   7.397   9.336   7.869  1.9612 -1.4514 -1.3838
29261SOL     OW90414   1.580   4.945   4.037  0.2198  0.5920 -0.1354
29261SOL    HW190415   1.597   4.879   3.970  0.2255 -1.1934  1.5590
29261SOL    HW290416   1.572   4.896   4.118  0.3410  2.6952  1.2272
29262SOL     OW90417   4.939   6.212   8.382  0.5686  0.2140 -1.3024
29262SOL    HW190418   4.918   6.126   8.346  1.4976  0.5588 -2.7487
29262SOL    HW290419   5.034   6.211   8.393  0.3298 -0.0869  1.8387
29263SOL     OW90420   7.385   4.690   4.291 -0.8656  0.4196 -0.2221
29263SOL    HW190421   7.441   4.673   4.215  0.2963  1.0794  0.4552
29263SOL    HW290422   7.413   4.776   4.321 -1.0533  0.0110  1.1658
29264SOL     OW90423   8.089   3.689   5.051 -0.5535  0.2164  0.5397
29264SOL    HW190424   8.095   3.691   5.146  0.3275 -1.3279  0.5515
29264SOL    HW290425   8.139   3.612   5.025  0.1176  1.1839 -1.2537
29265SOL     OW90426   7.635   0.103   9.610 -0.3199  0.0642  0.0109
29265SOL    HW190427   7.542   0.097   9.588 -0.6472 -1.3267  1.5947
29265SOL    HW290428   7.670   0.018   9.585  0.8277  0.9631 -1.6493
29266SOL     OW90429   1.008   1.744   7.865  0.6468  0.0052 -0.2673
29266SOL    HW190430   1.003   1.820   7.807  0.8621  1.5710  1.6534
29266SOL    HW290431   1.089   1.757   7.915  0.4936 -1.2882  0.3702
29267SOL     OW90432   4.378   6.884   7.351  0.0303  0.1277  0.0095
29267SOL    HW190433   4.356   6.810   7.295  0.6749  0.0767 -0.1815
29267SOL    HW290434   4.461   6.860   7.392 -0.3223  0.2571  0.8195
29268SOL     OW90435   5.668   9.853  10.301  0.5821  0.0378  0.0661
29268SOL    HW190436   5.606   9.795  10.346  0.3018 -0.6838 -1.1988
29268SOL    HW290437   5.652   9.838  10.208  2.9572 -0.5162 -0.3256
29269SOL     OW90438   2.533   0.437   0.134  0.3747 -0.1932  0.6490
29269SOL    HW190439   2.534   0.446   0.229 -0.3228 -0.7686  0.7193
29269SOL    HW290440   2.440   0.440   0.111  0.6118  2.1208 -0.2506
29270SOL     OW90441   2.820   6.797   5.098  0.3176 -0.3251  0.2163
29270SOL    HW190442   2.806   6.707   5.069  0.7965  0.7919 -4.1344
29270SOL    HW290443   2.732   6.833   5.108  0.0212 -0.2801 -2.0163
29271SOL     OW90444   8.878   9.876   3.742 -0.1623 -0.2743 -0.0060
29271SOL    HW190445   8.784   9.856   3.745 -0.2723 -0.4653 -2.4298
29271SOL    HW290446   8.921   9.791   3.752  0.0089  0.1016  4.3894
29272SOL     OW90447   6.615   6.580   2.729 -0.3308 -0.0459 -0.1432
29272SOL    HW190448   6.673   6.539   2.664 -0.4297  1.9888 -1.5922
29272SOL    HW290449   6.634   6.673   2.724 -2.6683  0.5344  0.4205
29273SOL     OW90450   8.671   3.111   4.875 -0.1046 -0.0779 -0.6080
29273SOL    HW190451   8.586   3.084   4.909  2.1488 -1.5810  4.9096
29273SOL    HW290452   8.696   3.042   4.813 -1.1906 -2.0218  1.0203
29274SOL     OW90453   7.303   5.702   7.341  0.3796  0.4025  1.0637
29274SOL    HW190454   7.382   5.725   7.389  1.6007  1.3021 -1.2210
29274SOL    HW290455   7.274   5.784   7.302 -0.5079 -0.2774  0.2404
29275SOL     OW90456   4.184   8.561   6.734  0.1710  0.2248 -0.3612
29275SOL    HW190457   4.118   8.511   6.781 -0.0739  1.2607  0.4435
29275SOL    HW290458   4.225   8.498   6.674 -0.4962 -0.7803  0.2193
29276SOL     OW90459   5.319   7.104   0.746  0.4068 -0.1271 -0.1674
29276SOL    HW190460   5.287   7.016   0.727 -2.3114  0.8677 -0.7004
29276SOL    HW290461   5.347   7.101   0.837  0.3580 -1.5241 -0.1910
29277SOL     OW90462   0.107  10.176   1.282 -0.1894 -0.6100 -0.0897
29277SOL    HW190463   0.102  10.137   1.369 -0.1904 -3.0334 -1.0828
29277SOL    HW290464   0.201  10.180   1.263 -0.1300  0.8992  0.3793
29278SOL     OW90465   3.347   5.247   4.748  0.0817  0.3115  0.0412
29278SOL    HW190466   3.291   5.312   4.789 -0.1934 -0.5944  1.1686
29278SOL    HW290467   3.407   5.219   4.817  1.9935  1.2783 -1.1326
29279SOL     OW90468   4.319   7.473   8.373  0.2426 -0.2503 -0.0340
29279SOL    HW190469   4.325   7.378   8.373  0.6225 -0.2614 -1.9592
29279SOL    HW290470   4.407   7.503   8.350 -0.1913  0.5156 -0.7759
29280SOL     OW90471   4.340   4.174   4.178 -0.0123 -0.2462 -0.1263
29280SOL    HW190472   4.328   4.256   4.225 -0.6284 -0.2550 -0.2666
29280SOL    HW290473   4.260   4.124   4.195 -0.1677 -0.3226 -1.0318
29281SOL     OW90474   1.034   4.036   8.250 -0.5387 -0.0673 -0.3974
29281SOL    HW190475   1.074   4.052   8.335  0.2795 -1.7180 -0.4244
29281SOL    HW290476   1.108   4.030   8.189 -0.7324 -3.0619 -0.4716
29282SOL     OW90477   4.866   6.603   4.007  0.4855 -0.0318  0.2676
29282SOL    HW190478   4.822   6.646   4.081  1.5079 -2.6459  2.5500
29282SOL    HW290479   4.928   6.668   3.975 -1.3169  1.8577  0.3438
29283SOL     OW90480   3.760   0.148   5.888  0.7373 -0.0861 -0.0654
29283SOL    HW190481   3.829   0.170   5.951  1.4976  0.2692 -1.0120
29283SOL    HW290482   3.680   0.180   5.929  1.1830 -0.0795  0.8394
29284SOL     OW90483   5.745   0.072   9.088  0.3682  0.4828 -0.0900
29284SOL    HW190484   5.677   0.090   9.154  2.2006  0.4957  1.8827
29284SOL    HW290485   5.729  -0.018   9.061  0.8040 -0.2398  1.9279
29285SOL     OW90486   9.361   2.447   0.469  0.0601  0.1891  0.5437
29285SOL    HW190487   9.310   2.469   0.391 -1.2161 -0.2996  1.2160
29285SOL    HW290488   9.384   2.532   0.507  0.3301  0.4238 -0.1185
29286SOL     OW90489   3.571   7.045   1.977  0.6334 -0.0856  0.0666
29286SOL    HW190490   3.607   7.081   2.058  1.8466  0.6509 -0.7699
29286SOL    HW290491   3.563   6.951   1.994 -0.2464  0.2027  1.4268
29287SOL     OW90492   2.825   8.915   5.914  0.0824 -0.1127  0.1471
29287SOL    HW190493   2.865   8.829   5.930 -0.2607 -0.1262  1.0145
29287SOL    HW290494   2.735   8.905   5.944  0.4441  0.9890  1.7838
29288SOL     OW90495   7.545   1.622   7.347  0.1121  0.0272 -0.4240
29288SOL    HW190496   7.518   1.574   7.268 -0.2972 -0.2015 -0.1509
29288SOL    HW290497   7.637   1.642   7.333 -0.0194  0.1985 -1.0683
29289SOL     OW90498   7.243   3.147   7.788  0.3183 -0.4588  0.0807
29289SOL    HW190499   7.226   3.241   7.794 -0.7462 -0.7341  2.3511
29289SOL    HW290500   7.159   3.110   7.761 -0.0031 -0.9461  1.6582
29290SOL     OW90501   5.259   0.713   6.872  0.1972  0.1218 -0.6163
29290SOL    HW190502   5.343   0.758   6.875  0.2898 -0.0909  0.8153
29290SOL    HW290503   5.280   0.621   6.883 -0.2635  0.1414  0.5210
29291SOL     OW90504  10.091   3.776   4.016  0.8114 -0.6074  0.5366
29291SOL    HW190505  10.062   3.776   3.925  0.5994  0.3576  0.5971
29291SOL    HW290506  10.186   3.768   4.011  0.7942 -0.6250  0.2373
29292SOL     OW90507   4.702   6.230   5.454 -0.3945 -0.2741 -0.0134
29292SOL    HW190508   4.760   6.262   5.385  0.6692  2.0173  1.7853
29292SOL    HW290509   4.624   6.285   5.446 -0.8844 -0.9936 -0.2626
29293SOL     OW90510   6.726   5.072   2.035 -0.1908  0.2502  0.9276
29293SOL    HW190511   6.639   5.064   2.073 -0.8738 -0.3360 -0.6757
29293SOL    HW290512   6.752   5.163   2.053 -1.5578  0.7366  0.5500
29294SOL     OW90513   4.193   4.632   5.412  0.7070 -0.1234 -0.3228
29294SOL    HW190514   4.229   4.678   5.488 -2.5981  0.2870  1.1819
29294SOL    HW290515   4.206   4.693   5.339  0.6921  1.0998  0.6614
29295SOL     OW90516   2.467   3.570   3.105  0.2646 -0.0948 -0.4444
29295SOL    HW190517   2.518   3.639   3.062 -0.1440 -0.0100 -0.8079
29295SOL    HW290518   2.507   3.561   3.191  1.6430 -0.8533 -1.1268
29296SOL     OW90519   3.803   9.622   2.527 -0.0517 -0.6710 -0.4214
29296SOL    HW190520   3.891   9.598   2.554 -0.6092 -0.8903  1.3668
29296SOL    HW290521   3.810   9.642   2.434  2.2477  1.0707  0.0257
29297SOL     OW90522   2.693   2.304   9.371  0.0990  0.4458 -1.1023
29297SOL    HW190523   2.696   2.239   9.301 -0.7916  0.5564 -1.2650
29297SOL    HW290524   2.692   2.252   9.451 -0.1843  0.2653 -1.2198
29298SOL     OW90525   1.714   7.360  10.306  0.2036 -0.3408 -0.1412
29298SOL    HW190526   1.676   7.447  10.291 -2.2687 -1.4019 -0.6298
29298SOL    HW290527   1.731   7.326  10.218 -1.8481 -1.4873 -0.1784
29299SOL     OW90528   5.897   5.040   8.169 -0.6508 -0.1485  0.2111
29299SOL    HW190529   5.898   5.098   8.093 -1.7908 -1.4061 -0.8073
29299SOL    HW290530   5.961   5.079   8.229  1.5648 -0.0496 -2.0682
29300SOL     OW90531   6.998   6.097   2.032  0.4747 -0.3274 -0.2552
29300SOL    HW190532   6.963   6.153   2.102  1.2836 -0.8340  0.5896
29300SOL    HW290533   6.933   6.102   1.962 -1.3737 -1.3246  1.2793
29301SOL     OW90534   9.984   0.636   9.031 -0.7647  0.2315 -0.0274
29301SOL    HW190535  10.046   0.574   8.990 -0.2032  0.0834  1.0234
29301SOL    HW290536  10.034   0.718   9.038 -0.3785 -0.1089  1.5703
29302SOL     OW90537   4.401   0.949   7.676  0.1699  0.6069 -0.2118
29302SOL    HW190538   4.368   0.980   7.592 -2.0741  2.1592  1.1103
29302SOL    HW290539   4.351   0.870   7.695  1.2824 -0.2395 -0.6582
29303SOL     OW90540  10.284   6.849   6.989  0.2158 -0.2405 -0.1115
29303SOL    HW190541  10.287   6.865   6.895  0.9306 -1.4019 -0.3141
29303SOL    HW290542  10.375   6.830   7.013  0.2253  1.0617  1.0211
29304SOL     OW90543   5.922   8.100   7.051  0.6197 -0.0544 -0.0230
29304SOL    HW190544   5.841   8.147   7.069  0.8285  0.6950 -0.9541
29304SOL    HW290545   5.957   8.079   7.137 -1.3844 -1.9132  0.4451
29305SOL     OW90546   7.948   8.571   1.321  0.0115  0.0655 -0.4179
29305SOL    HW190547   7.990   8.613   1.246 -0.2895 -0.9654 -1.1873
29305SOL    HW290548   8.019   8.557   1.383  0.8704 -1.6422 -1.6885
29306SOL     OW90549   0.924   7.875   9.585 -0.4352 -0.3037  0.3602
29306SOL    HW190550   1.005   7.828   9.567  0.0801 -0.1907  2.2153
29306SOL    HW290551   0.925   7.891   9.679 -1.5614  1.6274  0.1056
29307SOL     OW90552   7.527   9.782   9.199 -0.2596  0.3264 -0.2607
29307SOL    HW190553   7.475   9.845   9.249 -1.4814 -0.9809  0.1877
29307SOL    HW290554   7.491   9.696   9.224  1.9943 -0.6361 -0.0747
29308SOL     OW90555   0.319   5.280   5.918  0.2421  0.4424 -0.7985
29308SOL    HW190556   0.407   5.250   5.895  0.1546 -0.3573 -0.1482
29308SOL    HW290557   0.260   5.215   5.879  0.0042  0.2385 -0.1076
29309SOL     OW90558   9.172   8.186   2.431  0.1639 -0.4419  0.4832
29309SOL    HW190559   9.150   8.113   2.490 -4.3878  0.5344  0.3712
29309SOL    HW290560   9.190   8.259   2.490 -0.1658 -0.4952  0.6553
29310SOL     OW90561   3.025   0.405   8.554 -0.5872  0.2765  0.7687
29310SOL    HW190562   3.077   0.381   8.477  0.9977 -1.0488  2.1562
29310SOL    HW290563   3.059   0.349   8.624 -4.0193 -0.8077  1.7770
29311SOL     OW90564   1.122   6.451   5.833 -0.1305  0.6953  0.2707
29311SOL    HW190565   1.212   6.477   5.854 -0.0341  0.4230  0.1991
29311SOL    HW290566   1.131   6.376   5.774 -0.3887 -0.3024  1.4474
29312SOL     OW90567   3.688   7.031   9.586 -0.5877 -0.6892  0.2639
29312SOL    HW190568   3.601   7.009   9.555 -0.4748  0.2941 -0.8203
29312SOL    HW290569   3.693   7.126   9.581  0.7360 -0.7535 -0.2499
29313SOL     OW90570   9.501   2.286   4.950  0.2332 -0.7428  0.1932
29313SOL    HW190571   9.483   2.217   5.014 -2.7077 -1.3756 -1.1286
29313SOL    HW290572   9.459   2.255   4.870  3.2162  0.2990 -1.9629
29314SOL     OW90573  10.304   1.176   7.174 -0.3690  0.6602 -0.0347
29314SOL    HW190574  10.377   1.134   7.221 -2.6298 -0.7664  2.4915
29314SOL    HW290575  10.347   1.230   7.107  3.0622  1.0459  2.1824
29315SOL     OW90576   6.893   6.746   2.491 -0.3804  0.4940  0.2110
29315SOL    HW190577   6.802   6.775   2.503 -0.5118 -0.4024  1.5268
29315SOL    HW290578   6.891   6.652   2.508  0.4305  0.0386 -1.8801
29316SOL     OW90579   8.320   5.426   7.213 -0.5645 -0.1703  0.2262
29316SOL    HW190580   8.305   5.363   7.143  0.4196 -0.7134  0.4795
29316SOL    HW290581   8.266   5.396   7.286 -2.7008  1.1855 -0.7065
29317SOL     OW90582   6.363   4.077   3.317  0.4957  0.6597  0.0522
29317SOL    HW190583   6.268   4.069   3.316  0.3684  2.0042  0.2243
29317SOL    HW290584   6.381   4.162   3.358  1.7916  0.1872  0.5331
29318SOL     OW90585   8.595   7.767   8.899 -0.3223 -0.0329  0.0860
29318SOL    HW190586   8.627   7.810   8.979 -2.1232  1.8504 -0.1583
29318SOL    HW290587   8.516   7.720   8.927 -0.1534 -0.5781 -0.3258
29319SOL     OW90588   4.837   0.182   5.120  0.0583  0.4041  0.0964
29319SOL    HW190589   4.849   0.088   5.109 -1.1980  0.3880 -1.4588
29319SOL    HW290590   4.922   0.219   5.096 -0.1801 -0.2062 -1.8750
29320SOL     OW90591   3.133   0.897   1.276 -0.3291  0.3659 -0.6100
29320SOL    HW190592   3.181   0.970   1.315 -0.5976  0.6355 -0.7878
29320SOL    HW290593   3.060   0.882   1.336 -0.8789  0.9365 -1.1320
29321SOL     OW90594   3.279   9.117   2.983  0.0092 -0.3193 -0.2556
29321SOL    HW190595   3.337   9.105   3.057 -2.8074 -0.8003  2.0346
29321SOL    HW290596   3.273   9.212   2.972 -0.0615 -0.2205  0.5936
29322SOL     OW90597   3.361  10.219   6.333  0.4397 -0.5250 -0.2027
29322SOL    HW190598   3.274  10.181   6.346  0.5823 -0.5520  0.6861
29322SOL    HW290599   3.365  10.290   6.396  0.5830  0.3048 -1.1229
29323SOL     OW90600   9.074  10.045   0.028  0.0866  0.2981  0.4038
29323SOL    HW190601   8.990  10.074  -0.006  0.0715 -0.3734 -0.1398
29323SOL    HW290602   9.066  10.057   0.123 -1.3561 -1.5802  0.5679
29324SOL     OW90603   0.812   8.508   9.448  0.2780 -0.6949  0.0930
29324SOL    HW190604   0.759   8.432   9.472 -1.0558  0.2718  0.3273
29324SOL    HW290605   0.901   8.485   9.475 -0.1548 -2.0364  0.4491
29325SOL     OW90606   8.380   1.770   0.108  0.0878 -0.4405 -0.1649
29325SOL    HW190607   8.419   1.777   0.195 -1.9178 -1.0915  0.8713
29325SOL    HW290608   8.331   1.852   0.096 -1.7751 -1.3895  0.5161
29326SOL     OW90609   0.462   3.585   3.601 -0.3198  0.1555 -0.0884
29326SOL    HW190610   0.459   3.627   3.516 -0.5874 -1.4647 -0.9273
29326SOL    HW290611   0.417   3.646   3.660  0.1224  1.4218 -1.0320
29327SOL     OW90612   6.460   5.096   0.754 -0.1374 -0.9665 -0.1849
29327SOL    HW190613   6.466   5.084   0.660 -0.9172  0.1517 -0.4026
29327SOL    HW290614   6.372   5.129   0.769  0.7307  1.1770  0.6381
29328SOL     OW90615   0.460   6.145   0.138  0.4824  0.8205  0.5581
29328SOL    HW190616   0.382   6.177   0.093  0.4614  1.6737  1.1812
29328SOL    HW290617   0.512   6.102   0.070 -0.5221  0.2506  0.1364
29329SOL     OW90618   4.605   0.210   4.189 -0.3110  0.4032  0.3647
29329SOL    HW190619   4.574   0.297   4.165 -1.2995 -0.2742 -1.0194
29329SOL    HW290620   4.577   0.198   4.279  0.9105  1.9516  0.9894
29330SOL     OW90621   5.485   7.996   7.954  0.4145 -0.6195 -0.1893
29330SOL    HW190622   5.501   8.085   7.987  0.8376 -1.5458  2.3096
29330SOL    HW290623   5.573   7.960   7.941  0.2414 -0.8546 -0.7531
29331SOL     OW90624   1.723   4.505   4.472 -0.8401 -0.1147 -0.1432
29331SOL    HW190625   1.810   4.546   4.476 -1.5810  1.5469 -0.3015
29331SOL    HW290626   1.670   4.567   4.422 -2.1245 -1.1183 -0.0730
29332SOL     OW90627   2.196   6.425   1.029 -0.0533  0.6677  0.2352
29332SOL    HW190628   2.112   6.441   1.072  0.4059  0.8553  1.0891
29332SOL    HW290629   2.180   6.445   0.937 -0.8560  1.0257  0.4403
29333SOL     OW90630   2.856   8.742   7.686  0.3341 -0.0055 -0.3585
29333SOL    HW190631   2.915   8.718   7.615 -1.7644 -0.5550 -2.0497
29333SOL    HW290632   2.841   8.660   7.734  0.0726 -0.1133 -0.6239
29334SOL     OW90633   8.315   8.672   2.419 -0.1435 -0.5385 -0.0320
29334SOL    HW190634   8.408   8.695   2.417 -0.2092 -0.2547  0.1035
29334SOL    HW290635   8.277   8.732   2.484  0.1464 -2.8225  2.4036
29335SOL     OW90636   8.775   5.976   1.972  1.0634 -0.2856 -0.2004
29335SOL    HW190637   8.805   5.887   1.950 -3.1373 -1.7043 -1.1590
29335SOL    HW290638   8.809   6.031   1.902 -0.7345 -2.2565 -2.7864
29336SOL     OW90639   3.188   4.493   2.171 -0.0218  0.1085 -0.2849
29336SOL    HW190640   3.221   4.573   2.132 -0.9301  0.4115 -0.4679
29336SOL    HW290641   3.265   4.448   2.204  0.6770  0.2406 -1.6826
29337SOL     OW90642   9.466   1.270   3.722  0.3297 -0.0162  0.2252
29337SOL    HW190643   9.523   1.308   3.788  0.1913  2.3627 -0.9035
29337SOL    HW290644   9.388   1.242   3.770  0.3320  1.4210  1.1301
29338SOL     OW90645   7.075   6.826   4.729  0.1523 -0.3176  0.2821
29338SOL    HW190646   7.048   6.866   4.647  1.0795 -1.0739 -0.4182
29338SOL    HW290647   7.029   6.875   4.797  1.3563  2.0343 -0.5183
29339SOL     OW90648   2.413   7.038   8.519 -0.5115  0.5390 -0.4284
29339SOL    HW190649   2.331   6.995   8.544 -0.0567 -0.0339  0.0808
29339SOL    HW290650   2.479   7.004   8.579  0.5643 -0.7100 -2.1863
29340SOL     OW90651   3.382   7.878   1.719 -0.0860  0.0983  0.2117
29340SOL    HW190652   3.384   7.909   1.810 -2.3672  1.7339 -0.2065
29340SOL    HW290653   3.355   7.786   1.725 -2.4977  0.7941  1.1692
29341SOL     OW90654   6.120   5.190   3.509  0.5721 -0.3531 -0.3149
29341SOL    HW190655   6.170   5.271   3.503  0.5026 -0.3549 -0.9603
29341SOL    HW290656   6.093   5.171   3.419  1.9542 -1.9592 -0.4531
29342SOL     OW90657   1.861   9.796   0.747 -0.1531 -0.1688  0.0098
29342SOL    HW190658   1.883   9.711   0.785 -0.5868 -1.5844 -2.6613
29342SOL    HW290659   1.766   9.801   0.752 -0.4585 -1.3801 -2.5611
29343SOL     OW90660   6.123   0.933   5.674  0.7717  0.1989  0.6328
29343SOL    HW190661   6.036   0.924   5.635  0.7967 -2.5032  1.0428
29343SOL    HW290662   6.151   1.021   5.649 -1.9850  1.0862  0.3490
29344SOL     OW90663   9.985   3.039   6.826  0.4431 -0.5539 -0.3583
29344SOL    HW190664   9.903   2.997   6.802 -0.6993  0.9539  0.7174
29344SOL    HW290665  10.052   2.973   6.809 -0.9862 -1.8551 -1.1677
29345SOL     OW90666   7.447   0.128   6.291  0.4234  0.3262  0.7466
29345SOL    HW190667   7.380   0.115   6.358  0.1716 -1.2275  0.2148
29345SOL    HW290668   7.402   0.112   6.209  1.1291  0.6290  0.2899
29346SOL     OW90669   0.934   0.090   5.648  0.3409  0.0552  0.2469
29346SOL    HW190670   0.970   0.062   5.564 -0.0696 -2.4374  0.8360
29346SOL    HW290671   0.859   0.146   5.624  1.1363  0.6244 -1.0001
29347SOL     OW90672   2.612   5.693   7.804 -0.1929 -0.0878  0.2355
29347SOL    HW190673   2.702   5.661   7.804 -0.3121 -0.6460  2.8713
29347SOL    HW290674   2.597   5.723   7.715  2.3362 -0.7015 -0.4665
29348SOL     OW90675   8.195   8.322   9.357  0.6184 -0.3549  0.5976
29348SOL    HW190676   8.253   8.397   9.341  1.6832 -1.5059 -1.2306
29348SOL    HW290677   8.107   8.359   9.350  1.1131  0.7143 -0.4734
29349SOL     OW90678   3.275   0.176   1.230 -1.1646  0.2365  0.6245
29349SOL    HW190679   3.280   0.209   1.319  0.3499 -0.6006  0.8775
29349SOL    HW290680   3.347   0.220   1.184 -0.6332 -0.8663  0.3612
29350SOL     OW90681   1.764   0.206   7.136 -0.3321 -0.3950 -0.7141
29350SOL    HW190682   1.718   0.290   7.124 -0.9079 -0.7898 -1.3448
29350SOL    HW290683   1.841   0.213   7.081 -0.0366 -0.0358 -0.2658
29351SOL     OW90684   4.246   7.782   1.177  0.1328  0.3626  0.0402
29351SOL    HW190685   4.277   7.760   1.089 -2.6294  0.6430 -1.1240
29351SOL    HW290686   4.151   7.789   1.167 -0.3311 -0.1167  3.1929
29352SOL     OW90687   7.374   7.545   6.188 -0.3451 -0.1040 -0.4194
29352SOL    HW190688   7.431   7.561   6.113 -0.1105 -0.3079 -0.2839
29352SOL    HW290689   7.361   7.450   6.188  0.1273 -0.1676  0.1479
29353SOL     OW90690   1.089   0.308   3.901 -0.4958 -0.4241 -0.1282
29353SOL    HW190691   1.011   0.363   3.894 -1.6927 -2.1957 -1.5173
29353SOL    HW290692   1.057   0.223   3.930  0.7241 -1.5267 -1.8109
29354SOL     OW90693   1.402   1.690   8.254  0.0343 -0.4592  0.3071
29354SOL    HW190694   1.463   1.747   8.302 -1.3611  0.5189  0.9652
29354SOL    HW290695   1.330   1.675   8.315 -1.4665  0.2575 -1.2015
29355SOL     OW90696   2.771   8.191   5.565 -0.6376  0.4116 -0.2676
29355SOL    HW190697   2.757   8.104   5.601 -1.3096  0.7750  0.3727
29355SOL    HW290698   2.734   8.187   5.477 -0.9546  0.1426 -0.1206
29356SOL     OW90699   8.859   4.587   3.340 -0.0151  0.0640  0.0950
29356SOL    HW190700   8.935   4.597   3.397 -0.6962 -0.7284  1.1954
29356SOL    HW290701   8.797   4.654   3.370 -0.9960 -1.3365  1.4248
29357SOL     OW90702   7.939   2.128   2.721  0.3113  0.0402 -0.1384
29357SOL    HW190703   7.985   2.172   2.650  0.5042 -0.1824 -0.1523
29357SOL    HW290704   7.888   2.059   2.678  2.2025 -1.6091  0.1363
29358SOL     OW90705   0.339   3.121   3.742  0.4897  0.6666 -0.2706
29358SOL    HW190706   0.383   3.206   3.738  3.1272 -0.5666  0.0596
29358SOL    HW290707   0.382   3.069   3.674 -0.4254 -0.6605  0.1370
29359SOL     OW90708   0.940   4.375   4.748  0.2153  0.4815 -0.2402
29359SOL    HW190709   0.997   4.398   4.675  1.0735 -0.3141  0.1672
29359SOL    HW290710   0.971   4.289   4.777 -0.0966  0.7857  1.0549
29360SOL     OW90711   5.015   9.775   8.533 -0.0520  0.0424 -0.5435
29360SOL    HW190712   4.988   9.685   8.549 -0.4562  0.1055 -0.8557
29360SOL    HW290713   5.093   9.767   8.478  0.4511 -0.1358  0.1823
29361SOL     OW90714   4.291   9.768   1.903  0.7694  0.1199  0.2927
29361SOL    HW190715   4.367   9.714   1.924 -1.5101 -2.5673  2.3713
29361SOL    HW290716   4.255   9.730   1.823 -0.3837 -1.0468  1.3202
29362SOL     OW90717   4.523   9.761   7.900  0.6815 -0.0541 -0.3665
29362SOL    HW190718   4.554   9.839   7.947  0.6776 -0.6928  0.7350
29362SOL    HW290719   4.439   9.740   7.942 -0.8819  1.1398 -2.7147
29363SOL     OW90720   8.767   6.467   4.910 -0.1332  0.0414 -0.5906
29363SOL    HW190721   8.783   6.390   4.855  0.4893  0.5129 -1.0799
29363SOL    HW290722   8.692   6.442   4.964 -0.2733 -0.7137 -1.1142
29364SOL     OW90723   1.042   5.272   2.038 -0.6507 -0.1741 -0.0365
29364SOL    HW190724   1.067   5.197   1.984 -1.7787 -1.1811  0.7568
29364SOL    HW290725   1.009   5.337   1.976 -0.1251 -0.5352 -0.7029
29365SOL     OW90726   8.886   3.627   7.285  0.2371  0.1877  0.9393
29365SOL    HW190727   8.934   3.641   7.366  1.7143 -0.1256  0.1526
29365SOL    HW290728   8.953   3.603   7.221 -0.7273  1.4822 -0.6538
29366SOL     OW90729   5.315   4.239   0.523  0.5329 -0.1351 -0.5183
29366SOL    HW190730   5.388   4.202   0.573 -1.0866 -2.0510  0.5340
29366SOL    HW290731   5.339   4.226   0.432  1.0849 -1.6193 -0.1757
29367SOL     OW90732   8.282   3.498   4.344 -0.1920  0.1946 -0.0973
29367SOL    HW190733   8.364   3.531   4.382  0.1648  0.0129 -0.6986
29367SOL    HW290734   8.223   3.573   4.345  0.0824  0.4095  0.0475
29368SOL     OW90735   4.654   1.058   9.004  0.2233  0.2273  0.0188
29368SOL    HW190736   4.691   1.114   9.073 -1.6252  0.8704  0.5428
29368SOL    HW290737   4.623   0.980   9.051 -1.0887  0.6911 -0.0386
29369SOL     OW90738   4.444   7.008   5.837 -0.2095 -0.1843  0.7938
29369SOL    HW190739   4.433   6.916   5.858  1.1271 -0.3398  0.8677
29369SOL    HW290740   4.414   7.055   5.915 -2.1618 -0.4801  0.2654
29370SOL     OW90741   3.519   7.319   5.816  0.6436  0.1546  0.4225
29370SOL    HW190742   3.433   7.329   5.857  0.5645  2.1488 -0.1706
29370SOL    HW290743   3.500   7.306   5.723  0.9820  1.1098  0.2132
29371SOL     OW90744   0.126   6.249   3.420 -0.4054 -0.4805 -0.2913
29371SOL    HW190745   0.036   6.252   3.386 -0.5760 -0.6256  0.1479
29371SOL    HW290746   0.175   6.306   3.360 -0.8686 -0.0779 -0.3008
29372SOL     OW90747   1.305   4.232   0.071  0.1597 -0.3701 -0.2946
29372SOL    HW190748   1.213   4.221   0.045  0.4462 -2.1401 -0.6984
29372SOL    HW290749   1.327   4.320   0.042 -1.9889  0.9727  1.7262
29373SOL     OW90750   2.277   0.612   3.234 -0.4485  0.3998 -0.1108
29373SOL    HW190751   2.290   0.521   3.206  0.1731  0.4579 -0.0049
29373SOL    HW290752   2.202   0.642   3.182  0.5002  0.4130 -1.5215
29374SOL     OW90753   1.424   4.185   3.914 -0.4204 -0.2725  0.0933
29374SOL    HW190754   1.509   4.147   3.890 -0.0298  0.9117 -0.4247
29374SOL    HW290755   1.362   4.112   3.906  0.4483 -1.0070 -0.0786
29375SOL     OW90756   5.159   1.838   2.579  0.1230  0.3964 -0.1135
29375SOL    HW190757   5.164   1.795   2.494  0.3018 -1.8572  0.9318
29375SOL    HW290758   5.239   1.811   2.624 -0.4557  0.6654  1.1275
29376SOL     OW90759   2.944   7.183   7.578  0.2435 -0.0345 -0.3012
29376SOL    HW190760   2.958   7.263   7.628 -0.6624  0.3424 -0.6068
29376SOL    HW290761   2.878   7.135   7.628 -0.8134  0.4388 -1.1960
29377SOL     OW90762   6.264   4.506   6.818 -0.2808 -0.5295 -0.1049
29377SOL    HW190763   6.332   4.439   6.814  1.4125  1.1221 -0.3345
29377SOL    HW290764   6.279   4.551   6.902 -1.9829 -0.9830  0.4946
29378SOL     OW90765   1.149   6.496   4.521  0.6009  0.1496 -0.0217
29378SOL    HW190766   1.183   6.485   4.432  1.3434 -0.3982  0.3206
29378SOL    HW290767   1.070   6.549   4.510  1.1311  0.7679 -0.9189
29379SOL     OW90768  10.105   6.575   1.414 -0.2226  0.2408 -0.0263
29379SOL    HW190769  10.017   6.577   1.452 -0.6890 -1.0630 -0.9546
29379SOL    HW290770  10.134   6.485   1.425  0.8197  0.5445 -0.1650
29380SOL     OW90771   1.573   2.979   4.340 -0.2903 -0.4281  0.0376
29380SOL    HW190772   1.522   3.040   4.287  1.4211 -0.1561 -1.4019
29380SOL    HW290773   1.624   3.035   4.398 -1.4757 -0.6933  1.3898
29381SOL     OW90774   3.136   6.925   3.955 -0.4223 -0.9888 -0.3420
29381SOL    HW190775   3.170   6.965   4.035  0.6730  0.9979 -1.7334
29381SOL    HW290776   3.115   6.835   3.981  2.7321 -1.3410  1.4324
29382SOL     OW90777   9.505   0.762   7.885 -0.4092 -0.7034  0.2266
29382SOL    HW190778   9.544   0.847   7.904  0.9256 -1.1680 -0.3589
29382SOL    HW290779   9.553   0.729   7.809 -1.0928 -1.8654  0.2679
29383SOL     OW90780   1.882   5.517   1.197 -0.7662  0.0392 -0.2956
29383SOL    HW190781   1.971   5.542   1.222 -0.8888  0.6840 -0.4884
29383SOL    HW290782   1.830   5.527   1.277 -1.0702  1.6713 -0.6720
29384SOL     OW90783   8.461   1.513  10.131 -0.1114  0.6592  0.1638
29384SOL    HW190784   8.434   1.526  10.040  0.6448  0.4593 -0.1031
29384SOL    HW290785   8.481   1.601  10.163  1.7533  0.5723 -0.5796
29385SOL     OW90786   6.349   5.208   9.807 -0.0506 -0.2092  0.1790
29385SOL    HW190787   6.291   5.215   9.882  0.1853  0.5623  0.3026
29385SOL    HW290788   6.402   5.288   9.810  0.2027 -0.3346 -0.6033
29386SOL     OW90789   0.422   7.712   0.079  0.2874 -0.0491 -0.3720
29386SOL    HW190790   0.362   7.663   0.135  0.0569  0.8893  0.2431
29386SOL    HW290791   0.489   7.745   0.140 -0.7904  2.2693 -0.3130
29387SOL     OW90792   2.511   6.249   7.921 -0.1433 -0.3035  0.4402
29387SOL    HW190793   2.492   6.194   7.997 -1.9925 -1.7446 -0.9538
29387SOL    HW290794   2.481   6.336   7.946  1.3377 -0.2195  2.1101
29388SOL     OW90795   7.455   3.202   4.051 -0.0917 -0.1061 -0.9479
29388SOL    HW190796   7.426   3.284   4.011  1.0384  1.4118  1.1469
29388SOL    HW290797   7.399   3.135   4.012 -1.4951  1.7304 -2.2645
29389SOL     OW90798   6.572   2.018   1.636  0.2939  0.2618  0.5897
29389SOL    HW190799   6.660   2.048   1.615  1.0589  0.0632  3.1735
29389SOL    HW290800   6.549   2.066   1.716 -1.2215 -0.9951  0.9483
29390SOL     OW90801   3.623  10.141   3.248 -0.3637  0.3357 -0.2110
29390SOL    HW190802   3.566  10.179   3.182 -1.1775 -1.3948 -0.5741
29390SOL    HW290803   3.708  10.132   3.204 -0.8793 -0.7314 -1.0411
29391SOL     OW90804   6.577   0.042   1.842 -0.0048 -0.5517 -0.1490
29391SOL    HW190805   6.659   0.090   1.831 -0.1931  0.1523  1.2936
29391SOL    HW290806   6.601  -0.049   1.828  0.5912 -0.1863 -1.7799
29392SOL     OW90807   1.557   0.078   6.288 -0.7882 -0.0634 -0.1022
29392SOL    HW190808   1.484   0.098   6.346 -0.8545  0.0667 -0.2301
29392SOL    HW290809   1.535   0.122   6.206  0.4490  1.8862  0.5145
29393SOL     OW90810   2.171   6.990   0.289 -0.0150  0.0989 -0.1582
29393SOL    HW190811   2.100   7.055   0.281 -2.4814 -2.2882  0.6437
29393SOL    HW290812   2.149   6.923   0.225  1.1091 -1.0742  0.6432
29394SOL     OW90813   4.654   0.671   5.402  0.3903  0.5589 -0.4339
29394SOL    HW190814   4.663   0.670   5.307  2.5245 -1.0032 -0.2823
29394SOL    HW290815   4.735   0.632   5.434 -0.1665  1.2927  2.0527
29395SOL     OW90816   5.607   6.970   3.218  0.3079 -0.4752 -0.4630
29395SOL    HW190817   5.572   6.966   3.128 -0.9764 -0.3959  0.0115
29395SOL    HW290818   5.578   7.055   3.250  0.4101 -0.6765  0.1623
29396SOL     OW90819   5.913   3.195   5.367  0.1827  0.2405 -0.3932
29396SOL    HW190820   5.969   3.170   5.294  0.1488 -1.4076  0.1159
29396SOL    HW290821   5.888   3.286   5.348 -0.0148 -0.2111 -2.5227
29397SOL     OW90822   8.012   3.504   4.002  0.5716  0.3587  0.2205
29397SOL    HW190823   8.025   3.460   4.086  0.3537  0.8597  0.5194
29397SOL    HW290824   8.095   3.548   3.984  0.0876  1.6342  0.9965
29398SOL     OW90825   5.468   2.546  10.240 -0.1754 -0.3549  0.1915
29398SOL    HW190826   5.425   2.607  10.180  1.4686  0.1757 -0.5088
29398SOL    HW290827   5.401   2.525  10.305 -1.5668  0.1624 -1.0322
29399SOL     OW90828   9.504   4.122   7.120  0.4517 -0.4238 -0.5487
29399SOL    HW190829   9.472   4.203   7.082  0.7061  0.1847  0.5013
29399SOL    HW290830   9.480   4.127   7.212  0.7650 -1.3961 -0.3986
29400SOL     OW90831   5.715   7.279   9.849 -0.1656  0.0193 -0.0942
29400SOL    HW190832   5.642   7.313   9.797 -1.4950 -0.3011  1.4901
29400SOL    HW290833   5.752   7.209   9.795 -0.0686  1.1270 -1.5453
29401SOL     OW90834   9.821   4.098   7.147  0.4077 -0.0924 -0.8582
29401SOL    HW190835   9.885   4.169   7.147 -1.1999  1.4362 -1.1545
29401SOL    HW290836   9.736   4.143   7.153 -0.5973 -2.0856  1.5021
29402SOL     OW90837   9.865   2.272   0.099  0.0127  0.1083  0.1045
29402SOL    HW190838   9.788   2.230   0.058 -0.0712 -0.7138  1.0618
29402SOL    HW290839   9.865   2.239   0.189  1.3988  0.2219  0.1693
29403SOL     OW90840   1.960   5.157   1.439  0.2066  0.6211 -0.5848
29403SOL    HW190841   2.010   5.211   1.378 -1.1127  2.1152 -0.3912
29403SOL    HW290842   1.988   5.186   1.526  1.1536 -0.6264 -0.4412
29404SOL     OW90843   5.565   3.935   0.799 -0.6955 -0.1954  0.2591
29404SOL    HW190844   5.470   3.937   0.813 -0.7872 -0.7559 -0.2381
29404SOL    HW290845   5.602   3.916   0.886 -1.1504 -1.9084  0.1059
29405SOL     OW90846   8.034   8.882   7.621 -0.2754 -0.3937 -0.7486
29405SOL    HW190847   7.952   8.867   7.667 -0.1074 -1.4239 -0.7522
29405SOL    HW290848   8.040   8.811   7.558  0.8250 -0.6101 -0.4379
29406SOL     OW90849   2.823   5.032   5.363  0.5468  0.3147 -0.0877
29406SOL    HW190850   2.815   5.070   5.451 -3.2812  0.8252 -0.4853
29406SOL    HW290851   2.733   5.022   5.333  1.6369  1.3841 -4.5045
29407SOL     OW90852   5.837   9.152   8.785 -0.2184 -0.3326 -0.2941
29407SOL    HW190853   5.879   9.236   8.806 -0.5464  0.0109 -0.9780
29407SOL    HW290854   5.898   9.086   8.817  0.5048  0.1628 -0.6154
29408SOL     OW90855   2.380   8.704   1.441 -0.0053  0.0867  0.3578
29408SOL    HW190856   2.439   8.655   1.384  1.5136  2.0411  0.1334
29408SOL    HW290857   2.350   8.640   1.506 -2.5784 -2.5233 -3.0200
29409SOL     OW90858   9.208   6.478   5.125 -0.2432 -0.4243 -0.2262
29409SOL    HW190859   9.303   6.468   5.114  0.0264 -0.2846  1.5660
29409SOL    HW290860   9.185   6.413   5.192 -1.5437 -0.8981 -1.1056
29410SOL     OW90861   7.375   6.463   3.636  0.4629  1.0574  0.9126
29410SOL    HW190862   7.328   6.457   3.719 -1.3049 -0.5894 -0.1217
29410SOL    HW290863   7.417   6.377   3.627 -0.5138  0.7055 -0.5044
29411SOL     OW90864   6.515   9.236   4.200 -0.4180 -0.4913 -0.3711
29411SOL    HW190865   6.523   9.236   4.296 -2.7150 -0.0288 -0.1107
29411SOL    HW290866   6.603   9.217   4.168  0.0300 -2.7298  1.8530
29412SOL     OW90867   3.505   5.650   1.443 -0.2437 -0.5822 -0.1643
29412SOL    HW190868   3.520   5.711   1.370  0.2957 -1.2508 -0.6196
29412SOL    HW290869   3.501   5.564   1.402 -3.1928 -0.7272  0.1695
29413SOL     OW90870   4.309   7.959   5.326  0.1846 -0.5253  0.0156
29413SOL    HW190871   4.274   8.047   5.314  1.2412 -0.3586 -2.4466
29413SOL    HW290872   4.233   7.907   5.353 -0.2203  1.2702  2.7695
29414SOL     OW90873   0.978   1.494   9.873  0.2017  0.1303 -0.7909
29414SOL    HW190874   1.015   1.582   9.869 -0.6135  0.4904 -0.4940
29414SOL    HW290875   0.923   1.487   9.795 -1.5785  0.7428  0.3547
29415SOL     OW90876   0.385   6.108   6.760 -0.3797  0.0622 -0.2810
29415SOL    HW190877   0.449   6.039   6.774 -0.7388 -0.1766  0.2296
29415SOL    HW290878   0.424   6.165   6.693  0.9552  0.6809  0.9626
29416SOL     OW90879   1.523   1.346   5.119  0.4336 -0.3664  0.5811
29416SOL    HW190880   1.463   1.335   5.045  0.8255  3.5940 -0.5881
29416SOL    HW290881   1.610   1.350   5.078  0.8491  0.0361  1.4711
29417SOL     OW90882   1.475   2.140   0.972  0.0491 -0.6071  0.3192
29417SOL    HW190883   1.528   2.152   1.051  1.2371  0.0886 -0.5580
29417SOL    HW290884   1.491   2.049   0.946  0.1306 -0.6557  0.5397
29418SOL     OW90885   9.935   0.937   4.022  0.0308  0.3602 -0.1695
29418SOL    HW190886   9.867   0.944   3.955 -1.2477  0.9501  1.1399
29418SOL    HW290887   9.892   0.966   4.103  1.5468 -0.2575  0.8967
29419SOL     OW90888   2.117   4.073   0.833  0.0503  0.5946  0.3443
29419SOL    HW190889   2.090   4.160   0.862 -1.7664 -0.1254  1.0187
29419SOL    HW290890   2.042   4.041   0.782  0.3374 -0.8729  0.8067
29420SOL     OW90891   5.822   0.897   2.983  0.1012  0.5790  0.1267
29420SOL    HW190892   5.744   0.845   2.961  1.0053 -0.0146 -1.9715
29420SOL    HW290893   5.889   0.831   3.002  1.1779  0.8752 -2.2459
29421SOL     OW90894   2.966   9.637   4.526 -0.0894 -0.6205  0.2352
29421SOL    HW190895   2.890   9.681   4.489  1.1245  1.5552  0.1435
29421SOL    HW290896   3.028   9.708   4.545  1.4538 -2.1846  1.4029
29422SOL     OW90897   6.464   9.725   5.725  0.6741  0.0748  0.0908
29422SOL    HW190898   6.517   9.697   5.800 -0.1067  0.9121  0.9908
29422SOL    HW290899   6.385   9.672   5.730  0.0115  1.0965  0.6978
29423SOL     OW90900   2.090   6.162  10.214 -0.2065 -0.1899 -0.1792
29423SOL    HW190901   2.094   6.095  10.146 -1.0935 -0.2466 -0.1993
29423SOL    HW290902   2.072   6.113  10.295  0.2941 -0.0752  0.0047
29424SOL     OW90903   1.451   9.696   2.069  0.0527  0.2813 -0.4588
29424SOL    HW190904   1.471   9.711   2.162 -1.0614 -0.6029 -0.0463
29424SOL    HW290905   1.488   9.771   2.024 -0.7811  1.5628  0.8923
29425SOL     OW90906   5.554   7.522   3.938  0.6646  0.2215 -0.0601
29425SOL    HW190907   5.471   7.475   3.932  0.2505  0.6209  2.0139
29425SOL    HW290908   5.534   7.601   3.987  2.3339  0.1875  0.7489
29426SOL     OW90909   3.106   7.548   8.544 -0.1251  0.5241 -0.0129
29426SOL    HW190910   3.051   7.524   8.618  0.3850  0.9909  0.5189
29426SOL    HW290911   3.185   7.585   8.583 -1.0554  3.6137 -0.7324
29427SOL     OW90912   1.126  10.091   8.763  0.0952  0.2322 -0.2199
29427SOL    HW190913   1.116  10.182   8.792 -0.2086  0.4303 -0.8976
29427SOL    HW290914   1.193  10.054   8.820  0.4967  0.9983 -0.1828
29428SOL     OW90915   3.561   8.121  10.232  0.1894 -0.3238 -0.6226
29428SOL    HW190916   3.619   8.045  10.232 -1.4621 -1.7351  2.2596
29428SOL    HW290917   3.502   8.107  10.305 -1.7391  2.6370 -1.4148
29429SOL     OW90918   0.181   0.701   8.118  0.3854  0.1465  0.2918
29429SOL    HW190919   0.196   0.622   8.169 -0.2469  0.3971  0.8778
29429SOL    HW290920   0.088   0.696   8.093  0.7321 -0.0954 -1.0440
29430SOL     OW90921   9.514   4.914   9.534  0.2252  0.3543 -0.0844
29430SOL    HW190922   9.486   4.825   9.514  3.3921 -0.7274 -0.2238
29430SOL    HW290923   9.603   4.920   9.499  1.1671  2.6447  2.3436
29431SOL     OW90924   7.373   6.181   4.844 -0.1433  0.0729 -0.0713
29431SOL    HW190925   7.307   6.184   4.913 -0.7362  0.1352 -0.6311
29431SOL    HW290926   7.422   6.100   4.860 -0.3355  0.0394  0.3596
29432SOL     OW90927   3.861   5.416   4.605  0.1523 -0.6669 -0.1192
29432SOL    HW190928   3.877   5.325   4.632  1.1744 -0.6401 -0.6225
29432SOL    HW290929   3.948   5.455   4.595 -0.2085 -0.1878 -1.7678
29433SOL     OW90930   1.781   6.469   6.873 -0.0752 -0.0509  1.0159
29433SOL    HW190931   1.689   6.457   6.898 -1.0422 -1.5165 -2.6403
29433SOL    HW290932   1.811   6.383   6.846  1.5220  0.8618 -0.3569
29434SOL     OW90933   1.728   1.075   7.859 -0.0823  0.3901 -0.7293
29434SOL    HW190934   1.781   1.143   7.816  0.1204 -0.8758 -2.6260
29434SOL    HW290935   1.793   1.016   7.898  0.1093 -1.5728 -3.6905
29435SOL     OW90936   6.831   1.264   3.332  0.4309 -0.1662  0.2208
29435SOL    HW190937   6.781   1.306   3.402  0.7197  0.1969  0.2178
29435SOL    HW290938   6.836   1.331   3.263  2.8737  0.7260  1.1199
29436SOL     OW90939   0.862   9.068   5.713  0.2244 -0.3097  0.0701
29436SOL    HW190940   0.790   9.127   5.736  0.3153  0.2683 -1.0382
29436SOL    HW290941   0.936   9.101   5.764  0.3510  0.7469 -0.7607
29437SOL     OW90942   9.299   0.362   3.670 -0.3421 -0.4763  0.5013
29437SOL    HW190943   9.382   0.314   3.669  0.1426  0.2713 -2.0210
29437SOL    HW290944   9.323   0.449   3.703 -0.1990 -0.3652  0.1025
29438SOL     OW90945   1.768   3.452   4.810  0.6249  0.5421 -0.8187
29438SOL    HW190946   1.829   3.383   4.838  0.0077 -0.2352 -1.3358
29438SOL    HW290947   1.767   3.514   4.883  0.4172 -0.5213  0.1180
29439SOL     OW90948   9.389   4.786   2.498  0.0293 -0.7691  0.4735
29439SOL    HW190949   9.371   4.877   2.525 -0.5546 -0.9627  0.7616
29439SOL    HW290950   9.318   4.735   2.538 -0.0518 -1.2583 -0.2733
29440SOL     OW90951   8.391   2.301   3.752  0.4612 -0.0288 -0.1061
29440SOL    HW190952   8.408   2.213   3.720  0.2153 -0.3130  0.5429
29440SOL    HW290953   8.351   2.346   3.677  1.0910 -0.2986 -0.6117
29441SOL     OW90954   5.983  10.266   8.493 -0.0756  0.1379  0.2780
29441SOL    HW190955   5.891  10.293   8.483  0.0075  0.3764  0.1599
29441SOL    HW290956   6.026  10.341   8.532  0.3700  0.5553 -0.9683
29442SOL     OW90957  10.143   1.852   7.456 -0.1021 -0.7176  0.1419
29442SOL    HW190958  10.056   1.888   7.474 -0.1750 -1.4768  1.4821
29442SOL    HW290959  10.167   1.808   7.538  1.0592 -1.4887 -0.5937
29443SOL     OW90960   9.334   4.398   7.082  0.3614  0.3707 -0.1532
29443SOL    HW190961   9.265   4.461   7.065 -0.2588 -0.6143 -1.4721
29443SOL    HW290962   9.410   4.451   7.108 -0.1092  1.6510 -1.3080
29444SOL     OW90963   3.000   6.786   4.185 -0.8899 -1.1491 -0.4228
29444SOL    HW190964   3.032   6.790   4.275  2.2164  1.5444 -1.4641
29444SOL    HW290965   2.922   6.842   4.184  1.4667  2.4603 -0.0754
29445SOL     OW90966   2.795   9.719   3.260 -0.3576  0.1956 -0.1118
29445SOL    HW190967   2.760   9.672   3.184  0.2892  1.3138 -1.1488
29445SOL    HW290968   2.796   9.811   3.233  0.3097  0.5706  1.0906
29446SOL     OW90969   8.941  10.074   1.468 -0.0223  0.1083 -0.6256
29446SOL    HW190970   8.987  10.014   1.527  0.5067 -0.6941 -1.8262
29446SOL    HW290971   8.873  10.020   1.428 -0.6163  0.7459 -0.4829
29447SOL     OW90972   9.683   0.811   0.910 -0.2263  0.2543 -0.2506
29447SOL    HW190973   9.747   0.774   0.970 -0.3309  1.7446  0.8331
29447SOL    HW290974   9.732   0.824   0.828  0.8398  1.1800  0.4967
29448SOL     OW90975   0.253   7.790   0.335 -0.6016  0.4851 -0.4114
29448SOL    HW190976   0.297   7.712   0.367 -0.1687  0.8001 -0.2209
29448SOL    HW290977   0.264   7.854   0.405 -0.0797  1.0255 -0.9614
29449SOL     OW90978   8.761   0.370   3.136  0.3780 -1.1583  0.0075
29449SOL    HW190979   8.775   0.296   3.194 -0.1439 -1.5361 -0.3454
29449SOL    HW290980   8.809   0.348   3.056  1.8877 -0.2235  0.5978
29450SOL     OW90981   7.061   6.893   7.456  0.2725 -0.0790 -0.0866
29450SOL    HW190982   7.138   6.855   7.413 -0.0817 -1.0291  0.0953
29450SOL    HW290983   7.005   6.920   7.383  0.1913 -0.6139 -0.2271
29451SOL     OW90984   5.853   9.672   3.417  0.1933 -0.2008  0.1658
29451SOL    HW190985   5.890   9.757   3.394  0.0984  0.4188  2.1109
29451SOL    HW290986   5.927   9.623   3.454  0.3325 -1.1383 -1.2738
29452SOL     OW90987   9.299   1.938   6.048  0.1766  0.5001 -0.0181
29452SOL    HW190988   9.272   2.026   6.024 -0.5663  0.2762 -0.0096
29452SOL    HW290989   9.267   1.882   5.978  0.0653  0.1499  0.3079
29453SOL     OW90990   1.546  10.296   5.931 -0.2406  0.7160  0.1400
29453SOL    HW190991   1.481  10.255   5.988 -0.2608  0.2301 -0.2238
29453SOL    HW290992   1.555  10.385   5.965 -1.0356  0.7657  0.2491
29454SOL     OW90993   7.398   6.729   9.092 -0.7277  0.3361 -0.0549
29454SOL    HW190994   7.409   6.824   9.085 -0.6230  0.2678 -0.8629
29454SOL    HW290995   7.329   6.708   9.030 -1.7550  0.0485  1.1376
29455SOL     OW90996   5.885   6.020  10.339  0.0963 -0.2007  0.2718
29455SOL    HW190997   5.916   6.080  10.406  0.5133  0.1436 -0.2174
29455SOL    HW290998   5.870   6.075  10.262  0.2355 -0.6755 -0.1060
29456SOL     OW90999   2.828   1.935   8.705  0.1648 -0.2149  0.2383
29456SOL    HW191000   2.749   1.989   8.692 -1.9352 -2.3640  2.8880
29456SOL    HW291001   2.875   1.978   8.776  0.4004  0.0495 -0.0753
29457SOL     OW91002   8.635   9.405   8.642  0.5943 -0.5459  0.5394
29457SOL    HW191003   8.580   9.441   8.712  1.4767 -0.6382  1.2931
29457SOL    HW291004   8.665   9.321   8.676  0.2586 -1.0496 -0.3564
29458SOL     OW91005   5.648   1.195   9.363  0.2072  0.7747  0.2615
29458SOL    HW191006   5.697   1.115   9.351 -1.4487 -0.0511 -1.6487
29458SOL    HW291007   5.672   1.250   9.288  0.1019  1.3965  0.6708
29459SOL     OW91008  10.062  10.205   6.659 -0.0515 -0.5016 -0.3922
29459SOL    HW191009  10.122  10.270   6.623 -0.5083 -0.3048 -0.8093
29459SOL    HW291010  10.119  10.138   6.698  0.4330 -0.2656 -0.6888
29460SOL     OW91011   5.302   9.893   5.390  0.5229 -0.3797  0.1133
29460SOL    HW191012   5.271   9.863   5.476 -1.3242  1.0229 -0.0055
29460SOL    HW291013   5.387   9.933   5.408  1.3335 -2.3351  0.8440
29461SOL     OW91014   8.569   7.029   0.247  0.1545 -0.5057  0.7761
29461SOL    HW191015   8.611   7.033   0.332  0.4562  1.4499  0.5987
29461SOL    HW291016   8.588   6.941   0.214  2.9100 -0.1931  1.3050
29462SOL     OW91017   4.052   6.800   0.849 -0.3328 -0.0611 -0.4419
29462SOL    HW191018   3.980   6.858   0.825 -1.0118 -0.5255  0.4086
29462SOL    HW291019   4.033   6.773   0.939  1.0173 -0.0238 -0.1159
29463SOL     OW91020   9.489   9.493   4.617 -0.4057 -0.0989  0.1266
29463SOL    HW191021   9.411   9.547   4.607 -0.6479 -0.5354 -0.3520
29463SOL    HW291022   9.558   9.556   4.639 -0.4510  0.5624 -1.4612
29464SOL     OW91023   3.330   4.140   7.229 -0.3241 -0.0677 -0.0966
29464SOL    HW191024   3.369   4.102   7.150  0.3550 -1.6677  0.9685
29464SOL    HW291025   3.362   4.230   7.230 -0.9651  0.2275 -2.0351
29465SOL     OW91026   4.843   1.829   2.820 -0.3154  0.1165 -0.3839
29465SOL    HW191027   4.776   1.797   2.880  0.9087  1.3769  1.7835
29465SOL    HW291028   4.923   1.783   2.846  0.3011  0.8985 -0.8395
29466SOL     OW91029  10.032   0.035   0.583 -0.2973  0.1656 -0.5562
29466SOL    HW191030  10.074   0.098   0.641  0.2679 -1.9168  1.4409
29466SOL    HW291031   9.944   0.023   0.620 -0.8431  0.6175 -1.6384
29467SOL     OW91032   9.856   3.494   5.440 -0.2811  0.4947  0.5255
29467SOL    HW191033   9.773   3.527   5.472 -0.7767 -1.1774  1.0844
29467SOL    HW291034   9.862   3.525   5.349 -1.2756  1.0165  0.6319
29468SOL     OW91035   4.938   3.732   1.730 -0.3719  0.1274 -0.1161
29468SOL    HW191036   4.936   3.704   1.639  0.8301  1.9037 -0.7493
29468SOL    HW291037   5.005   3.800   1.732 -1.6624  1.4262  1.7091
29469SOL     OW91038   4.379   5.207   1.515 -0.0085  0.0616  0.3753
29469SOL    HW191039   4.425   5.163   1.444  0.7243  0.3978  0.6279
29469SOL    HW291040   4.292   5.167   1.517  0.1688 -0.3644 -0.3171
29470SOL     OW91041   5.854   7.334   4.309  0.1631  0.2148 -0.2389
29470SOL    HW191042   5.946   7.362   4.313  0.9252 -1.6749 -2.2771
29470SOL    HW291043   5.805   7.415   4.294  1.7116  1.0671 -0.9714
29471SOL     OW91044   1.988   9.916  10.280 -0.3546 -0.5938  0.3793
29471SOL    HW191045   2.063   9.883  10.231 -0.0013 -1.8995  1.7256
29471SOL    HW291046   1.996   9.876  10.366 -1.2399  1.2064  1.3585
29472SOL     OW91047   2.967   1.548   6.845 -0.1342  0.2041  0.0487
29472SOL    HW191048   2.982   1.508   6.759  1.1968 -0.0367  0.3704
29472SOL    HW291049   2.997   1.638   6.835  2.4229 -0.4845  0.9104
29473SOL     OW91050   2.753   6.839   0.790 -0.0633 -0.4215 -0.2866
29473SOL    HW191051   2.759   6.751   0.827  2.9015 -0.9967 -1.8008
29473SOL    HW291052   2.723   6.826   0.700 -0.6051  0.2376 -0.2089
29474SOL     OW91053   2.751   7.368   3.115  0.2097 -0.5441  0.5329
29474SOL    HW191054   2.693   7.434   3.078  0.7222 -1.1279 -1.3861
29474SOL    HW291055   2.836   7.411   3.121  0.8564 -1.3620 -1.9503
29475SOL     OW91056   5.442   2.203   0.872 -0.4181  0.0875  0.0653
29475SOL    HW191057   5.433   2.298   0.867  0.6833  0.2675  0.9945
29475SOL    HW291058   5.519   2.189   0.928  0.5895 -1.3228 -1.5456
29476SOL     OW91059  10.299   7.330   1.360  0.2803  0.1273 -0.0675
29476SOL    HW191060  10.225   7.284   1.399  0.1368  0.2477 -0.1935
29476SOL    HW291061  10.325   7.275   1.286 -1.4450  1.4092 -1.7221
29477SOL     OW91062   7.410   8.267   4.992 -0.4395  0.2393 -0.3609
29477SOL    HW191063   7.433   8.212   4.917 -0.4542  1.5479 -1.3526
29477SOL    HW291064   7.403   8.205   5.065  0.2098 -0.9842 -1.2874
29478SOL     OW91065   5.192   7.690   5.270  0.0693 -0.3980 -0.5286
29478SOL    HW191066   5.255   7.660   5.205  1.2869 -0.1366  0.4842
29478SOL    HW291067   5.238   7.758   5.319 -0.6040 -0.9187  0.9079
29479SOL     OW91068   6.471   8.505   4.818 -0.0486  0.0679  0.3652
29479SOL    HW191069   6.491   8.498   4.912 -0.6537 -1.3869  0.4158
29479SOL    HW291070   6.533   8.446   4.776 -0.5999 -0.2482 -0.0177
29480SOL     OW91071   3.780   8.152   6.905  0.2175 -0.5572  0.4196
29480SOL    HW191072   3.770   8.058   6.921 -0.8475 -0.5824 -0.2764
29480SOL    HW291073   3.749   8.193   6.986 -0.0531 -0.7986  0.4427
29481SOL     OW91074   5.326   5.600  10.327  0.3810  0.2706 -0.1772
29481SOL    HW191075   5.411   5.642  10.315  0.3354  0.0090 -1.5819
29481SOL    HW291076   5.347   5.511  10.358  0.6428  0.1123 -0.7924
29482SOL     OW91077   4.512   1.546   2.307 -0.1591 -0.5000 -0.3711
29482SOL    HW191078   4.553   1.525   2.390  0.4743 -1.5030 -0.9148
29482SOL    HW291079   4.436   1.599   2.330 -0.8397 -1.9722  0.9666
29483SOL     OW91080   6.471   6.880   5.361  0.0861 -0.1755  0.0686
29483SOL    HW191081   6.386   6.844   5.384 -0.5223 -0.1809 -2.0342
29483SOL    HW291082   6.523   6.873   5.442 -2.0968  0.5255  1.6194
29484SOL     OW91083   3.701   0.058   4.168 -0.3550 -0.1045 -0.3339
29484SOL    HW191084   3.708   0.149   4.138 -1.4431  0.0759 -0.1034
29484SOL    HW291085   3.637   0.019   4.108 -3.1575  0.4520  2.0335
29485SOL     OW91086   1.091   9.343   4.100  0.2268  0.4830 -0.1441
29485SOL    HW191087   1.091   9.298   4.015  0.1862  1.4910 -0.6961
29485SOL    HW291088   1.049   9.282   4.160 -0.6217  0.1316 -1.0753
29486SOL     OW91089   3.695   2.563   1.559 -1.1095 -0.6010 -0.3659
29486SOL    HW191090   3.669   2.472   1.547 -0.3817 -1.0756  1.4052
29486SOL    HW291091   3.720   2.570   1.651  0.4920  0.9565 -0.8530
29487SOL     OW91092  10.019   7.046   4.434 -0.0993  0.3268  0.6157
29487SOL    HW191093  10.112   7.020   4.435 -0.4849 -1.1346  0.3809
29487SOL    HW291094  10.008   7.097   4.515  0.8263  0.1962  0.8412
29488SOL     OW91095   4.682   3.639   3.890 -0.0912 -0.3508 -0.0709
29488SOL    HW191096   4.651   3.729   3.900  1.0740  0.0132  0.4233
29488SOL    HW291097   4.642   3.608   3.809 -0.7715  0.4995 -0.0621
29489SOL     OW91098   4.181   1.389   9.802 -0.7576 -0.2101 -0.5930
29489SOL    HW191099   4.172   1.484   9.800  0.4942 -0.0767 -0.4277
29489SOL    HW291100   4.228   1.371   9.883 -1.3505 -1.0124 -0.4172
29490SOL     OW91101   9.757   8.819  10.123  0.5160 -0.0919  1.0677
29490SOL    HW191102   9.752   8.914  10.117  2.1879  0.0606  1.4233
29490SOL    HW291103   9.685   8.787  10.069 -0.2646  1.3722  1.2114
29491SOL     OW91104   7.896   9.557   1.272 -0.7347  0.2158 -0.2161
29491SOL    HW191105   7.982   9.534   1.306 -0.3719 -0.4407 -1.5086
29491SOL    HW291106   7.899   9.652   1.261  0.7053 -0.0177 -2.4170
29492SOL     OW91107   4.194   9.707   0.449 -0.0571  0.1615 -0.0990
29492SOL    HW191108   4.107   9.744   0.458  0.6005  1.9568 -0.6000
29492SOL    HW291109   4.220   9.730   0.359  1.3934  0.8102  0.4485
29493SOL     OW91110   1.269   2.789   3.974  0.1977  0.1096  0.0492
29493SOL    HW191111   1.295   2.851   3.906 -1.6243 -0.2499 -1.0643
29493SOL    HW291112   1.188   2.751   3.941 -1.4449  0.7771  3.0011
29494SOL     OW91113   5.281   4.274   9.137 -0.1481 -0.4880 -0.3711
29494SOL    HW191114   5.311   4.215   9.067  1.7737 -0.3836  0.3037
29494SOL    HW291115   5.357   4.329   9.156 -1.4277  1.1910  0.0833
29495SOL     OW91116   4.517   7.536   5.407  0.3665  0.2849 -0.1913
29495SOL    HW191117   4.483   7.590   5.478 -1.1136 -0.2200 -0.4966
29495SOL    HW291118   4.468   7.563   5.330  0.0889 -0.9842 -0.4895
29496SOL     OW91119   2.586   1.960   3.757 -0.3578 -0.0335  0.5489
29496SOL    HW191120   2.576   1.929   3.847 -0.0543 -0.1568  0.5434
29496SOL    HW291121   2.636   1.891   3.714 -2.3938 -1.0540 -0.3158
29497SOL     OW91122   3.089   8.382   2.960  0.6065 -0.2997 -0.3699
29497SOL    HW191123   3.095   8.332   2.878  1.5041  0.8153 -1.0116
29497SOL    HW291124   3.032   8.329   3.016 -0.0948 -1.0549 -1.7384
29498SOL     OW91125   8.726   4.556   0.493  0.3274 -0.2149  0.0197
29498SOL    HW191126   8.748   4.559   0.586  1.5789  0.8193 -0.2775
29498SOL    HW291127   8.688   4.641   0.473 -0.6004 -0.6832 -0.2780
29499SOL     OW91128   6.522   4.752   5.850  0.6526 -0.2650  0.3737
29499SOL    HW191129   6.477   4.742   5.933  0.6165 -0.1598  0.3677
29499SOL    HW291130   6.614   4.766   5.874  0.7462 -0.8525  0.3710
29500SOL     OW91131   4.464   3.141   7.293  0.3617 -0.0245  0.4350
29500SOL    HW191132   4.550   3.150   7.252  0.1316  2.0372  0.2919
29500SOL    HW291133   4.450   3.047   7.299  1.8937 -0.4033 -1.0742
29501SOL     OW91134   8.467   4.056   5.987 -0.2658 -0.8291 -0.0130
29501SOL    HW191135   8.377   4.089   5.980 -0.3134 -1.0071 -0.2573
29501SOL    HW291136   8.511   4.094   5.910  0.3325  0.7068  1.0303
29502SOL     OW91137   2.428   3.423   2.160  0.0772  0.2228  0.3037
29502SOL    HW191138   2.459   3.341   2.198  0.6747  1.3912  2.5428
29502SOL    HW291139   2.506   3.478   2.154 -0.1025  0.2824 -2.2671
29503SOL     OW91140   2.380   4.688   9.936  0.0978 -0.0183  0.4969
29503SOL    HW191141   2.403   4.767   9.886 -1.0175  0.1320  0.2002
29503SOL    HW291142   2.382   4.717  10.027  0.2109  0.2187  0.4220
29504SOL     OW91143   5.839   5.462   1.625  0.1572 -0.1443 -0.6948
29504SOL    HW191144   5.746   5.465   1.603 -0.4229  2.1389  1.6041
29504SOL    HW291145   5.841   5.452   1.720  2.3970 -4.0353 -0.9449
29505SOL     OW91146  10.159   2.157   9.557  0.1901 -0.5273  0.1571
29505SOL    HW191147  10.243   2.121   9.528  1.0753  0.1752  1.7330
29505SOL    HW291148  10.164   2.250   9.537  0.3533 -0.2431  1.4340
29506SOL     OW91149   0.482   5.991   3.674 -0.5732 -0.1498 -0.1884
29506SOL    HW191150   0.463   5.916   3.617  0.2140 -1.7066  1.4930
29506SOL    HW291151   0.421   5.983   3.747 -1.0923  1.4088 -0.4158
29507SOL     OW91152   1.834   9.234   8.517  0.4983 -0.5307 -0.3152
29507SOL    HW191153   1.908   9.293   8.503 -0.6642  1.2324  0.6358
29507SOL    HW291154   1.801   9.257   8.604 -3.3630  1.3555 -2.0469
29508SOL     OW91155   3.972   1.840   0.364  0.3486  0.1315 -0.2716
29508SOL    HW191156   3.920   1.839   0.444 -0.9940  1.3069 -1.0797
29508SOL    HW291157   4.053   1.886   0.388 -0.2459  0.9005  0.3075
29509SOL     OW91158   4.745   4.351   0.740 -0.4853  0.3961 -0.1515
29509SOL    HW191159   4.692   4.331   0.663 -0.6456 -1.5511  0.4274
29509SOL    HW291160   4.833   4.367   0.705 -0.2556 -1.7441 -0.6940
29510SOL     OW91161  10.035   9.076   0.565  0.5372 -0.0955 -0.0772
29510SOL    HW191162   9.941   9.073   0.547  0.4325 -1.1211  0.5526
29510SOL    HW291163  10.057   9.169   0.565 -0.8045  0.2638  1.3640
29511SOL     OW91164   6.419   4.607   2.436 -0.2556  0.4063 -0.0254
29511SOL    HW191165   6.512   4.605   2.414 -0.1627 -0.4276  0.4211
29511SOL    HW291166   6.383   4.675   2.378  0.6859  1.0109  0.0672
29512SOL     OW91167   6.548   9.124   7.078  0.1280  0.2795 -0.3762
29512SOL    HW191168   6.462   9.111   7.039  0.0726  0.1770 -0.2249
29512SOL    HW291169   6.535   9.106   7.171  0.1288  1.1097 -0.2123
29513SOL     OW91170   9.974   2.727   8.796  0.0331  0.7336  0.4013
29513SOL    HW191171   9.944   2.818   8.788  0.8406  1.0970  1.3089
29513SOL    HW291172   9.920   2.690   8.866 -0.7827  0.2861 -0.4437
29514SOL     OW91173   0.454   8.787   1.052  0.1249 -0.1819 -0.4187
29514SOL    HW191174   0.385   8.734   1.091  1.5130 -1.1078  0.8806
29514SOL    HW291175   0.476   8.852   1.119 -0.1474  0.7652 -1.2158
29515SOL     OW91176   5.426   5.261   3.729  0.4693  0.4127 -0.1561
29515SOL    HW191177   5.431   5.180   3.781  1.4597  0.9833  0.6813
29515SOL    HW291178   5.374   5.237   3.652  1.7711 -1.3580 -0.5468
29516SOL     OW91179   6.645   1.090   8.784 -0.2861  0.3723 -0.3481
29516SOL    HW191180   6.684   1.036   8.715 -2.0858 -1.1888 -0.2144
29516SOL    HW291181   6.650   1.179   8.750  0.5223 -0.1475 -1.6783
29517SOL     OW91182   3.114   8.732   3.663 -0.7662  0.2416 -0.0410
29517SOL    HW191183   3.067   8.814   3.652 -1.7846 -0.3713 -0.3594
29517SOL    HW291184   3.107   8.711   3.756 -0.6748  0.4110  0.0038
29518SOL     OW91185   8.842   1.049   7.488 -0.6942  0.4213  0.2055
29518SOL    HW191186   8.906   0.979   7.476 -1.2161 -0.0175 -0.0669
29518SOL    HW291187   8.857   1.109   7.416 -0.7340  0.2065  0.0187
29519SOL     OW91188   7.796   0.222   2.699 -0.3100 -0.5270 -0.1940
29519SOL    HW191189   7.738   0.298   2.695  1.3364  0.8417  0.1882
29519SOL    HW291190   7.815   0.202   2.607  1.9463  1.8423 -0.3804
29520SOL     OW91191   1.858   1.016   5.745  0.3781  0.0402 -0.5178
29520SOL    HW191192   1.864   1.046   5.836 -0.1869 -1.0622 -0.0997
29520SOL    HW291193   1.876   1.095   5.693  0.8491  0.6577  0.5371
29521SOL     OW91194   7.412   0.978   6.922  0.0811  0.0651 -0.0809
29521SOL    HW191195   7.456   0.905   6.964  0.6149 -0.1230 -0.9462
29521SOL    HW291196   7.428   0.966   6.828 -1.2502  0.3534 -0.3746
29522SOL     OW91197   1.912   6.677   7.780  0.1321  0.3337 -0.0498
29522SOL    HW191198   1.953   6.763   7.794 -0.6316  0.8399 -0.7552
29522SOL    HW291199   1.920   6.632   7.864  1.7729  0.5427 -0.0498
29523SOL     OW91200   6.549   7.594   8.854  0.1580 -0.0995 -0.0586
29523SOL    HW191201   6.505   7.509   8.849 -2.3098  1.0664  0.3369
29523SOL    HW291202   6.518   7.642   8.777  0.2091  1.0092  0.5846
29524SOL     OW91203   9.813   1.777   3.300 -1.1952  0.1498 -0.4145
29524SOL    HW191204   9.856   1.859   3.323 -0.4660 -0.5365  0.7763
29524SOL    HW291205   9.806   1.730   3.383  0.5537 -1.9994 -1.3886
29525SOL     OW91206   4.289   5.841   0.859  0.0249  0.3320 -0.0160
29525SOL    HW191207   4.278   5.914   0.919  0.9169 -0.3304  0.9887
29525SOL    HW291208   4.201   5.802   0.853 -0.0748  0.3803  0.9098
29526SOL     OW91209   3.380   7.645   0.244  0.2383  0.2353 -0.0539
29526SOL    HW191210   3.334   7.561   0.243  0.7912 -0.1018  1.2059
29526SOL    HW291211   3.370   7.677   0.333  0.9776  0.9766 -0.2221
29527SOL     OW91212   2.374   3.923   2.155  0.2588 -0.0363 -0.0266
29527SOL    HW191213   2.291   3.903   2.199  0.7079 -2.5357 -0.1934
29527SOL    HW291214   2.441   3.905   2.220  0.8264 -1.8737 -1.0499
29528SOL     OW91215   5.992   1.098   7.171  0.2775  0.3706  0.2782
29528SOL    HW191216   6.084   1.124   7.163  0.7184 -0.4211  2.3290
29528SOL    HW291217   5.961   1.143   7.250 -0.2623 -1.5839  1.2412
29529SOL     OW91218   5.761   5.354   6.458 -0.4939 -0.2834 -0.1077
29529SOL    HW191219   5.792   5.308   6.380 -1.2087  1.9057 -1.7864
29529SOL    HW291220   5.680   5.397   6.431 -0.2124  1.4261  1.5121
29530SOL     OW91221   7.069   7.800   4.173  0.4708 -0.5800 -0.2103
29530SOL    HW191222   7.134   7.758   4.230  0.0251  0.0368  0.7766
29530SOL    HW291223   7.065   7.743   4.096  3.7874  0.4932 -1.3570
29531SOL     OW91224   1.135   0.814   1.207  0.1962 -0.1359 -0.0738
29531SOL    HW191225   1.093   0.763   1.276 -1.2648  1.0467 -0.0341
29531SOL    HW291226   1.075   0.888   1.192  0.2912 -0.5138 -2.8139
29532SOL     OW91227   1.987   1.186   0.050 -0.0653  0.3337  0.6767
29532SOL    HW191228   2.040   1.127   0.104  0.7853  1.1235  0.7427
29532SOL    HW291229   2.045   1.210  -0.022 -1.8853 -2.5025 -2.0001
29533SOL     OW91230   6.359   2.682   2.043  0.0185  0.2333 -0.1162
29533SOL    HW191231   6.448   2.698   2.075 -0.1321 -0.0510  0.4746
29533SOL    HW291232   6.329   2.607   2.095 -0.4548  0.1362 -0.5288
29534SOL     OW91233   6.910   1.920   1.139  0.1092 -0.1360  0.0003
29534SOL    HW191234   6.913   2.000   1.191  0.2591 -0.8629  1.1354
29534SOL    HW291235   6.820   1.888   1.149  0.3220 -0.6300  0.3649
29535SOL     OW91236   0.306   2.467   1.981  0.1671 -0.4400 -0.7658
29535SOL    HW191237   0.259   2.530   2.036  0.2889  1.4356 -2.7055
29535SOL    HW291238   0.391   2.456   2.025 -0.0533  0.3661 -0.1079
29536SOL     OW91239   8.505   4.715   8.282  0.1143 -0.4452  0.2106
29536SOL    HW191240   8.494   4.664   8.202  0.4537  1.4165 -1.0910
29536SOL    HW291241   8.595   4.695   8.311  0.1504 -0.7662 -0.1173
29537SOL     OW91242   6.428   1.736   7.455  0.3256 -0.0516 -0.2234
29537SOL    HW191243   6.442   1.650   7.495 -1.1487 -0.3388 -0.2922
29537SOL    HW291244   6.339   1.734   7.422  0.0820  1.6866  0.1981
29538SOL     OW91245   3.792   1.342   2.376  0.1329  0.0873  0.5446
29538SOL    HW191246   3.846   1.311   2.448  0.2823 -0.5613  0.1662
29538SOL    HW291247   3.809   1.436   2.371  2.1788 -0.2808 -0.3494
29539SOL     OW91248   5.653   4.192   4.937  0.4287  0.2832  0.1962
29539SOL    HW191249   5.737   4.238   4.940  1.1584 -0.9259 -0.8288
29539SOL    HW291250   5.590   4.261   4.915  1.1289  1.2059  0.9759
29540SOL     OW91251   8.289   8.237   0.576 -0.1839  0.4297 -0.1426
29540SOL    HW191252   8.297   8.143   0.557  0.9872  0.0408  1.9721
29540SOL    HW291253   8.222   8.243   0.643  0.0406  1.0500  0.0372
29541SOL     OW91254   5.579   8.640   0.502  0.2192  0.0012  0.4557
29541SOL    HW191255   5.668   8.646   0.466  0.0558  2.1436  0.2689
29541SOL    HW291256   5.583   8.690   0.583 -0.7468 -0.0932  0.5654
29542SOL     OW91257   1.272  10.076   5.042 -0.4723  0.3699 -0.1013
29542SOL    HW191258   1.205  10.141   5.022  0.7558  2.0547  1.0530
29542SOL    HW291259   1.353  10.126   5.048  0.5822 -1.3320  0.4920
29543SOL     OW91260   6.777   7.867   8.843 -0.2454  0.0127  0.0455
29543SOL    HW191261   6.733   7.834   8.921 -0.6638 -3.3317 -1.4185
29543SOL    HW291262   6.830   7.794   8.813  0.3578  1.3637 -2.4975
29544SOL     OW91263  10.277   6.449   6.646  0.5238 -0.2719  0.3859
29544SOL    HW191264  10.324   6.481   6.723 -0.5837 -0.2143  1.0658
29544SOL    HW291265  10.284   6.520   6.582 -0.0320  0.4300  1.0828
29545SOL     OW91266   6.780   1.712   2.642 -0.0238  0.1326 -0.3231
29545SOL    HW191267   6.845   1.670   2.699  2.2893  0.4720 -2.5807
29545SOL    HW291268   6.813   1.800   2.628 -2.0031  0.9757 -0.0539
29546SOL     OW91269   7.930   5.965   0.508 -0.3283 -0.3476  0.4312
29546SOL    HW191270   7.994   5.945   0.577  0.8771  1.0715 -0.2163
29546SOL    HW291271   7.924   5.884   0.457  1.7544 -0.2320 -0.0793
29547SOL     OW91272   6.381   3.230   3.691 -0.3537  0.0077 -0.6573
29547SOL    HW191273   6.469   3.249   3.724 -0.5310 -0.0787 -0.1231
29547SOL    HW291274   6.328   3.302   3.724 -0.9394 -1.1295  0.9885
29548SOL     OW91275   6.756   9.473   7.733 -0.1814  0.7673  0.0125
29548SOL    HW191276   6.755   9.495   7.826  0.2018 -0.0927  0.2306
29548SOL    HW291277   6.784   9.382   7.730  4.2898  1.8914 -1.1174
29549SOL     OW91278   1.019   0.017   1.427  0.4120 -0.6127 -0.0330
29549SOL    HW191279   0.949   0.056   1.480  1.2862  0.1611  0.5785
29549SOL    HW291280   1.006  -0.077   1.437 -0.1987 -0.4813  0.5311
29550SOL     OW91281   0.867   2.458   5.475 -0.1635 -0.2984 -0.1667
29550SOL    HW191282   0.772   2.448   5.476 -0.4584  1.8823  0.7942
29550SOL    HW291283   0.901   2.376   5.509 -1.7900 -0.5875  0.8726
29551SOL     OW91284   5.789   6.871   6.137 -0.3107  0.0641  0.3005
29551SOL    HW191285   5.810   6.835   6.051  0.9545  1.4173  0.0154
29551SOL    HW291286   5.872   6.877   6.183 -0.6197  1.5096  0.7507
29552SOL     OW91287   6.336   7.431   4.242  0.6870  0.6584 -0.3822
29552SOL    HW191288   6.318   7.474   4.159  0.4129 -0.2714 -0.8160
29552SOL    HW291289   6.411   7.375   4.225 -1.4216 -2.2199 -1.0307
29553SOL     OW91290   3.849   5.393   6.979  0.0313 -0.2115  0.3447
29553SOL    HW191291   3.777   5.389   6.917 -0.4671 -1.8972  0.9773
29553SOL    HW291292   3.927   5.375   6.926 -0.0256  1.2168 -0.2683
29554SOL     OW91293   7.515   0.871   2.457  0.4682  0.6504  0.2673
29554SOL    HW191294   7.481   0.819   2.384  1.2538  0.3147  0.1304
29554SOL    HW291295   7.603   0.897   2.429  0.0171  2.2441  0.2409
29555SOL     OW91296   2.487   0.889   2.793 -0.4819  0.2901  0.3242
29555SOL    HW191297   2.502   0.887   2.888 -0.2652  1.1464  0.3117
29555SOL    HW291298   2.393   0.872   2.784 -0.4511 -0.0863  0.6749
29556SOL     OW91299   2.966   4.567   8.553 -0.0195  0.2705  0.0999
29556SOL    HW191300   2.945   4.474   8.562  1.3950  0.0558  1.6602
29556SOL    HW291301   2.942   4.605   8.638  2.7950  0.5929  0.8276
29557SOL     OW91302   6.941   1.397   8.324  0.2292 -0.3695 -0.3041
29557SOL    HW191303   6.882   1.409   8.250  0.5022  1.2166 -0.3035
29557SOL    HW291304   6.883   1.398   8.401  0.0442 -1.0570 -0.4284
29558SOL     OW91305   5.639   9.875   6.922 -0.0645  0.6352  0.6009
29558SOL    HW191306   5.733   9.893   6.918  0.1482 -0.0391  1.9907
29558SOL    HW291307   5.629   9.812   6.994 -1.3490 -0.8719 -0.7846
29559SOL     OW91308   0.306   4.311   9.962 -0.4112 -0.7080  0.1631
29559SOL    HW191309   0.332   4.312   9.870  0.1274  1.1678  0.2944
29559SOL    HW291310   0.389   4.313  10.010 -0.7037  0.1790  0.6500
29560SOL     OW91311   8.027   6.271   2.297  0.1387  0.3050  0.1133
29560SOL    HW191312   7.957   6.207   2.283  0.2205  0.4383 -0.9998
29560SOL    HW291313   7.981   6.352   2.319 -0.0551  0.3308 -0.3741
29561SOL     OW91314   1.383   2.029   3.935  0.3915  0.3908 -0.3539
29561SOL    HW191315   1.451   2.062   3.993 -1.1634  0.6942  1.3935
29561SOL    HW291316   1.349   2.108   3.891  1.0469  0.2539 -1.1347
29562SOL     OW91317   6.935   4.283   3.746 -0.3856 -0.5529  0.4338
29562SOL    HW191318   7.028   4.303   3.746 -0.5677  0.3410  0.0631
29562SOL    HW291319   6.929   4.194   3.711  0.3466 -0.7445  0.7745
29563SOL     OW91320   8.912   9.578   1.897 -0.4632 -0.4417 -0.2402
29563SOL    HW191321   8.935   9.535   1.815 -0.6493 -0.2888 -0.3737
29563SOL    HW291322   8.834   9.531   1.927  0.0635 -1.0146  0.2540
29564SOL     OW91323   1.852   4.029   3.536  0.3960  0.6736 -0.8112
29564SOL    HW191324   1.916   3.958   3.530  0.2319  0.5405 -1.0229
29564SOL    HW291325   1.893   4.094   3.593  0.5725  0.4357 -0.6650
29565SOL     OW91326  10.263   5.554   2.305  0.0084 -0.0532  0.0825
29565SOL    HW191327  10.271   5.607   2.384 -0.3372 -0.4031  0.3559
29565SOL    HW291328  10.227   5.471   2.335 -1.7731  0.4037 -0.6542
29566SOL     OW91329   7.404  10.116   8.762  0.3603  0.2824  0.3365
29566SOL    HW191330   7.329  10.061   8.783  1.5019 -0.9209  1.5151
29566SOL    HW291331   7.371  10.181   8.700 -1.2230 -1.2519 -0.4849
29567SOL     OW91332   3.171   2.518   0.735  0.2532  0.4220 -0.5041
29567SOL    HW191333   3.258   2.483   0.716  0.9590  2.1965 -0.7410
29567SOL    HW291334   3.150   2.484   0.822  0.7154 -0.8588 -0.8707
29568SOL     OW91335   0.947   8.742   7.209 -0.1151  0.7071  0.2184
29568SOL    HW191336   1.039   8.767   7.212 -0.3664  1.6944 -0.0067
29568SOL    HW291337   0.924   8.726   7.300  0.7638 -1.4474  0.1071
29569SOL     OW91338   3.339   4.928   9.452  0.2229 -1.0978 -0.5417
29569SOL    HW191339   3.390   4.857   9.492  0.2795 -0.7284  0.0485
29569SOL    HW291340   3.403   4.981   9.405  0.8031  0.6323  1.9836
29570SOL     OW91341   4.270   3.475   6.008  0.1644 -0.5312 -0.0809
29570SOL    HW191342   4.308   3.516   5.930  0.6694  1.4104  1.1281
29570SOL    HW291343   4.320   3.394   6.018  0.7758 -0.3212 -1.1916
29571SOL     OW91344   0.292   7.043   2.436 -0.1659  0.1959 -0.5336
29571SOL    HW191345   0.332   6.972   2.387 -0.4892 -0.3656  0.0042
29571SOL    HW291346   0.199   7.023   2.438 -0.1985  0.3727  0.0388
29572SOL     OW91347   2.521   7.902   8.873  0.1288 -0.1194  0.1436
29572SOL    HW191348   2.577   7.960   8.924 -0.4256  0.8410 -0.3108
29572SOL    HW291349   2.432   7.922   8.902  0.0128 -2.1712  1.4134
29573SOL     OW91350   4.223   5.259  10.138  0.2645 -0.0817 -0.4613
29573SOL    HW191351   4.137   5.289  10.109 -0.0561 -2.5928 -2.5192
29573SOL    HW291352   4.257   5.209  10.063  3.3555  0.4562  0.4408
29574SOL     OW91353   7.736   6.809   0.629  0.1274  0.1618 -0.0853
29574SOL    HW191354   7.753   6.785   0.721 -0.1541 -0.6480 -0.2399
29574SOL    HW291355   7.665   6.873   0.634  1.3766  1.6052  0.3852
29575SOL     OW91356   7.877   7.683   7.662 -0.1844  0.4465 -0.3210
29575SOL    HW191357   7.788   7.648   7.659 -0.6082  1.3341  0.9453
29575SOL    HW291358   7.895   7.711   7.573 -0.5076 -1.2935 -0.9665
29576SOL     OW91359   6.904   3.180   2.371 -0.0722  0.0924 -0.0308
29576SOL    HW191360   6.995   3.152   2.372  0.9987  3.2064  0.1096
29576SOL    HW291361   6.878   3.175   2.279  1.0906  1.4916 -0.4669
29577SOL     OW91362   3.271   8.336  10.224  0.4322 -0.1161 -0.3110
29577SOL    HW191363   3.329   8.403  10.188 -0.0120  0.5265  0.1434
29577SOL    HW291364   3.253   8.365  10.314  0.6847 -1.1445  0.0792
29578SOL     OW91365   5.718   3.231   5.669  0.7682 -0.3966 -0.5699
29578SOL    HW191366   5.770   3.296   5.620  0.5909  0.4340  0.3239
29578SOL    HW291367   5.725   3.151   5.616  1.5685  0.1521 -1.3347
29579SOL     OW91368   6.967   7.316   7.311 -0.1014  0.0498  0.2229
29579SOL    HW191369   6.898   7.252   7.294 -0.5211  0.5164  0.1673
29579SOL    HW291370   6.929   7.376   7.375 -0.4919  1.4840 -1.2652
29580SOL     OW91371   2.206   6.893   9.111  0.2318  0.0205  0.1177
29580SOL    HW191372   2.124   6.933   9.080  0.2075  0.9905  1.3488
29580SOL    HW291373   2.215   6.925   9.201  1.3716 -1.0190  0.3869
29581SOL     OW91374   7.263   6.040   6.061  0.0748 -0.1773  0.0345
29581SOL    HW191375   7.180   5.993   6.067  0.1532 -0.3914 -0.5002
29581SOL    HW291376   7.325   5.975   6.026  0.1225  0.3911 -0.9782
29582SOL     OW91377   5.306   0.422   6.951 -0.0008 -0.0902  0.2019
29582SOL    HW191378   5.265   0.356   7.008 -1.4798 -0.1686 -0.8785
29582SOL    HW291379   5.315   0.377   6.867 -1.0766  1.0730 -0.5639
29583SOL     OW91380   9.989   7.215   4.665 -0.1578 -0.4103 -0.0313
29583SOL    HW191381   9.958   7.301   4.637  1.5635  0.1504 -0.2937
29583SOL    HW291382   9.938   7.196   4.744 -0.0565  1.1759  0.4488
29584SOL     OW91383   7.009   0.827   4.167  0.1866 -0.4295  0.1439
29584SOL    HW191384   7.039   0.783   4.087  0.6753 -0.0922  0.1406
29584SOL    HW291385   7.087   0.831   4.222  0.2815  0.9084 -0.0629
29585SOL     OW91386   4.755   5.714   9.737  0.2970  0.2433  0.0002
29585SOL    HW191387   4.692   5.766   9.787 -0.0267  1.2068 -1.3535
29585SOL    HW291388   4.840   5.735   9.776 -0.1021 -0.4315  1.2990
29586SOL     OW91389   1.996   2.741   2.825  0.3962  0.4672  0.0340
29586SOL    HW191390   1.994   2.781   2.738  1.7405 -0.8173 -0.6380
29586SOL    HW291391   2.061   2.671   2.817 -1.0600 -1.1376  1.4313
29587SOL     OW91392   6.664   1.350   4.240 -0.3185 -0.1240  0.1861
29587SOL    HW191393   6.745   1.381   4.281 -0.5270  1.6099 -0.6250
29587SOL    HW291394   6.672   1.375   4.148 -1.1441 -1.2770 -0.2203
29588SOL     OW91395   5.441   4.070   8.707  0.1002 -1.0332  0.5252
29588SOL    HW191396   5.507   4.138   8.721  0.7556 -1.6404  0.4552
29588SOL    HW291397   5.423   4.036   8.794  3.7071 -4.3718  0.2751
29589SOL     OW91398   3.585   5.866   6.311  0.0621 -0.0967 -0.2916
29589SOL    HW191399   3.611   5.858   6.403 -2.0182  1.2797  0.4919
29589SOL    HW291400   3.532   5.788   6.294 -2.2991  1.1775  0.7605
29590SOL     OW91401   6.293   9.828   0.387 -0.1595 -0.1551 -0.3205
29590SOL    HW191402   6.224   9.862   0.330  0.0936 -0.6122 -0.9190
29590SOL    HW291403   6.247   9.784   0.458 -0.5149  2.4803  1.1775
29591SOL     OW91404   6.519   0.357   1.289  0.2088 -0.1499 -0.3105
29591SOL    HW191405   6.479   0.363   1.203 -0.4814 -0.0755  0.0132
29591SOL    HW291406   6.530   0.263   1.304  2.3695 -0.1435 -1.3957
29592SOL     OW91407   0.563   2.662   4.509  0.3743  0.0353  0.4160
29592SOL    HW191408   0.520   2.580   4.536 -0.0650  0.0287 -0.2905
29592SOL    HW291409   0.547   2.668   4.415 -0.4797  1.4479  0.6202
29593SOL     OW91410   2.412   6.978   8.897  0.4407 -0.8180  0.2760
29593SOL    HW191411   2.332   6.929   8.916 -0.5274  0.1006 -1.2786
29593SOL    HW291412   2.447   6.938   8.817  0.5334 -0.0441 -0.0755
29594SOL     OW91413   1.426   3.145   5.536  0.2430 -0.4053 -0.4708
29594SOL    HW191414   1.349   3.159   5.480  0.8137  1.0823 -0.9367
29594SOL    HW291415   1.405   3.193   5.617  1.0713  0.9146 -0.9997
29595SOL     OW91416   6.552   7.838   4.731  0.0226 -0.1652 -0.1731
29595SOL    HW191417   6.512   7.922   4.754 -0.4290 -0.4180 -0.0206
29595SOL    HW291418   6.520   7.820   4.643  1.0004  0.3492 -0.6439
29596SOL     OW91419   0.912   4.251   8.608 -0.3101  0.3145  0.2603
29596SOL    HW191420   0.984   4.267   8.547 -1.0799 -1.1571 -1.1152
29596SOL    HW291421   0.909   4.155   8.615 -1.7587  0.3862  0.7369
29597SOL     OW91422   7.652   0.761   1.007 -0.0604 -0.2459 -0.1618
29597SOL    HW191423   7.571   0.803   1.036 -1.1089 -2.8714  1.0720
29597SOL    HW291424   7.652   0.772   0.912 -1.6515  0.2269 -0.1384
29598SOL     OW91425   0.213   0.137   7.987 -0.2407  0.0697  0.2396
29598SOL    HW191426   0.250   0.061   8.031 -1.2266 -0.9791 -0.6667
29598SOL    HW291427   0.127   0.108   7.957 -0.1469  1.1471 -1.2024
29599SOL     OW91428   4.980   9.030   7.544  0.1357  0.3141  0.5838
29599SOL    HW191429   4.923   8.954   7.548 -0.3575  0.6573  0.2388
29599SOL    HW291430   4.974   9.070   7.631  0.0146  0.2371  0.6095
29600SOL     OW91431   4.678   2.276   9.732 -0.4159  0.4315  0.1822
29600SOL    HW191432   4.714   2.364   9.743 -1.4578  0.9114 -0.1142
29600SOL    HW291433   4.658   2.247   9.820  1.0517 -0.0241  0.4018
29601SOL     OW91434   5.411   5.123   4.930  0.0875 -0.1904  0.2253
29601SOL    HW191435   5.401   5.168   5.014 -2.0223  1.4616 -0.8013
29601SOL    HW291436   5.339   5.157   4.876  1.0320 -1.6012 -2.0786
29602SOL     OW91437   8.883   8.864   4.178  0.4389 -0.7737  0.2022
29602SOL    HW191438   8.975   8.846   4.156  1.0729  1.7416  0.4710
29602SOL    HW291439   8.839   8.869   4.093  0.9182 -0.2765 -0.0222
29603SOL     OW91440   9.600   2.806   8.622  0.5699 -0.0289 -0.7616
29603SOL    HW191441   9.695   2.798   8.631  0.6264  0.0519 -1.2864
29603SOL    HW291442   9.580   2.767   8.537  0.2288  0.6591 -1.0050
29604SOL     OW91443   3.834   1.509   9.935  0.4957  0.6123  0.1411
29604SOL    HW191444   3.824   1.575  10.003  0.7668 -0.1373  0.9171
29604SOL    HW291445   3.901   1.544   9.877  1.6518  0.4036  1.3141
29605SOL     OW91446   9.833   6.168   7.369 -0.1589  0.0153 -0.4748
29605SOL    HW191447   9.825   6.131   7.281  1.8030 -2.8090  0.3789
29605SOL    HW291448   9.844   6.092   7.426  1.9745  1.8280  1.7729
29606SOL     OW91449   4.109  10.177   1.110  0.2446  0.4661 -0.0747
29606SOL    HW191450   4.104  10.202   1.017  0.6531  0.2178 -0.1669
29606SOL    HW291451   4.037  10.115   1.121  0.1773  0.5155 -0.2212
29607SOL     OW91452   6.964   9.844   5.198  0.3266  0.4663  0.0955
29607SOL    HW191453   7.020   9.913   5.232  0.1312  0.2973  0.7627
29607SOL    HW291454   6.939   9.875   5.111 -0.0586  1.4056  0.5281
29608SOL     OW91455   5.305   6.875   3.171 -0.2326  0.3768 -0.3936
29608SOL    HW191456   5.390   6.893   3.211  0.4506  0.8416 -1.9550
29608SOL    HW291457   5.258   6.823   3.236  1.3132 -0.0356  0.4413
29609SOL     OW91458   6.002   2.228   1.569  0.1947  0.1300  0.2833
29609SOL    HW191459   5.922   2.189   1.605  1.1332  0.0514  2.4492
29609SOL    HW291460   6.067   2.158   1.573  0.7441  0.6097 -0.1050
29610SOL     OW91461   4.045   6.152   3.010  0.3688 -0.3587  0.0734
29610SOL    HW191462   4.109   6.222   3.007 -0.9138  0.8297 -0.9789
29610SOL    HW291463   4.050   6.118   3.099  1.8497  0.2524  0.2415
29611SOL     OW91464  10.161   2.448   1.102  0.5178 -0.1863  0.1794
29611SOL    HW191465  10.159   2.543   1.089  0.6606 -0.0622  1.0047
29611SOL    HW291466  10.085   2.415   1.055 -0.0456  0.4433  0.6366
29612SOL     OW91467  10.321   6.072   4.729  0.3094 -0.0547  0.6400
29612SOL    HW191468  10.233   6.088   4.762  0.4935 -0.3347  1.2917
29612SOL    HW291469  10.372   6.147   4.759  0.4617 -0.2731  0.9325
29613SOL     OW91470   2.084   1.868   8.442  0.2291 -0.5553 -0.2612
29613SOL    HW191471   2.020   1.820   8.494  0.9197  0.5517  1.7061
29613SOL    HW291472   2.097   1.813   8.364 -3.1960 -0.7331 -0.8688
29614SOL     OW91473   8.087   0.889   6.078 -0.0006  0.7156 -0.4476
29614SOL    HW191474   7.992   0.878   6.076 -0.0040  0.7439 -0.4490
29614SOL    HW291475   8.119   0.810   6.122 -0.0847  1.0472  0.2330
29615SOL     OW91476   6.191   6.574   4.369  0.1159  0.2004 -0.0948
29615SOL    HW191477   6.247   6.502   4.340 -1.0654 -1.2024  0.9279
29615SOL    HW291478   6.112   6.566   4.315 -0.7720 -0.4473  1.2308
29616SOL     OW91479   6.423   2.275   1.750  0.0106 -0.0609 -0.1585
29616SOL    HW191480   6.425   2.262   1.655 -0.7853  0.5412 -0.2706
29616SOL    HW291481   6.408   2.369   1.760 -1.7723 -0.3741  0.5277
29617SOL     OW91482   1.425   2.972   2.972 -0.3848 -0.4513  0.2143
29617SOL    HW191483   1.518   2.993   2.962 -0.0809 -0.2513  2.8706
29617SOL    HW291484   1.424   2.878   2.994 -0.9040 -0.6372 -0.5435
29618SOL     OW91485   8.866   8.007   6.206 -0.0955 -0.2877 -0.4281
29618SOL    HW191486   8.827   7.924   6.232 -0.2226  0.1015  0.6537
29618SOL    HW291487   8.956   8.003   6.240 -0.1833  0.1230 -0.1429
29619SOL     OW91488   7.739   7.076   4.081  0.2456 -0.4895  0.5883
29619SOL    HW191489   7.665   7.089   4.021  0.6633  0.9575  0.3284
29619SOL    HW291490   7.816   7.091   4.026  0.7130 -1.4661  0.9753
29620SOL     OW91491   2.215   5.461   4.309 -0.2153 -0.2727 -0.0820
29620SOL    HW191492   2.123   5.438   4.298  0.2267 -1.8378 -0.6526
29620SOL    HW291493   2.218   5.506   4.393 -1.1836 -2.1117  0.9951
29621SOL     OW91494   5.891   2.713   5.995  0.3837  0.3751  0.1861
29621SOL    HW191495   5.817   2.654   6.007  0.3239 -0.2344 -2.5639
29621SOL    HW291496   5.955   2.685   6.060 -0.3779 -1.4931  0.1757
29622SOL     OW91497   3.343   3.900   6.116  0.5641 -0.1168 -0.3334
29622SOL    HW191498   3.421   3.931   6.160 -0.2231  1.4963 -0.0038
29622SOL    HW291499   3.335   3.808   6.143  2.4746 -0.4000 -0.6237
29623SOL     OW91500   1.643   4.756  10.354  0.0785  0.2351  0.1764
29623SOL    HW191501   1.664   4.774  10.445 -1.2528 -0.1456  0.5824
29623SOL    HW291502   1.548   4.750  10.352 -0.1042  2.5012 -1.6792
29624SOL     OW91503   2.228   5.284   3.843 -0.1601 -0.3982  0.2286
29624SOL    HW191504   2.281   5.209   3.871  2.0769  0.6949 -0.8568
29624SOL    HW291505   2.137   5.255   3.857  0.6732 -2.0562  2.9042
29625SOL     OW91506   6.026   5.581   7.172  0.1672 -0.3495 -0.0475
29625SOL    HW191507   6.103   5.524   7.171  1.1180  0.9050  0.2731
29625SOL    HW291508   5.962   5.535   7.117  0.4022 -2.3882  1.2563
29626SOL     OW91509   4.639   4.768   5.899  0.8852  0.2231 -0.1789
29626SOL    HW191510   4.678   4.849   5.867  0.6096  0.6199  0.4668
29626SOL    HW291511   4.629   4.782   5.993  0.6501 -0.4841 -0.0953
29627SOL     OW91512   0.225   5.654   6.421  0.7925 -0.1458 -0.0825
29627SOL    HW191513   0.252   5.600   6.495 -0.4620 -0.5737  0.0808
29627SOL    HW291514   0.138   5.685   6.444  0.6104  0.1759 -1.1346
29628SOL     OW91515   3.411   1.797   0.414 -0.0622 -0.0836 -0.0635
29628SOL    HW191516   3.419   1.728   0.349 -0.7419 -1.1806  0.9901
29628SOL    HW291517   3.320   1.795   0.442  0.2546  0.2152  1.0802
29629SOL     OW91518   6.330   6.659   0.056 -0.0464 -0.0150 -0.9794
29629SOL    HW191519   6.367   6.747   0.056 -0.7963  0.3189 -2.0253
29629SOL    HW291520   6.356   6.622  -0.029 -0.3310 -0.5441 -0.8420
29630SOL     OW91521   1.589  10.050   9.564  0.0710 -0.0292  0.2731
29630SOL    HW191522   1.680  10.077   9.577  0.3483 -0.6886 -0.2169
29630SOL    HW291523   1.539  10.101   9.628  0.5792  1.4858 -0.5065
29631SOL     OW91524   0.490   9.363   4.563  0.3116 -0.0418 -0.1774
29631SOL    HW191525   0.432   9.309   4.616 -0.1274  0.2980 -0.3067
29631SOL    HW291526   0.498   9.445   4.611  0.5873 -0.0416 -0.2218
29632SOL     OW91527   4.573   3.555   3.043 -0.3851  0.3898  0.5364
29632SOL    HW191528   4.499   3.568   3.102 -0.7142 -0.0146  0.2270
29632SOL    HW291529   4.606   3.468   3.066 -0.7791  0.0469 -0.1375
29633SOL     OW91530   4.638   5.682   8.644 -0.7454 -0.1448 -0.4844
29633SOL    HW191531   4.627   5.587   8.637 -1.4894 -0.5875  3.9241
29633SOL    HW291532   4.726   5.694   8.679 -0.3322  0.9306 -1.7867
29634SOL     OW91533   3.237   0.717   0.067  0.3820 -0.1178  0.0752
29634SOL    HW191534   3.223   0.734   0.160  0.6635 -0.2068  0.1369
29634SOL    HW291535   3.247   0.622   0.061 -0.4123 -0.1907 -0.1595
29635SOL     OW91536   8.195   3.240   7.721  0.2415 -0.2370  0.1053
29635SOL    HW191537   8.122   3.255   7.780  0.4468  1.5729 -0.0297
29635SOL    HW291538   8.265   3.296   7.755  1.1190 -0.9089 -0.5441
29636SOL     OW91539   3.050   9.406   8.443 -0.2155 -0.0912  0.8205
29636SOL    HW191540   3.111   9.454   8.498  0.6175  2.0951 -1.7608
29636SOL    HW291541   3.088   9.319   8.434  0.2617 -0.0979  2.5840
29637SOL     OW91542   2.118   5.015   4.777 -0.0647  0.2140 -0.7471
29637SOL    HW191543   2.058   5.083   4.810  0.8908  0.7738 -0.1118
29637SOL    HW291544   2.187   5.010   4.843 -0.3490 -1.7141 -0.5672
29638SOL     OW91545   0.264   3.721   4.687 -0.2466  0.0591  0.1120
29638SOL    HW191546   0.233   3.763   4.768  0.8185 -2.0198  1.7150
29638SOL    HW291547   0.187   3.678   4.651 -0.6407  0.6294  0.2654
29639SOL     OW91548   5.145   9.847   3.314 -0.1139  0.1866  0.7691
29639SOL    HW191549   5.159   9.763   3.269  0.7367  0.2507  0.8996
29639SOL    HW291550   5.165   9.828   3.405 -1.6783  0.0996  1.1270
29640SOL     OW91551   9.287   5.031   2.506  0.7672 -0.1560 -0.7310
29640SOL    HW191552   9.203   5.075   2.489 -0.6998 -1.6514  1.9809
29640SOL    HW291553   9.350   5.102   2.511 -1.0226  1.4449  0.8028
29641SOL     OW91554   1.295   7.829   5.921 -0.2997 -0.4984  0.0471
29641SOL    HW191555   1.213   7.836   5.872  0.2962  0.1918 -0.8682
29641SOL    HW291556   1.328   7.741   5.899 -1.0113 -0.9704  0.7973
29642SOL     OW91557   0.318   2.312   7.539  0.3929  0.4130 -0.4531
29642SOL    HW191558   0.242   2.283   7.489  0.3706  1.1388 -0.8392
29642SOL    HW291559   0.347   2.392   7.496  1.7055 -0.1301 -0.6479
29643SOL     OW91560   6.591   8.410   0.688 -0.3213 -0.6638  0.3227
29643SOL    HW191561   6.619   8.332   0.640 -0.2068 -0.1356 -0.4729
29643SOL    HW291562   6.672   8.442   0.729 -0.5589 -1.5752  1.5790
29644SOL     OW91563   3.037   7.950   1.141  0.1113  0.0782  0.2569
29644SOL    HW191564   2.972   7.926   1.207 -1.1561 -0.1152 -0.9889
29644SOL    HW291565   3.083   7.869   1.121  0.6904  0.1948  1.0797
29645SOL     OW91566   7.970   3.870   6.303 -0.1496 -0.1272 -0.8083
29645SOL    HW191567   7.970   3.947   6.359 -0.1989  0.3564 -1.4635
29645SOL    HW291568   7.912   3.808   6.348  0.7391 -0.2017  0.2663
29646SOL     OW91569   9.877   2.281  10.107 -0.2784 -0.6105  0.7062
29646SOL    HW191570   9.963   2.290  10.147  0.2142  0.1069 -0.4774
29646SOL    HW291571   9.876   2.192  10.071  1.0741  0.2660 -1.7007
29647SOL     OW91572   3.898   3.755   3.614  0.0700  0.3740  0.9256
29647SOL    HW191573   3.842   3.679   3.623  0.4408 -0.1495 -0.7440
29647SOL    HW291574   3.986   3.720   3.608  0.8158  1.2401  4.5504
29648SOL     OW91575   1.625   7.434   3.950  0.7672  0.3439  0.1289
29648SOL    HW191576   1.669   7.465   3.871 -0.8093 -1.8427 -1.7345
29648SOL    HW291577   1.552   7.495   3.963  0.5747  0.2733 -0.5910
29649SOL     OW91578   5.411   6.010   5.522  0.0536  0.0419  0.0925
29649SOL    HW191579   5.391   6.103   5.513  0.5022  0.1587  0.2421
29649SOL    HW291580   5.334   5.972   5.565 -0.0304  0.3882  0.2492
29650SOL     OW91581   6.129   3.992   6.117 -0.2761  0.7008 -0.5696
29650SOL    HW191582   6.053   3.938   6.136 -1.4706  2.1411 -1.0437
29650SOL    HW291583   6.174   3.946   6.046  0.5148 -1.2477  1.1360
29651SOL     OW91584   1.129   0.447   6.759 -0.4685  0.1989 -0.0047
29651SOL    HW191585   1.125   0.520   6.820  1.0328  0.0092  0.3522
29651SOL    HW291586   1.037   0.428   6.738 -1.0098  0.4047  2.0161
29652SOL     OW91587   4.822   6.841   6.256 -0.3379  0.1459 -0.5415
29652SOL    HW191588   4.858   6.891   6.329 -0.3773  0.2103 -0.5664
29652SOL    HW291589   4.793   6.907   6.193 -1.5267  0.1367 -0.0381
29653SOL     OW91590   4.577   0.327   7.087 -0.4551  0.5199  0.1350
29653SOL    HW191591   4.585   0.398   7.024 -2.1352  1.0122  0.4441
29653SOL    HW291592   4.488   0.294   7.076 -1.1963  1.3017  2.9050
29654SOL     OW91593   4.339   7.606   2.237  0.0441  0.2508 -0.5551
29654SOL    HW191594   4.315   7.627   2.327  0.7257  0.2213 -0.3633
29654SOL    HW291595   4.435   7.605   2.237  0.0529 -1.2307 -0.9311
29655SOL     OW91596   2.701   0.817   0.556 -0.2233  0.5961  0.1844
29655SOL    HW191597   2.632   0.795   0.618 -0.6202 -0.6849 -0.6505
29655SOL    HW291598   2.772   0.755   0.576  1.2176  2.6306  1.7818
29656SOL     OW91599   3.414   6.477   8.011 -0.2556 -0.5630 -0.3865
29656SOL    HW191600   3.444   6.538   7.943 -1.6599 -0.0149 -0.5369
29656SOL    HW291601   3.335   6.517   8.047 -0.5708 -1.7503  0.2951
29657SOL     OW91602   2.665   6.800   9.717  0.0264 -0.4133 -0.3479
29657SOL    HW191603   2.677   6.823   9.625 -0.4153  1.0634 -0.0637
29657SOL    HW291604   2.745   6.829   9.761 -0.0325 -0.5171 -0.1676
29658SOL     OW91605   2.069   4.527   0.609 -0.2720  0.1905  0.1750
29658SOL    HW191606   2.119   4.570   0.677 -0.2196  0.7674 -0.2240
29658SOL    HW291607   2.055   4.594   0.542 -2.2107  0.2760  0.6081
29659SOL     OW91608   2.658   0.272   5.210  0.0500  0.4773  0.6731
29659SOL    HW191609   2.678   0.319   5.129  0.0871 -0.2768  0.2361
29659SOL    HW291610   2.569   0.301   5.233  0.4373  1.4937  0.9506
29660SOL     OW91611   9.529   4.769   1.403 -0.1335  0.0215  0.2314
29660SOL    HW191612   9.511   4.807   1.317  2.0350  1.6413  0.4067
29660SOL    HW291613   9.508   4.676   1.393  0.6273  0.0479 -2.2442
29661SOL     OW91614   4.970   1.408   8.583  0.0947 -0.3443  0.2119
29661SOL    HW191615   4.895   1.409   8.525 -0.1320  0.0763  0.5044
29661SOL    HW291616   4.997   1.500   8.590 -0.3525 -0.2790  1.3603
29662SOL     OW91617   6.539   4.326   9.722  0.0890 -0.6045  0.1147
29662SOL    HW191618   6.476   4.254   9.712 -0.6628 -0.1079  1.0019
29662SOL    HW291619   6.513   4.390   9.656 -0.5656 -0.2631  0.6852
29663SOL     OW91620   0.327   1.396   4.936 -0.5533 -0.2826  0.1208
29663SOL    HW191621   0.257   1.331   4.949 -1.1768  0.3838  0.1627
29663SOL    HW291622   0.320   1.420   4.844  0.9719 -1.7132 -0.4218
29664SOL     OW91623   5.090   0.858   7.600 -0.5651  0.4291  0.2817
29664SOL    HW191624   5.087   0.784   7.539  1.4978  0.8496 -0.4261
29664SOL    HW291625   5.000   0.889   7.605 -0.7144  1.0045 -3.3863
29665SOL     OW91626   9.719   0.562   9.578  0.1890  1.4098  0.2290
29665SOL    HW191627   9.666   0.570   9.658 -0.7320  1.7691 -0.3968
29665SOL    HW291628   9.795   0.512   9.605 -0.1643  1.4226  1.3129
29666SOL     OW91629   3.131   8.615   9.157  0.4065  0.1602 -0.6498
29666SOL    HW191630   3.203   8.595   9.097  0.4306 -0.8506 -0.3038
29666SOL    HW291631   3.134   8.545   9.223 -1.6035 -0.5929 -1.2663
29667SOL     OW91632   2.534   2.407   9.953  0.2798 -0.2107 -0.3702
29667SOL    HW191633   2.621   2.415   9.992  0.2020 -0.0661 -0.2264
29667SOL    HW291634   2.474   2.406  10.028  0.0094  1.5440 -0.5156
29668SOL     OW91635   3.715   7.859   1.747 -0.0840 -0.2540  0.8256
29668SOL    HW191636   3.735   7.889   1.836  0.7332 -2.2805  1.3811
29668SOL    HW291637   3.642   7.799   1.758 -0.2231 -0.2300  0.0583
29669SOL     OW91638   8.158   3.354   5.468 -0.3157  0.2238 -0.1560
29669SOL    HW191639   8.197   3.300   5.399 -1.1126  0.1045 -0.5267
29669SOL    HW291640   8.233   3.394   5.512  0.2141  1.2170 -1.8324
29670SOL     OW91641   5.336  10.322   9.525  0.3793 -0.0707 -0.4042
29670SOL    HW191642   5.407  10.307   9.589 -1.4653 -1.3918  1.4673
29670SOL    HW291643   5.278  10.385   9.568 -0.9797 -1.0848 -0.6882
29671SOL     OW91644   0.015   3.709   7.171 -0.2318 -0.8125  0.7909
29671SOL    HW191645   0.089   3.700   7.232  0.2685  0.7139  0.4397
29671SOL    HW291646   0.035   3.648   7.100  0.2273 -1.0904  1.1507
29672SOL     OW91647   9.379   9.313   6.901 -0.3667 -0.1635  0.2946
29672SOL    HW191648   9.317   9.271   6.960 -0.7091  0.6953  0.5590
29672SOL    HW291649   9.464   9.299   6.942 -0.3403 -1.5566 -0.1927
29673SOL     OW91650   7.883   7.319   9.760 -0.0802 -0.1891  0.0402
29673SOL    HW191651   7.964   7.287   9.720  0.0547  0.1992  0.0058
29673SOL    HW291652   7.911   7.365   9.839  0.0031  2.3889 -1.4039
29674SOL     OW91653   9.274   2.011   1.298  0.3066  0.5508  0.5816
29674SOL    HW191654   9.308   1.967   1.376 -0.6389 -0.5527  0.4019
29674SOL    HW291655   9.181   2.023   1.315  0.1348  0.5195 -0.2627
29675SOL     OW91656  10.192   0.970   9.383  0.2353 -0.6906 -0.6739
29675SOL    HW191657  10.174   1.063   9.372  0.1376 -0.7080 -0.6684
29675SOL    HW291658  10.105   0.930   9.392  0.2999 -0.7237 -0.2009
29676SOL     OW91659   5.026   2.423   3.795 -0.3742  0.4753 -0.6216
29676SOL    HW191660   5.097   2.464   3.844 -1.2174 -1.5967  2.6367
29676SOL    HW291661   5.062   2.341   3.763 -1.2534 -0.6958  1.2419
29677SOL     OW91662   9.078   0.143   3.639  0.0681 -0.6681 -0.0749
29677SOL    HW191663   9.060   0.090   3.562  0.3276  0.6261 -1.0493
29677SOL    HW291664   9.071   0.234   3.609  0.6819 -0.1295  1.2989
29678SOL     OW91665   4.570   8.147   9.508  0.1411 -0.0787 -0.0339
29678SOL    HW191666   4.510   8.119   9.440  0.1987 -2.0436  0.6711
29678SOL    HW291667   4.593   8.067   9.555  0.4098  1.1437  2.0438
29679SOL     OW91668   7.284   4.820   9.653  0.5875 -0.2538  0.1026
29679SOL    HW191669   7.209   4.761   9.665 -0.5142  0.8155 -1.2567
29679SOL    HW291670   7.336   4.808   9.733 -2.3376  0.8768  2.3865
29680SOL     OW91671   8.991   9.000   7.026  0.5754  0.9070  0.4481
29680SOL    HW191672   9.021   8.960   7.108  1.5025 -0.3566 -0.4643
29680SOL    HW291673   8.912   8.951   7.002  0.7645  0.7279  0.1822
29681SOL     OW91674   0.796   4.173   3.255  0.3700  0.1816  0.9685
29681SOL    HW191675   0.787   4.217   3.340 -1.5838  0.2355  0.7909
29681SOL    HW291676   0.883   4.134   3.257  1.2712  2.1233  2.0472
29682SOL     OW91677   9.862   3.160   0.661 -0.1429  0.1500 -0.0892
29682SOL    HW191678   9.942   3.112   0.678 -0.5503 -0.0420  1.4031
29682SOL    HW291679   9.806   3.098   0.615  1.4505  1.0830 -3.6463
29683SOL     OW91680   0.884   7.449   6.059  0.0048  0.0113 -0.4559
29683SOL    HW191681   0.881   7.474   5.967  0.7567  0.9213 -0.2449
29683SOL    HW291682   0.928   7.364   6.059  0.7969  0.4103 -0.8769
29684SOL     OW91683   3.601   6.672   9.502 -0.2754  0.3820  0.0472
29684SOL    HW191684   3.687   6.634   9.521  0.5279  0.8324 -2.3749
29684SOL    HW291685   3.551   6.600   9.464 -0.1929  0.6909 -0.6466
29685SOL     OW91686   4.354   6.083   2.888  0.4069 -0.6633 -0.1306
29685SOL    HW191687   4.271   6.052   2.851  1.3815 -0.8673 -2.3171
29685SOL    HW291688   4.413   6.008   2.881  0.9172 -0.3884  0.9944
29686SOL     OW91689   4.282   4.926   4.946  0.2149  0.4439  0.2397
29686SOL    HW191690   4.228   4.910   4.869 -0.7328 -1.6937  1.2622
29686SOL    HW291691   4.370   4.942   4.910 -0.3482  0.2474 -1.3107
29687SOL     OW91692   0.446   3.717   1.811 -0.2811  0.1666 -0.2767
29687SOL    HW191693   0.487   3.644   1.857 -0.3251  0.7307  0.6849
29687SOL    HW291694   0.470   3.705   1.719  0.7835 -0.3352  0.0626
29688SOL     OW91695   1.345  10.272   0.576 -0.0902 -0.2014 -0.1173
29688SOL    HW191696   1.371  10.360   0.550  0.9985 -0.3096  0.5319
29688SOL    HW291697   1.426  10.222   0.577 -0.6994 -1.2237 -0.5012
29689SOL     OW91698   2.255   4.116   4.656  0.1110  0.0885 -0.6602
29689SOL    HW191699   2.178   4.066   4.629  1.0788 -1.2658 -1.0134
29689SOL    HW291700   2.326   4.083   4.601  1.6641 -1.1184  1.8853
29690SOL     OW91701   7.202   3.543   6.900  0.0017 -0.1025 -0.4610
29690SOL    HW191702   7.176   3.524   6.810  1.8061 -0.5621 -0.9405
29690SOL    HW291703   7.204   3.458   6.943  0.2788 -0.0294 -0.3274
29691SOL     OW91704   9.386   5.152   5.359  0.3842 -0.6858  0.1698
29691SOL    HW191705   9.377   5.208   5.282 -3.2187 -1.7830 -0.4183
29691SOL    HW291706   9.480   5.137   5.368  1.4305  3.9698 -0.5946
29692SOL     OW91707   2.015  10.250  10.166 -0.0592  0.1905 -0.2206
29692SOL    HW191708   2.049  10.162  10.183  1.6428  0.9531  0.5112
29692SOL    HW291709   1.940  10.258  10.225 -0.7590 -1.0429 -0.8913
29693SOL     OW91710   7.396   5.589   9.247  0.8064 -0.2482  0.6534
29693SOL    HW191711   7.424   5.529   9.317 -1.2176 -0.7444  1.0983
29693SOL    HW291712   7.328   5.643   9.287 -1.2956 -1.3643 -1.2103
29694SOL     OW91713   6.755   7.960   2.875  1.0482  0.2916 -0.4851
29694SOL    HW191714   6.838   7.988   2.836  0.8294  1.1662 -0.3496
29694SOL    HW291715   6.691   7.971   2.804  1.1814 -1.2877 -0.8916
29695SOL     OW91716   0.893   7.694   2.250  0.2609  0.1585  0.2846
29695SOL    HW191717   0.907   7.744   2.331  0.6322 -0.5110  0.6438
29695SOL    HW291718   0.816   7.735   2.210  1.3825  1.9467 -0.1595
29696SOL     OW91719   0.176   3.158   9.881  0.0436  0.1044  0.0762
29696SOL    HW191720   0.161   3.063   9.878  0.7653 -0.0181  0.1503
29696SOL    HW291721   0.138   3.191   9.800  1.1839 -0.4581 -0.7106
29697SOL     OW91722   5.164   4.916   5.051 -0.0308  0.3915  0.0861
29697SOL    HW191723   5.179   4.891   4.960 -0.8926  0.6644 -0.1390
29697SOL    HW291724   5.125   5.003   5.046  0.8987  0.8723  0.7736
29698SOL     OW91725   8.292   9.873   7.940  0.7077  0.2749 -0.4753
29698SOL    HW191726   8.311   9.810   7.870 -3.6140  0.2950 -1.9127
29698SOL    HW291727   8.255   9.820   8.010 -0.2139  0.8665 -0.5022
29699SOL     OW91728   9.950   4.413   3.615  0.0458 -0.3943  0.1190
29699SOL    HW191729   9.968   4.391   3.707  0.5172 -0.5770 -0.0113
29699SOL    HW291730   9.855   4.423   3.611  0.0815  0.3744  0.7978
29700SOL     OW91731   0.417   3.937   7.451  0.2721  0.2733  0.2413
29700SOL    HW191732   0.382   3.956   7.538 -1.0507  0.9051 -0.4088
29700SOL    HW291733   0.503   3.898   7.468  0.6901  1.7392  1.7908
29701SOL     OW91734   5.554   1.107   3.993  1.2362  0.6181 -0.0014
29701SOL    HW191735   5.639   1.139   4.023  1.4169 -0.2094  0.3904
29701SOL    HW291736   5.567   1.089   3.899  0.5996  3.4394 -0.7260
29702SOL     OW91737   6.221   5.277   0.191  0.2112 -0.3488 -0.5105
29702SOL    HW191738   6.153   5.248   0.131  0.3298  2.3836 -2.1701
29702SOL    HW291739   6.197   5.240   0.276 -1.4335 -2.2076 -1.7194
29703SOL     OW91740   9.011   6.463   4.663  0.1036 -0.0686 -0.1587
29703SOL    HW191741   9.047   6.420   4.741 -1.2108  1.2862  1.2732
29703SOL    HW291742   8.926   6.421   4.650 -0.6456  1.1968  0.5028
29704SOL     OW91743  10.032   1.728   7.702  0.2079 -0.0639 -0.0561
29704SOL    HW191744  10.014   1.641   7.667 -1.0707  0.6469 -1.2987
29704SOL    HW291745   9.946   1.765   7.719  0.7424 -0.1014  3.3966
29705SOL     OW91746   8.450   0.257   7.005 -0.1493  0.1494  0.2971
29705SOL    HW191747   8.385   0.269   7.074 -1.7465  1.2485 -1.3029
29705SOL    HW291748   8.441   0.164   6.981  0.6938 -0.3411  1.7730
29706SOL     OW91749   3.818   0.945   3.276 -0.0073 -0.1553 -0.7723
29706SOL    HW191750   3.845   0.853   3.274 -0.1966 -0.2143 -0.6551
29706SOL    HW291751   3.723   0.941   3.289  0.0453  0.0660 -0.3255
29707SOL     OW91752   7.355   6.228   6.880  0.0239 -0.0356  0.4258
29707SOL    HW191753   7.319   6.306   6.923  2.0237  1.3829 -0.3653
29707SOL    HW291754   7.304   6.219   6.799  0.7610  1.3852 -0.2232
29708SOL     OW91755   4.008   9.564   6.163  0.0353  0.1173  0.1408
29708SOL    HW191756   4.016   9.522   6.249  1.2793 -1.0144 -0.4822
29708SOL    HW291757   4.051   9.649   6.174  1.1212 -0.4415  0.4042
29709SOL     OW91758   6.862   5.879   1.059 -0.3014 -0.1230 -0.3400
29709SOL    HW191759   6.804   5.949   1.029 -0.1889  0.2633  0.3256
29709SOL    HW291760   6.820   5.845   1.138  1.2521  1.3862  1.2287
29710SOL     OW91761   6.724   4.038   5.385 -0.4891 -0.1856  0.1844
29710SOL    HW191762   6.815   4.067   5.380  0.1206 -1.9723  0.2869
29710SOL    HW291763   6.729   3.945   5.407 -2.3349 -0.4252 -0.2184
29711SOL     OW91764   2.002   9.965   2.841  0.2400 -0.0725  0.4232
29711SOL    HW191765   2.092   9.935   2.850  0.2037 -0.0570  0.8860
29711SOL    HW291766   1.949   9.888   2.861  0.1252 -0.6047 -1.6527
29712SOL     OW91767   2.881   0.891   0.163 -0.5695  0.4103 -0.1016
29712SOL    HW191768   2.926   0.971   0.191 -2.6685  1.6499 -0.1238
29712SOL    HW291769   2.923   0.822   0.213  2.8190  1.1115 -1.6456
29713SOL     OW91770   0.400   9.875   1.008 -0.0965  0.1203 -0.2048
29713SOL    HW191771   0.314   9.916   1.016  0.1685  0.6496 -0.0164
29713SOL    HW291772   0.394   9.822   0.929 -1.1379 -1.1777  0.7002
29714SOL     OW91773   5.184   3.891   9.069  0.3514 -0.4237  0.5141
29714SOL    HW191774   5.155   3.810   9.027  0.8430 -0.3740  0.0804
29714SOL    HW291775   5.185   3.870   9.163  1.4419 -1.2363  0.3390
29715SOL     OW91776   2.877   4.439   0.887 -0.1644 -0.9013  0.6072
29715SOL    HW191777   2.916   4.353   0.874 -0.2601 -0.8722  0.1253
29715SOL    HW291778   2.823   4.454   0.810  0.7409  0.0708  0.1341
29716SOL     OW91779   9.587   1.984  10.136  0.2474  0.1271 -0.0120
29716SOL    HW191780   9.586   2.080  10.128  0.9988  0.0217 -1.5110
29716SOL    HW291781   9.510   1.965  10.190 -0.3494  1.5220 -0.3166
29717SOL     OW91782   3.199   2.270   2.166  0.1886 -0.1821 -0.1813
29717SOL    HW191783   3.244   2.354   2.155 -0.5486  0.1473 -0.6945
29717SOL    HW291784   3.232   2.216   2.095  2.4439 -1.1534  1.4571
29718SOL     OW91785   0.305  10.316   1.611 -0.0438  0.1282 -0.0362
29718SOL    HW191786   0.238  10.254   1.582 -0.4862 -0.5383  2.2646
29718SOL    HW291787   0.284  10.334   1.702  1.3952  1.9658 -0.0086
29719SOL     OW91788   6.452   8.842   9.939  0.2315 -0.2331  0.3223
29719SOL    HW191789   6.452   8.825   9.845  0.7149  0.2013  0.2353
29719SOL    HW291790   6.544   8.860   9.959 -0.0327  0.7556  0.6760
29720SOL     OW91791   4.223   0.261   8.217  0.4228 -0.1954  0.0113
29720SOL    HW191792   4.185   0.347   8.203  2.3059  0.9964  1.6710
29720SOL    HW291793   4.167   0.221   8.284  0.3548  0.2973  0.2489
29721SOL     OW91794   5.090   1.190   3.699  0.4051  0.7310  0.3532
29721SOL    HW191795   5.177   1.185   3.660  0.2596  0.6926  0.0310
29721SOL    HW291796   5.095   1.264   3.759  0.6608  0.7279  0.3369
29722SOL     OW91797   5.596   9.084   0.884 -0.4377  0.1443  0.7459
29722SOL    HW191798   5.619   9.000   0.924 -0.0032  0.5126  1.2746
29722SOL    HW291799   5.679   9.117   0.849 -0.2967  1.0688  1.8932
29723SOL     OW91800   5.746   1.559   8.577 -0.1263  0.6123  0.2297
29723SOL    HW191801   5.745   1.468   8.550 -0.5765  1.3802 -2.6020
29723SOL    HW291802   5.655   1.587   8.572  0.0309  1.2966  0.9129
29724SOL     OW91803   8.815   4.126   5.128  0.6049  0.3205 -0.3166
29724SOL    HW191804   8.886   4.171   5.083  0.5888  0.1513 -0.5126
29724SOL    HW291805   8.839   4.034   5.126  0.2012  0.2191 -0.7159
29725SOL     OW91806   8.131   8.840   3.349  0.4261  0.9929 -0.5231
29725SOL    HW191807   8.141   8.841   3.254  0.8090 -1.4324 -0.5717
29725SOL    HW291808   8.216   8.868   3.383  1.1888 -0.6892 -0.9404
29726SOL     OW91809   5.810   1.504   1.734  0.4368  0.0152 -0.0295
29726SOL    HW191810   5.720   1.515   1.703  1.0025  1.4101 -1.2456
29726SOL    HW291811   5.836   1.418   1.702 -0.7002 -0.7450  0.9948
29727SOL     OW91812   7.641   1.389   3.028  0.2065  0.1315  0.0107
29727SOL    HW191813   7.648   1.309   2.976  1.6998  1.0320 -1.2735
29727SOL    HW291814   7.709   1.380   3.095 -1.1495 -0.6493  1.3272
29728SOL     OW91815   6.531   5.192   1.168  0.0303 -0.5250 -0.4448
29728SOL    HW191816   6.569   5.205   1.255 -1.9825 -0.0105  0.4033
29728SOL    HW291817   6.559   5.104   1.143  1.5047 -0.2910  0.2414
29729SOL     OW91818   2.182   2.098   6.335 -0.7068  0.5920  0.1984
29729SOL    HW191819   2.205   2.188   6.356 -2.5864  1.1954 -0.1709
29729SOL    HW291820   2.088   2.092   6.351 -0.6174 -1.3413  0.3234
29730SOL     OW91821   9.074   3.986   6.587 -0.0595 -0.3004  0.3605
29730SOL    HW191822   9.116   3.902   6.604 -0.1265 -0.1263  1.4439
29730SOL    HW291823   9.041   4.014   6.672  1.7832  1.8388  0.4521
29731SOL     OW91824   4.999   8.865   0.791 -0.1776 -0.5836  0.0293
29731SOL    HW191825   4.992   8.954   0.825 -0.0787  0.0107 -1.4343
29731SOL    HW291826   5.059   8.872   0.717  0.8854 -2.1238  0.6982
29732SOL     OW91827   0.336   6.616   5.252 -0.0627 -0.2587 -0.2422
29732SOL    HW191828   0.266   6.681   5.261 -0.1303  0.1149 -2.8500
29732SOL    HW291829   0.417   6.667   5.258 -0.0973 -0.0870 -1.1532
29733SOL     OW91830   6.089   8.569   6.137  0.0340  0.7824  0.6890
29733SOL    HW191831   6.074   8.647   6.192  0.1315  0.7191  0.8049
29733SOL    HW291832   6.110   8.500   6.199 -0.6079  0.5215  0.6289
29734SOL     OW91833   3.014   6.541   1.418  0.1464 -0.0182  0.6709
29734SOL    HW191834   2.969   6.534   1.334  1.4317 -1.7889  0.0729
29734SOL    HW291835   2.951   6.505   1.481 -0.3801  0.2381  0.2985
29735SOL     OW91836   0.131   7.237   8.793  0.5245  0.5782  0.4438
29735SOL    HW191837   0.116   7.243   8.888 -1.2768  0.7068  0.1865
29735SOL    HW291838   0.075   7.305   8.756  0.8201  0.1879 -0.7486
29736SOL     OW91839   9.182   8.510   9.452 -0.0371  0.5806 -0.6558
29736SOL    HW191840   9.229   8.429   9.435 -0.7531 -0.4031  1.5763
29736SOL    HW291841   9.230   8.551   9.524 -0.7554  1.1774 -0.5045
29737SOL     OW91842   1.782   3.916   1.693 -0.0423  0.0146  0.3452
29737SOL    HW191843   1.849   3.945   1.754  0.2857 -2.1159  1.0669
29737SOL    HW291844   1.813   3.945   1.607  0.5209  1.2215  0.9307
29738SOL     OW91845   4.532   4.298   3.617 -0.0733 -0.1913 -0.6591
29738SOL    HW191846   4.582   4.347   3.682  0.0010 -0.7857 -0.2548
29738SOL    HW291847   4.496   4.364   3.559  0.3186  0.3135 -0.3354
29739SOL     OW91848   3.746   6.703  10.277 -0.3878 -0.1816 -0.2238
29739SOL    HW191849   3.779   6.747  10.199  1.0178  0.7471  0.8511
29739SOL    HW291850   3.700   6.627  10.244 -2.6601  1.8652 -2.1628
29740SOL     OW91851   7.340   7.710   2.291 -0.3477  0.9804 -0.6686
29740SOL    HW191852   7.245   7.719   2.302 -0.2040  2.8894 -0.6194
29740SOL    HW291853   7.368   7.657   2.366 -1.3220  0.7246 -0.4767
29741SOL     OW91854   7.710   9.034   0.379 -0.1709 -0.2258 -0.0802
29741SOL    HW191855   7.622   9.022   0.343 -0.7174 -3.5013  1.9879
29741SOL    HW291856   7.696   9.038   0.474  1.8395  0.7863  0.2222
29742SOL     OW91857   5.564   7.161   6.484  0.3596  0.5539 -0.0285
29742SOL    HW191858   5.519   7.216   6.419 -0.3749  0.6997  0.5915
29742SOL    HW291859   5.499   7.146   6.552  1.3679  1.0907  1.0955
29743SOL     OW91860   3.671   2.771   6.362 -0.0103  0.8459 -0.5001
29743SOL    HW191861   3.642   2.759   6.452  0.8836 -2.0766 -0.4916
29743SOL    HW291862   3.596   2.742   6.309  0.4476 -0.1700 -0.6099
29744SOL     OW91863   5.665   1.285   9.088  0.8207  0.3180 -0.1115
29744SOL    HW191864   5.671   1.294   8.992  2.9917  0.9589  0.0345
29744SOL    HW291865   5.572   1.292   9.106  0.3467  0.1739 -2.1899
29745SOL     OW91866   1.295   5.597   5.860  0.3905  0.5351  0.1427
29745SOL    HW191867   1.332   5.675   5.818  0.3653  1.2931  1.5011
29745SOL    HW291868   1.345   5.524   5.821  1.6290  1.3535  0.1334
29746SOL     OW91869   0.575   1.868   1.040  0.8810 -0.1097 -0.0268
29746SOL    HW191870   0.661   1.829   1.027  1.8113  2.0066 -0.6527
29746SOL    HW291871   0.592   1.962   1.046 -1.1659  0.2370  1.9456
29747SOL     OW91872   1.987   3.207   3.533  0.1315  0.3450  0.4412
29747SOL    HW191873   1.949   3.274   3.476  0.7909  0.6653  0.3681
29747SOL    HW291874   1.911   3.160   3.569 -0.3616  1.5056  0.9700
29748SOL     OW91875   9.314   6.430   7.264 -0.5037  0.1649 -0.8588
29748SOL    HW191876   9.395   6.388   7.293 -0.4580  0.8085 -0.0060
29748SOL    HW291877   9.253   6.358   7.247  0.3798 -0.3549 -1.9749
29749SOL     OW91878   1.786   3.674   5.004  0.3479 -0.4263  0.2235
29749SOL    HW191879   1.748   3.687   5.091  1.2712  1.0104  0.4586
29749SOL    HW291880   1.734   3.731   4.947  1.7322  1.1920  0.4666
29750SOL     OW91881   0.829   0.791   3.740 -0.1970  0.0604  0.3636
29750SOL    HW191882   0.804   0.883   3.736 -0.3183 -0.0250 -2.2565
29750SOL    HW291883   0.920   0.789   3.711 -0.0128 -0.6095  0.9431
29751SOL     OW91884   5.686   0.756   4.913  0.4358  0.4959  0.7017
29751SOL    HW191885   5.721   0.835   4.955  2.2513 -0.3645  0.9182
29751SOL    HW291886   5.615   0.727   4.970 -0.9935  2.5112  0.0652
29752SOL     OW91887   5.739   5.081   3.710 -0.0329 -0.4115  0.4569
29752SOL    HW191888   5.793   5.024   3.766 -1.3048 -0.0690  2.0994
29752SOL    HW291889   5.660   5.029   3.693  0.9315 -1.1410 -2.4113
29753SOL     OW91890   0.338   3.361   5.241 -0.7294  0.2268 -0.3450
29753SOL    HW191891   0.390   3.318   5.309 -1.8222 -1.3596 -0.4622
29753SOL    HW291892   0.247   3.341   5.263 -1.1285 -0.0046 -2.0407
29754SOL     OW91893   6.287   1.675   6.219 -0.7927 -0.0320 -0.5990
29754SOL    HW191894   6.218   1.739   6.233 -0.8653 -0.2210 -0.0844
29754SOL    HW291895   6.351   1.692   6.288  0.3393  1.0082 -1.8510
29755SOL     OW91896   7.938  10.163   4.567  0.0163 -0.5858 -0.0971
29755SOL    HW191897   7.974  10.245   4.601  2.8025 -2.0853  0.9070
29755SOL    HW291898   7.950  10.169   4.472  0.8586 -0.1031  0.0298
29756SOL     OW91899   1.415   3.896   0.686 -0.2768 -0.1298 -0.4452
29756SOL    HW191900   1.464   3.825   0.727 -0.7089 -0.4018 -0.3942
29756SOL    HW291901   1.333   3.901   0.734 -0.3106  0.3129 -0.5397
29757SOL     OW91902   6.992   8.592   2.874  0.4509  0.1113  0.2208
29757SOL    HW191903   7.078   8.573   2.913  0.1718  1.3196  1.5164
29757SOL    HW291904   6.964   8.508   2.837  0.3839 -1.4689  3.4391
29758SOL     OW91905   4.612   8.157   1.878 -0.4540 -0.0666  0.3162
29758SOL    HW191906   4.643   8.244   1.905 -0.0793  0.3743 -1.3874
29758SOL    HW291907   4.677   8.096   1.913 -0.5011  0.3619  1.1803
29759SOL     OW91908   0.342   6.828  10.197 -0.5525 -0.6663  0.6018
29759SOL    HW191909   0.253   6.831  10.161  0.5980 -0.0814 -2.4995
29759SOL    HW291910   0.354   6.736  10.222 -2.6230 -0.3977  2.9779
29760SOL     OW91911   6.202   1.461   1.718 -0.7020  0.3275  0.0848
29760SOL    HW191912   6.165   1.377   1.748  0.4407  0.0696  0.8316
29760SOL    HW291913   6.219   1.447   1.624  0.2644 -0.5775  0.3835
29761SOL     OW91914   6.456   3.566   6.038  0.1469  0.5434  0.0464
29761SOL    HW191915   6.387   3.541   6.100  1.5399  1.6620  2.1729
29761SOL    HW291916   6.528   3.504   6.056  0.3512  0.4819 -0.9241
29762SOL     OW91917   9.686   2.105   9.714  0.2160  0.3094 -0.5326
29762SOL    HW191918   9.651   2.178   9.765 -1.4689 -0.1015 -1.0323
29762SOL    HW291919   9.767   2.138   9.676  0.5316  1.2351  0.8779
29763SOL     OW91920   9.087   0.976   8.234 -0.7695  0.4587 -0.6281
29763SOL    HW191921   9.068   1.068   8.219 -1.0188  0.5510  0.1956
29763SOL    HW291922   9.036   0.930   8.166 -0.0059  0.9468 -1.5590
29764SOL     OW91923   0.828  10.196   3.829  0.2858  0.1313 -0.2135
29764SOL    HW191924   0.828  10.115   3.779 -1.9908 -1.0603  1.5582
29764SOL    HW291925   0.919  10.206   3.859  0.9791 -0.7843 -1.8641
29765SOL     OW91926   7.058  10.318   6.874 -0.6439 -0.0093 -0.4214
29765SOL    HW191927   7.036  10.345   6.785 -1.3161 -1.8119 -0.8445
29765SOL    HW291928   7.118  10.245   6.863  0.8125  0.9602  0.6753
29766SOL     OW91929   6.831   9.615   5.560 -0.6808 -0.1237 -0.3369
29766SOL    HW191930   6.786   9.594   5.642 -0.7987  1.3694  0.0044
29766SOL    HW291931   6.783   9.565   5.493 -0.1182 -1.9631  0.5554
29767SOL     OW91932   6.766   4.395   8.139  0.2632  0.3442 -0.6571
29767SOL    HW191933   6.846   4.343   8.147  0.0863  0.2930  1.1701
29767SOL    HW291934   6.780   4.470   8.196 -1.0114  0.2672 -0.2037
29768SOL     OW91935   7.035   0.483   2.628  0.0936 -0.0243  0.5951
29768SOL    HW191936   7.020   0.446   2.715 -0.2945 -2.7843 -0.5137
29768SOL    HW291937   6.949   0.483   2.587  0.4534  0.0325 -0.1832
29769SOL     OW91938   8.615   5.109   6.107 -0.0006 -0.1030  0.0352
29769SOL    HW191939   8.675   5.035   6.120  0.5719  0.2587 -0.4976
29769SOL    HW291940   8.651   5.156   6.031 -0.1181  0.9631  0.6215
29770SOL     OW91941   1.310   1.575   2.321  0.0135 -0.2461  0.0341
29770SOL    HW191942   1.368   1.556   2.394 -0.9043  0.5628  0.9962
29770SOL    HW291943   1.251   1.642   2.353  0.0137  0.6465 -1.6766
29771SOL     OW91944   0.905   8.264   1.766  0.5076  0.4151  0.1459
29771SOL    HW191945   0.818   8.281   1.731  1.7797  0.8771 -3.1859
29771SOL    HW291946   0.903   8.301   1.855 -2.7369  0.0112  0.3642
29772SOL     OW91947   9.055   5.067   0.173  0.4139  0.0954  0.2817
29772SOL    HW191948   9.052   5.109   0.087  0.9566  1.1488  0.7635
29772SOL    HW291949   9.105   5.127   0.228  0.9781 -1.0625  1.0734
29773SOL     OW91950   6.304   2.629   1.003 -0.2721  0.2371 -0.4571
29773SOL    HW191951   6.212   2.629   1.031  0.2732 -0.4817  1.4481
29773SOL    HW291952   6.352   2.668   1.076  0.8262  1.9666 -2.0141
29774SOL     OW91953   2.916   3.311   7.964  0.1754  0.2051 -0.0283
29774SOL    HW191954   2.932   3.364   8.043  2.0829 -0.5096  0.1316
29774SOL    HW291955   2.917   3.221   7.995  1.2078 -0.1010 -0.8795
29775SOL     OW91956   3.792   5.069   6.037  0.1020 -0.2820 -0.3653
29775SOL    HW191957   3.807   5.066   6.132  0.7756  0.2030 -0.4511
29775SOL    HW291958   3.871   5.031   5.999 -0.0241 -0.1601 -0.7524
29776SOL     OW91959   1.595   8.084   1.805 -0.3986 -0.1339 -0.2359
29776SOL    HW191960   1.561   8.173   1.821 -1.2074 -0.5117  0.2135
29776SOL    HW291961   1.689   8.096   1.792 -0.5911  0.8669 -0.8189
29777SOL     OW91962  10.003   5.287   8.447  0.1906  0.0199 -0.1877
29777SOL    HW191963  10.014   5.336   8.529 -0.1804 -1.7447  0.9820
29777SOL    HW291964  10.080   5.308   8.395  0.8222  0.5891  0.9466
29778SOL     OW91965   2.407   6.791   1.064 -1.0259 -0.1731  0.2587
29778SOL    HW191966   2.407   6.770   0.971 -1.9602 -1.7069  0.5618
29778SOL    HW291967   2.443   6.879   1.069 -0.5576 -0.2275 -1.5064
29779SOL     OW91968   7.045   0.409   6.362  0.4602 -0.2252  0.1471
29779SOL    HW191969   7.039   0.353   6.284 -1.4021 -0.4801  0.4330
29779SOL    HW291970   6.992   0.364   6.428  0.6913  0.8202  1.0676
29780SOL     OW91971   8.947   6.100   4.846  0.3051 -0.4112  0.1805
29780SOL    HW191972   9.001   6.173   4.876  1.2457 -0.6540 -0.8497
29780SOL    HW291973   8.865   6.141   4.818  1.8138  0.7151 -3.0299
29781SOL     OW91974   4.280   6.821   9.214  0.3293 -0.3116  0.7336
29781SOL    HW191975   4.368   6.820   9.175 -0.4407  0.1612 -1.1236
29781SOL    HW291976   4.279   6.899   9.269  0.8893  0.0293  0.2768
29782SOL     OW91977   1.171   1.221   5.408  0.0824 -0.1218 -0.1965
29782SOL    HW191978   1.217   1.199   5.327  1.3161  1.1257  0.1409
29782SOL    HW291979   1.121   1.300   5.386 -0.5428 -0.4710 -0.0631
29783SOL     OW91980   2.525   5.929   1.371  0.9042 -0.2619 -0.1441
29783SOL    HW191981   2.482   6.000   1.418 -0.6379  0.1873 -2.1136
29783SOL    HW291982   2.598   5.904   1.427 -2.2915 -1.6263  3.9044
29784SOL     OW91983   3.811   6.107   5.018 -0.5877 -0.3569 -0.0456
29784SOL    HW191984   3.799   6.187   5.069  0.1519 -0.1630 -0.1751
29784SOL    HW291985   3.722   6.081   4.994 -0.7605  1.4315 -1.5553
29785SOL     OW91986   8.241   4.135   0.369  0.4618  0.2274  0.2067
29785SOL    HW191987   8.179   4.091   0.428  0.1111  1.7678  1.0242
29785SOL    HW291988   8.198   4.134   0.284  1.2587 -2.6280 -0.2757
29786SOL     OW91989   2.213   2.749   1.110  0.2991  0.1381  0.5306
29786SOL    HW191990   2.269   2.684   1.066  0.4257  0.5393  0.0967
29786SOL    HW291991   2.124   2.721   1.089  0.3608  1.0477 -1.0740
29787SOL     OW91992   1.351   2.565   1.440 -0.6738  0.5988  0.4489
29787SOL    HW191993   1.442   2.555   1.466 -1.1003 -0.6152  1.6340
29787SOL    HW291994   1.305   2.583   1.522 -1.6949 -0.4012  0.1232
29788SOL     OW91995   6.737   4.604   7.552 -0.2018  0.0162  0.0555
29788SOL    HW191996   6.696   4.690   7.547 -0.0452  0.3226  2.7461
29788SOL    HW291997   6.823   4.615   7.513 -0.2771  1.0229  0.1585
29789SOL     OW91998   6.601   6.228   0.464  0.5218  0.0477 -0.4118
29789SOL    HW191999   6.512   6.194   0.449 -0.4312  1.8614  0.7535
29789SOL    HW292000   6.618   6.283   0.387  0.8542 -0.6891 -0.8731
29790SOL     OW92001   2.435   0.276   3.354 -0.4563  0.5339 -0.4927
29790SOL    HW192002   2.519   0.270   3.309 -1.0539 -0.7860 -1.5025
29790SOL    HW292003   2.370   0.284   3.284 -1.3949 -1.2728  0.1035
29791SOL     OW92004  10.271   7.175   1.142 -0.2830 -0.0389 -0.2359
29791SOL    HW192005  10.296   7.082   1.140 -0.9758 -0.2153 -2.3183
29791SOL    HW292006  10.178   7.176   1.119  0.2893  1.2990 -2.8989
29792SOL     OW92007   3.556   2.612   3.623 -0.4162 -0.1387 -0.0451
29792SOL    HW192008   3.519   2.550   3.560 -0.1187  0.7499 -1.1072
29792SOL    HW292009   3.573   2.691   3.573 -0.6884  0.7913  1.2700
29793SOL     OW92010   5.922   8.380   5.226  0.5392  0.8261  0.4012
29793SOL    HW192011   5.954   8.464   5.193 -0.9380  0.8784 -1.0097
29793SOL    HW292012   6.001   8.327   5.236  1.5738  2.5059  1.8417
29794SOL     OW92013   0.686   7.681   6.024 -0.6906 -0.3769  0.7954
29794SOL    HW192014   0.747   7.628   5.974 -0.7586 -1.3439  1.7009
29794SOL    HW292015   0.728   7.693   6.109 -0.4348  1.4985  0.4509
29795SOL     OW92016   6.405   3.561   8.865  0.0103  0.0519 -0.2972
29795SOL    HW192017   6.315   3.547   8.893 -0.9750 -1.9078 -3.8511
29795SOL    HW292018   6.398   3.617   8.787  1.7510 -0.6634 -1.0281
29796SOL     OW92019   9.111   4.909   4.778  0.1887  0.7797  0.1719
29796SOL    HW192020   9.104   4.838   4.842 -0.8824  0.4531 -0.2777
29796SOL    HW292021   9.195   4.950   4.797  0.1617  0.3236  1.4062
29797SOL     OW92022   5.543   0.207   6.465  0.0774 -0.7135  0.3274
29797SOL    HW192023   5.551   0.118   6.430  0.1041 -0.3490 -0.6290
29797SOL    HW292024   5.539   0.195   6.560 -0.9176 -1.8111  0.1778
29798SOL     OW92025   9.590   7.769   9.884 -0.2529  0.0008 -0.3873
29798SOL    HW192026   9.589   7.795   9.976 -1.4711 -2.6620  0.4403
29798SOL    HW292027   9.678   7.735   9.870  0.0121  0.6290 -0.2906
29799SOL     OW92028   9.819   9.686   0.064  0.8480  0.1073  0.0211
29799SOL    HW192029   9.846   9.600   0.031 -0.9985 -0.1316 -1.0814
29799SOL    HW292030   9.734   9.670   0.106 -0.4045  1.5842 -1.7335
29800SOL     OW92031   2.201   8.416   0.076 -0.1305  0.1673  0.4416
29800SOL    HW192032   2.173   8.460  -0.004 -0.1801  1.0079  0.9185
29800SOL    HW292033   2.119   8.391   0.119 -0.1849  2.1537  1.5722
29801SOL     OW92034   1.349   8.942   5.401 -0.1163 -0.2716 -0.2300
29801SOL    HW192035   1.394   8.972   5.480  0.5329  1.0548 -1.0646
29801SOL    HW292036   1.264   8.987   5.404 -1.0662 -2.0388  0.8633
29802SOL     OW92037   3.263   9.156   1.594  0.6298  0.5671 -0.0749
29802SOL    HW192038   3.296   9.071   1.568 -0.7184 -0.2406  0.7472
29802SOL    HW292039   3.320   9.219   1.549  0.8242 -0.7409 -1.7327
29803SOL     OW92040   0.597   0.780   0.731 -0.3891 -0.2828 -0.3609
29803SOL    HW192041   0.685   0.758   0.701 -0.6652 -1.3059 -0.4324
29803SOL    HW292042   0.603   0.777   0.827 -0.1596  0.4392 -0.3425
29804SOL     OW92043   7.888   6.194   6.453 -0.5236  0.0392  0.3951
29804SOL    HW192044   7.940   6.114   6.454 -0.6269 -0.0252  0.5259
29804SOL    HW292045   7.829   6.187   6.528 -0.3542  0.3555  0.5633
29805SOL     OW92046   4.468   0.329   0.300 -0.3855  0.9088 -0.3217
29805SOL    HW192047   4.378   0.360   0.297  0.4979  3.7475 -0.4923
29805SOL    HW292048   4.472   0.260   0.234 -3.0933 -1.5913  1.8144
29806SOL     OW92049   5.946   6.665  10.255 -0.0459  0.2849  0.6262
29806SOL    HW192050   5.892   6.615  10.194 -0.6229  0.3242  1.0986
29806SOL    HW292051   6.008   6.711  10.199 -0.6983  0.4908  0.0540
29807SOL     OW92052   7.398   6.084   0.880  0.0862  0.2888  0.4676
29807SOL    HW192053   7.457   6.102   0.807 -1.9632  2.5706 -0.7589
29807SOL    HW292054   7.433   6.136   0.952  1.6481 -1.3336  0.9543
29808SOL     OW92055   6.348   9.141   2.913  0.7987  0.1212  0.7512
29808SOL    HW192056   6.410   9.095   2.968  1.7529  1.8449  1.1905
29808SOL    HW292057   6.384   9.134   2.825  0.4637 -0.7101  0.6731
29809SOL     OW92058   4.563   4.094   8.787 -0.1431 -0.9653  0.0270
29809SOL    HW192059   4.479   4.130   8.815  0.3373 -1.2363  1.9209
29809SOL    HW292060   4.608   4.169   8.746 -1.2645 -0.8208 -1.0095
29810SOL     OW92061   3.713   6.679   5.457  0.3415  0.0346 -0.0512
29810SOL    HW192062   3.789   6.688   5.399  0.3694  0.3510  0.0335
29810SOL    HW292063   3.649   6.742   5.423  0.3455  0.1981  0.2380
29811SOL     OW92064   0.437   2.147   1.905 -0.3989  0.9449 -0.0691
29811SOL    HW192065   0.399   2.194   1.831 -0.7319 -1.4265 -1.5089
29811SOL    HW292066   0.403   2.058   1.898  0.7191  0.2488  2.1106
29812SOL     OW92067   3.180   7.763   2.269 -0.1895 -0.2306 -0.3793
29812SOL    HW192068   3.179   7.698   2.200 -1.1129 -0.4878 -0.1431
29812SOL    HW292069   3.088   7.786   2.282  0.0295  0.3443  0.2667
29813SOL     OW92070   1.386   4.890   6.075  0.3837  0.1856  0.3035
29813SOL    HW192071   1.315   4.902   6.138  0.5046 -0.7627  0.6396
29813SOL    HW292072   1.422   4.804   6.096  1.3198  0.4453 -0.1771
29814SOL     OW92073   2.682   7.157   9.495 -0.4844 -0.0479 -0.4645
29814SOL    HW192074   2.629   7.094   9.446 -1.8564  0.8435 -0.1862
29814SOL    HW292075   2.717   7.215   9.428 -2.0954  0.9742 -0.4786
29815SOL     OW92076   2.811   4.285   9.899 -0.0150 -0.1171 -0.3899
29815SOL    HW192077   2.817   4.363   9.954  0.7677  0.4602 -1.2584
29815SOL    HW292078   2.759   4.223   9.950  1.6099 -0.0185  1.4751
29816SOL     OW92079   1.025   7.328   1.115  0.2201  0.4302  0.0457
29816SOL    HW192080   0.932   7.315   1.094 -0.1028  3.1168 -0.5471
29816SOL    HW292081   1.024   7.373   1.200  1.0066  0.3216  0.1226
29817SOL     OW92082   1.473   3.872   7.334 -0.7516 -0.0172 -0.1563
29817SOL    HW192083   1.502   3.812   7.403 -0.8124 -0.0873 -0.1914
29817SOL    HW292084   1.383   3.893   7.357 -0.5364  0.5451  0.1926
29818SOL     OW92085   1.386   3.976   2.715  0.4246  0.4537  0.1638
29818SOL    HW192086   1.369   4.070   2.700 -0.6816  0.0360 -1.4715
29818SOL    HW292087   1.373   3.965   2.809 -1.5631  1.5801  0.0859
29819SOL     OW92088   1.466   8.104   0.781  0.4885  0.6842 -0.1393
29819SOL    HW192089   1.497   8.063   0.861  1.3331  0.6339 -0.4799
29819SOL    HW292090   1.500   8.049   0.710  1.2675  1.7001 -0.5861
29820SOL     OW92091   9.840   6.412   8.659 -0.5845 -0.3998  0.1173
29820SOL    HW192092   9.783   6.355   8.709  0.8367 -1.8406  0.1899
29820SOL    HW292093   9.922   6.414   8.708  0.6583 -1.3794 -1.7778
29821SOL     OW92094   0.056   8.829   1.953  0.3231 -0.3172  0.2739
29821SOL    HW192095  -0.024   8.874   1.984 -0.4370  0.1727 -2.1929
29821SOL    HW292096   0.044   8.738   1.981 -2.1734 -0.7367 -1.7537
29822SOL     OW92097   5.330   9.188   3.272 -0.3654 -0.1187  0.2152
29822SOL    HW192098   5.352   9.098   3.247 -1.5445 -0.5870  0.7605
29822SOL    HW292099   5.366   9.242   3.202 -0.5132 -1.1141 -0.6567
29823SOL     OW92100   2.641   1.840   7.729  0.1067 -0.5484 -0.1986
29823SOL    HW192101   2.592   1.759   7.713 -2.0822  0.4379  1.0406
29823SOL    HW292102   2.634   1.854   7.823  1.5579  0.4347 -0.2124
29824SOL     OW92103   2.890   1.357   5.781  0.0215 -0.1496  0.3990
29824SOL    HW192104   2.931   1.442   5.797 -0.8535  0.7827 -1.9026
29824SOL    HW292105   2.830   1.345   5.855 -0.8920  1.9360  0.0600
29825SOL     OW92106   5.846   3.913   3.993  0.3132  0.0673 -0.0144
29825SOL    HW192107   5.857   3.841   4.056 -0.2893 -0.5874 -0.6327
29825SOL    HW292108   5.751   3.918   3.980  0.5178 -1.3223 -2.5495
29826SOL     OW92109   8.474   2.723   4.902 -0.4361 -0.0592 -0.2500
29826SOL    HW192110   8.560   2.684   4.886 -0.3427  0.1590 -0.2800
29826SOL    HW292111   8.454   2.769   4.820 -0.2637  0.4859  0.0117
29827SOL     OW92112   2.407   9.875   8.911 -0.0753  0.0898 -0.1575
29827SOL    HW192113   2.459   9.795   8.916 -1.9532 -1.1918 -0.1855
29827SOL    HW292114   2.463   9.943   8.949  1.3691 -1.3237  0.3175
29828SOL     OW92115   5.869   7.586   3.646 -0.2919 -0.2917  0.0881
29828SOL    HW192116   5.866   7.500   3.689 -1.6069 -0.2799  0.0614
29828SOL    HW292117   5.777   7.608   3.630 -0.0437  1.5431  0.9343
29829SOL     OW92118   3.748   4.038   3.033  0.4990 -0.4342  0.7137
29829SOL    HW192119   3.702   3.971   2.982  1.9148  0.0024 -1.2603
29829SOL    HW292120   3.829   4.054   2.984  0.7638  1.8505  1.7711
29830SOL     OW92121   5.190   8.297   1.125 -0.0235 -0.3635  0.0836
29830SOL    HW192122   5.253   8.308   1.054 -1.5706  1.7790 -1.0532
29830SOL    HW292123   5.170   8.385   1.155 -1.7473 -1.0306  1.0868
29831SOL     OW92124   0.618   5.002   5.084 -0.1966 -0.2594 -0.0759
29831SOL    HW192125   0.643   4.927   5.138 -0.5859 -0.7393 -0.5467
29831SOL    HW292126   0.553   4.967   5.023  1.1450 -0.0543 -1.6903
29832SOL     OW92127   0.767   7.647   0.719  0.1883 -0.6421  0.2166
29832SOL    HW192128   0.751   7.721   0.777 -1.0376 -0.8521  0.1762
29832SOL    HW292129   0.712   7.663   0.643 -0.4143 -1.7671  0.3820
29833SOL     OW92130   5.590   4.744   0.551  0.2619 -0.1970 -0.1900
29833SOL    HW192131   5.564   4.658   0.583  0.6783  0.2572  1.4601
29833SOL    HW292132   5.514   4.776   0.502 -0.2173 -1.1378 -0.0722
29834SOL     OW92133   6.940   7.333   3.380  0.0929  0.2333 -0.1396
29834SOL    HW192134   6.969   7.303   3.294 -1.2217 -0.7152 -0.2809
29834SOL    HW292135   6.954   7.258   3.438 -2.8087 -0.6391 -0.4009
29835SOL     OW92136   0.381  10.155   1.209 -0.3750  0.3158  0.0181
29835SOL    HW192137   0.424  10.119   1.131 -0.0175  2.4949 -0.8487
29835SOL    HW292138   0.426  10.238   1.225 -1.8779  0.9300  1.2789
29836SOL     OW92139   4.902   9.719   5.858 -0.4316  0.7032 -0.8895
29836SOL    HW192140   4.871   9.698   5.769 -2.2563 -1.1789  0.0802
29836SOL    HW292141   4.833   9.685   5.915  0.5740  2.0939  1.2615
29837SOL     OW92142   5.012   0.560  10.106  0.2676  0.1731 -0.0033
29837SOL    HW192143   4.992   0.502  10.179  0.8470 -0.1977 -0.1281
29837SOL    HW292144   5.107   0.574  10.113  0.5387 -0.8023 -1.3539
29838SOL     OW92145   1.730   6.731   9.930  0.4705 -0.5087  0.2275
29838SOL    HW192146   1.642   6.769   9.923  0.4710 -0.6015 -0.4000
29838SOL    HW292147   1.716   6.638   9.943  0.4735 -0.6140 -0.4953
29839SOL     OW92148   7.921   2.056   2.263  0.0715 -0.0776  0.2407
29839SOL    HW192149   7.975   2.033   2.187  1.5732  0.9559  0.9625
29839SOL    HW292150   7.846   2.102   2.225  0.7800  0.3906 -0.6301
29840SOL     OW92151   0.463   5.972   4.249  0.1499  0.0698  0.5656
29840SOL    HW192152   0.525   6.043   4.267  0.4102  0.0655 -0.2658
29840SOL    HW292153   0.466   5.917   4.327 -1.1766  1.7626  1.8738
29841SOL     OW92154   6.190   1.906   0.538 -0.0100 -0.2652 -0.1366
29841SOL    HW192155   6.165   1.846   0.468 -1.4382 -1.6037  1.4148
29841SOL    HW292156   6.151   1.990   0.513 -0.3159 -0.6682 -1.0490
29842SOL     OW92157   5.611   0.445   6.418 -0.1203 -0.5711 -0.3790
29842SOL    HW192158   5.576   0.358   6.438  0.5479 -1.2635 -2.0501
29842SOL    HW292159   5.600   0.455   6.324 -1.1113  1.6093 -0.1087
29843SOL     OW92160   4.700   4.808   7.821 -0.2867  0.2135  0.0260
29843SOL    HW192161   4.770   4.815   7.886 -0.5328 -2.0403  0.5986
29843SOL    HW292162   4.622   4.838   7.867 -0.4246 -1.1965  0.7592
29844SOL     OW92163   2.769   8.618   1.434  0.5168 -0.2785  0.6566
29844SOL    HW192164   2.797   8.678   1.365 -0.2898  0.2118  0.7395
29844SOL    HW292165   2.743   8.538   1.388  0.8134 -0.2707  0.4732
29845SOL     OW92166   3.071   9.876   3.350  0.3876  0.0343 -0.0003
29845SOL    HW192167   3.065   9.866   3.255 -0.2848  0.6071 -0.0317
29845SOL    HW292168   3.148   9.826   3.375  0.5251 -0.1892 -0.8403
29846SOL     OW92169   3.656   4.878   7.517  0.2649 -0.2119  0.1468
29846SOL    HW192170   3.688   4.927   7.442 -0.0889  1.7616  1.2242
29846SOL    HW292171   3.735   4.857   7.567  0.4005 -0.5655 -0.2113
29847SOL     OW92172   0.098   3.495   4.045  0.5764  0.1811 -0.6458
29847SOL    HW192173   0.091   3.509   4.139 -2.1481 -3.7119 -0.0223
29847SOL    HW292174   0.162   3.425   4.035 -0.9500 -1.1894 -1.3454
29848SOL     OW92175  10.123   2.343   5.634 -0.5030  0.3694 -0.1030
29848SOL    HW192176  10.173   2.297   5.566 -2.0045 -0.3611 -0.7499
29848SOL    HW292177  10.166   2.428   5.641  1.2534 -0.4572 -0.1255
29849SOL     OW92178   4.191   3.639   0.410 -0.5230 -0.3727  0.0428
29849SOL    HW192179   4.148   3.676   0.487  1.4300  1.2786  0.4273
29849SOL    HW292180   4.164   3.695   0.338 -0.7120 -0.6458 -0.0987
29850SOL     OW92181   4.070   8.611   2.571 -0.5993  0.3090 -0.2348
29850SOL    HW192182   4.074   8.705   2.585  1.9420  0.8131 -3.3156
29850SOL    HW292183   4.107   8.573   2.651  0.7816  2.0978  0.0301
29851SOL     OW92184   6.478   5.618   3.972 -0.0817 -0.3074 -0.0949
29851SOL    HW192185   6.443   5.695   4.018 -0.2760 -1.0159  0.9884
29851SOL    HW292186   6.573   5.631   3.974 -0.0277 -0.7146  1.2803
29852SOL     OW92187   1.451   2.048   4.901 -0.1637  0.1717 -0.0535
29852SOL    HW192188   1.518   2.116   4.912  0.9231 -0.8210 -0.3808
29852SOL    HW292189   1.419   2.061   4.812 -0.0076  0.3030 -0.0911
29853SOL     OW92190   5.709   1.141   6.534  0.9775 -0.0312  0.6397
29853SOL    HW192191   5.752   1.211   6.484  0.9616  0.4812  1.3159
29853SOL    HW292192   5.771   1.121   6.604  0.9901 -0.7230  0.4367
29854SOL     OW92193  10.192   8.420   9.954 -0.3457 -0.6039  0.1105
29854SOL    HW192194  10.182   8.357  10.025  3.0422 -0.2662  1.0558
29854SOL    HW292195  10.277   8.460   9.970 -1.3272  2.5691 -1.7800
29855SOL     OW92196   9.186   0.946   1.638 -0.5364 -0.4432  0.2985
29855SOL    HW192197   9.231   0.898   1.709 -0.3450  1.5349  1.5966
29855SOL    HW292198   9.109   0.893   1.619  0.8361 -2.4521  0.0247
29856SOL     OW92199   1.379   4.435   0.336  0.2529 -0.1368  0.0295
29856SOL    HW192200   1.331   4.513   0.308  1.0067  1.0931  1.9418
29856SOL    HW292201   1.469   4.451   0.305  0.7249  0.4805  1.5917
29857SOL     OW92202   6.249   9.939   9.844 -0.6609 -0.1566 -0.4223
29857SOL    HW192203   6.326   9.921   9.790 -0.7082  0.8265 -0.8514
29857SOL    HW292204   6.281   9.993   9.916 -0.9944  0.5492 -0.7933
29858SOL     OW92205   1.440   8.440   3.573  0.1898  1.2838  0.3243
29858SOL    HW192206   1.345   8.442   3.560 -0.2734  0.2218  2.8866
29858SOL    HW292207   1.471   8.370   3.517 -0.6550  1.1270  0.0448
29859SOL     OW92208   2.933   8.354   4.131  0.0063 -0.1235  0.0424
29859SOL    HW192209   2.856   8.333   4.078  0.7109 -1.1660 -0.5999
29859SOL    HW292210   2.992   8.279   4.120  0.8161  0.3254  1.0956
29860SOL     OW92211   3.027   6.428   2.531 -0.0114 -0.4145  0.0826
29860SOL    HW192212   3.003   6.430   2.439 -1.1555 -0.1706  0.3764
29860SOL    HW292213   2.990   6.508   2.568  1.0974 -0.1183  0.6123
29861SOL     OW92214   1.964   2.266   8.049  0.0905  0.1739 -0.2789
29861SOL    HW192215   1.876   2.234   8.068 -0.9622  1.8324 -2.0250
29861SOL    HW292216   2.001   2.202   7.988 -0.6972  0.4881 -1.1086
29862SOL     OW92217   6.112   2.603   0.287  0.7871 -0.4883 -0.6964
29862SOL    HW192218   6.038   2.542   0.285  0.4415 -0.2653  1.9874
29862SOL    HW292219   6.130   2.616   0.380  2.2353  1.8669 -1.2239
29863SOL     OW92220   6.342   2.189   1.003 -0.6143 -0.3784 -0.2195
29863SOL    HW192221   6.312   2.232   0.923 -1.1574  0.6314  0.4953
29863SOL    HW292222   6.310   2.246   1.074  0.6889 -0.7191  0.6784
29864SOL     OW92223   9.742   6.061   8.280 -0.1614 -0.0033 -0.1952
29864SOL    HW192224   9.650   6.086   8.287  0.1435  0.5855  2.7566
29864SOL    HW292225   9.740   5.969   8.253 -1.5576  0.2877 -1.1703
29865SOL     OW92226   7.349   9.475   7.352 -0.4362  0.3331 -0.0873
29865SOL    HW192227   7.297   9.401   7.320 -0.9092  0.8377 -0.5180
29865SOL    HW292228   7.300   9.552   7.324  0.0157  0.8096  0.4161
29866SOL     OW92229   4.132   9.006   5.409 -0.0321  0.2479 -0.2115
29866SOL    HW192230   4.137   8.914   5.383 -1.1201  0.2909 -0.6105
29866SOL    HW292231   4.073   9.046   5.345  1.5767  1.5574 -0.9662
29867SOL     OW92232   6.658   4.062   5.712 -0.5746 -0.7370 -0.2552
29867SOL    HW192233   6.600   4.021   5.647 -0.6372  2.3344 -2.3379
29867SOL    HW292234   6.746   4.044   5.679 -0.6217  1.7749 -1.9876
29868SOL     OW92235   4.136   2.617   7.732  0.2373 -0.5236 -0.0162
29868SOL    HW192236   4.183   2.647   7.810 -1.0040 -0.1862  0.6297
29868SOL    HW292237   4.088   2.539   7.760 -0.3032 -0.3403 -0.3921
29869SOL     OW92238   8.079   8.711   8.806  0.0227  0.1948  0.1750
29869SOL    HW192239   8.066   8.638   8.745 -0.0991  0.0090  0.4217
29869SOL    HW292240   8.112   8.670   8.886  1.4905  0.5825 -0.1987
29870SOL     OW92241   4.006   2.262   9.580 -0.5597 -0.4970 -0.4164
29870SOL    HW192242   4.057   2.273   9.500  0.2618 -1.4906 -0.0585
29870SOL    HW292243   3.926   2.218   9.551 -0.5055 -0.3768 -0.7586
29871SOL     OW92244   4.086   7.971   3.409 -0.1293  0.2466 -0.2266
29871SOL    HW192245   4.083   7.998   3.317  0.5732  0.6960 -0.1196
29871SOL    HW292246   4.096   8.052   3.458  0.7658 -0.0840  0.1684
29872SOL     OW92247   6.770   5.889   3.094  0.1224  0.0134  0.2721
29872SOL    HW192248   6.686   5.854   3.123  0.1519 -0.1455  0.1686
29872SOL    HW292249   6.830   5.814   3.097  0.3314  0.1872  0.6209
29873SOL     OW92250   6.146   3.601   5.914 -0.7521 -0.9539  0.1228
29873SOL    HW192251   6.193   3.518   5.908  0.5895 -0.1478 -1.2579
29873SOL    HW292252   6.213   3.664   5.942 -1.6367 -0.2358  0.6716
29874SOL     OW92253  10.281  10.113   7.320  0.4795  0.0978 -0.1336
29874SOL    HW192254  10.373  10.131   7.303  0.5517  1.8147  1.6351
29874SOL    HW292255  10.248  10.194   7.359 -1.2596 -1.1673  1.1913
29875SOL     OW92256   3.653   4.039   8.580 -0.0577  0.2325 -0.1632
29875SOL    HW192257   3.707   4.115   8.602  2.5132 -1.1704 -1.2328
29875SOL    HW292258   3.672   4.022   8.488  0.7376 -2.6725  0.4435
29876SOL     OW92259   0.446   5.877   7.496  0.3430  0.0326  0.0308
29876SOL    HW192260   0.479   5.882   7.407 -1.7716  2.1118 -0.7595
29876SOL    HW292261   0.389   5.800   7.497  0.3735  0.0024 -0.4333
29877SOL     OW92262   1.427   0.992  10.129 -0.1490 -0.2513  0.3045
29877SOL    HW192263   1.398   0.921  10.185  0.8091 -0.1210  0.9817
29877SOL    HW292264   1.509   1.021  10.167 -0.3005  0.9262 -0.2227
29878SOL     OW92265   5.791   4.462   2.625 -0.4985  0.1244  0.1619
29878SOL    HW192266   5.732   4.530   2.659  0.6273  1.3474 -0.2440
29878SOL    HW292267   5.861   4.457   2.690  2.0979  3.0374 -2.1071
29879SOL     OW92268   7.565   5.645   0.187 -0.3778  0.2765  0.0708
29879SOL    HW192269   7.599   5.632   0.098  1.1609 -1.2240  0.8368
29879SOL    HW292270   7.470   5.634   0.178 -0.1566 -0.8244 -1.2399
29880SOL     OW92271   0.234   8.427   9.864 -0.4970 -0.4867 -0.3910
29880SOL    HW192272   0.315   8.448   9.819  0.1215 -0.4290  0.7156
29880SOL    HW292273   0.238   8.476   9.946 -2.1485  0.3879 -0.7694
29881SOL     OW92274   7.918   7.741   4.739 -0.0634 -0.0583  0.2139
29881SOL    HW192275   7.865   7.811   4.702  0.5190 -0.7694 -2.2128
29881SOL    HW292276   8.007   7.760   4.709  0.2003 -1.4718  0.0065
29882SOL     OW92277   1.288   5.141   7.159 -0.4212  0.1781 -0.3713
29882SOL    HW192278   1.350   5.204   7.197 -0.2166 -0.5276  0.4918
29882SOL    HW292279   1.203   5.170   7.193 -0.2877 -0.1982  0.3063
29883SOL     OW92280   7.129   4.474   9.376  0.1482  0.0564  0.0789
29883SOL    HW192281   7.161   4.384   9.378 -1.4585 -0.6041 -1.2675
29883SOL    HW292282   7.208   4.527   9.365  0.9600 -1.3645 -1.3754
29884SOL     OW92283   9.833   6.372   4.725 -0.0653 -0.3605 -0.2965
29884SOL    HW192284   9.829   6.326   4.808  0.7217  1.2393  0.6810
29884SOL    HW292285   9.877   6.311   4.666 -1.2403 -1.7886  0.2291
29885SOL     OW92286   2.258   1.010   2.286 -0.1475 -0.8187  0.0256
29885SOL    HW192287   2.187   0.956   2.319 -1.8222  0.5778 -1.0898
29885SOL    HW292288   2.239   1.021   2.193  1.8151 -0.7779 -0.4199
29886SOL     OW92289   9.731   8.987   2.770 -0.2570  0.3310  0.3025
29886SOL    HW192290   9.718   9.038   2.690 -0.2243  1.2462  0.8699
29886SOL    HW292291   9.826   8.976   2.776 -0.2581  0.2818  0.2326
29887SOL     OW92292   2.121   3.900   9.423  0.6296 -0.0188 -0.0634
29887SOL    HW192293   2.166   3.816   9.433  0.0039 -0.5093 -1.1954
29887SOL    HW292294   2.058   3.886   9.352 -0.4423  1.0083  0.6318
29888SOL     OW92295   0.983   7.703  10.007 -0.2491  0.2843 -0.1439
29888SOL    HW192296   1.012   7.650   9.933 -0.5757  0.3044 -0.2870
29888SOL    HW292297   0.888   7.704  10.000 -0.2262  1.3470 -0.4682
29889SOL     OW92298   1.858   4.818   6.339 -0.0559 -0.1974  0.6470
29889SOL    HW192299   1.898   4.758   6.402 -1.6878 -0.2079  1.7486
29889SOL    HW292300   1.892   4.791   6.254  1.9727 -0.3936  1.4468
29890SOL     OW92301   2.678   5.012   7.212  0.1095 -0.1586 -0.3997
29890SOL    HW192302   2.738   5.060   7.154 -0.2919  0.0661 -0.6356
29890SOL    HW292303   2.699   5.044   7.300  1.3403 -1.1651 -0.3122
29891SOL     OW92304   5.947  10.153   9.301  0.8466  0.0895 -0.4091
29891SOL    HW192305   5.960  10.194   9.215 -1.9465 -0.9356 -1.4399
29891SOL    HW292306   6.009  10.081   9.303  1.7940  0.8545 -1.0092
29892SOL     OW92307   1.752   9.778   9.819  0.0147  0.1445 -0.3265
29892SOL    HW192308   1.657   9.767   9.820  0.2577 -3.0817 -0.2802
29892SOL    HW292309   1.785   9.691   9.797  2.9882  1.1139 -0.0833
29893SOL     OW92310   5.853   4.372  10.142  0.0346 -0.0208 -0.0289
29893SOL    HW192311   5.864   4.458  10.182 -1.8856 -0.7221  2.1691
29893SOL    HW292312   5.811   4.390  10.058 -1.0906  1.1546  0.7597
29894SOL     OW92313   5.313   1.408   1.439  0.3373 -0.0824 -0.1546
29894SOL    HW192314   5.328   1.314   1.449 -0.0518 -0.3904 -2.0079
29894SOL    HW292315   5.237   1.427   1.494  0.7398 -0.7306  0.6452
29895SOL     OW92316   3.636   2.857   3.554 -0.5246 -0.5918 -0.0339
29895SOL    HW192317   3.557   2.906   3.529 -0.3964 -0.8156 -0.9000
29895SOL    HW292318   3.680   2.839   3.471  1.5260  1.2940  0.5583
29896SOL     OW92319   7.439   1.029   9.544  0.0609 -0.4632  0.2292
29896SOL    HW192320   7.460   1.087   9.617  0.0225  0.3158 -0.3707
29896SOL    HW292321   7.365   1.071   9.500 -1.0785 -1.8228  0.7584
29897SOL     OW92322   0.337   3.083   0.234 -0.0567 -0.0323  0.0033
29897SOL    HW192323   0.296   3.000   0.208 -2.3288  0.5555  1.4595
29897SOL    HW292324   0.389   3.061   0.311  0.5670 -0.3386 -0.4872
29898SOL     OW92325   7.852   6.031   7.720  0.4037  0.2365 -0.0747
29898SOL    HW192326   7.915   5.965   7.694  2.0270  1.6683  0.0599
29898SOL    HW292327   7.893   6.115   7.696 -1.8699  1.1980 -0.8934
29899SOL     OW92328   9.782   6.249   8.005 -0.4063  0.1939  0.1470
29899SOL    HW192329   9.779   6.344   7.994 -0.0970  0.2546  0.5479
29899SOL    HW292330   9.718   6.215   7.942  0.4316  0.5769 -0.9228
29900SOL     OW92331   6.256   4.228   8.274  0.0213 -0.3346 -0.4654
29900SOL    HW192332   6.287   4.144   8.309  0.4111 -0.4114 -0.9708
29900SOL    HW292333   6.322   4.252   8.208 -1.4812 -1.0305 -2.3448
29901SOL     OW92334   8.489   6.934   5.806 -0.3712 -0.7927 -0.0857
29901SOL    HW192335   8.402   6.894   5.806  1.0817 -4.2754  0.4723
29901SOL    HW292336   8.517   6.932   5.898  0.7510 -0.8119 -0.4097
29902SOL     OW92337   4.587   8.577   7.401 -0.1579 -0.6952  0.2421
29902SOL    HW192338   4.622   8.662   7.374  1.0563 -1.2469 -0.0110
29902SOL    HW292339   4.658   8.538   7.453 -1.3829 -0.8051  1.8978
29903SOL     OW92340   4.905   6.763   0.638 -0.4443 -0.0925  0.0900
29903SOL    HW192341   4.847   6.688   0.651 -1.2176  0.3463 -0.6757
29903SOL    HW292342   4.973   6.731   0.579 -1.9756  0.3414 -2.0286
29904SOL     OW92343   3.837   0.336   2.807 -0.2059  0.2219 -0.0781
29904SOL    HW192344   3.759   0.317   2.754 -1.9059  2.0708  1.5521
29904SOL    HW292345   3.899   0.375   2.746 -1.3164  0.4685 -1.0991
29905SOL     OW92346   2.455   6.457   4.039 -0.1852  0.0113  0.1613
29905SOL    HW192347   2.468   6.521   3.969  0.6213  0.2627  0.5303
29905SOL    HW292348   2.543   6.435   4.068 -0.4998 -0.3756  0.8451
29906SOL     OW92349   4.394   7.181   2.833  0.1266 -0.3828 -0.0828
29906SOL    HW192350   4.414   7.235   2.757 -0.3237  0.4043  0.3449
29906SOL    HW292351   4.366   7.243   2.900 -0.6760 -1.1628  0.3329
29907SOL     OW92352   6.731   4.197   2.415 -0.4235 -0.2736  0.5377
29907SOL    HW192353   6.760   4.186   2.506  1.9157 -1.5374 -0.2975
29907SOL    HW292354   6.801   4.247   2.373 -1.0065 -0.5626 -0.8363
29908SOL     OW92355   0.279   2.666   0.685 -0.2631  0.4653  0.0073
29908SOL    HW192356   0.371   2.665   0.658 -0.4167  0.2756 -0.5387
29908SOL    HW292357   0.253   2.574   0.685 -0.6845  0.5720 -0.6932
29909SOL     OW92358   1.633  10.096   5.394 -0.4371 -0.2667 -0.0679
29909SOL    HW192359   1.617  10.040   5.470  0.2507  0.8884  0.9358
29909SOL    HW292360   1.581  10.175   5.410  2.7445  1.7319  1.2065
29910SOL     OW92361   4.761   7.075   6.084  0.3987 -0.3356 -0.5493
29910SOL    HW192362   4.851   7.094   6.058  0.1184  0.7931 -0.7492
29910SOL    HW292363   4.710   7.091   6.005 -0.0487 -0.2982 -0.2554
29911SOL     OW92364   4.949   3.507   0.338 -0.1725 -0.3104 -0.7265
29911SOL    HW192365   5.000   3.584   0.313  0.0586 -0.9379 -2.2778
29911SOL    HW292366   4.959   3.502   0.433 -0.5899  1.8267 -0.5236
29912SOL     OW92367   1.309   2.123   4.683  0.5212  0.1522 -0.1142
29912SOL    HW192368   1.312   2.150   4.591 -1.5248 -0.4707 -0.4159
29912SOL    HW292369   1.258   2.191   4.727 -1.1608 -1.0573 -0.0892
29913SOL     OW92370  10.243   3.315   9.206  0.5410  0.1150  0.1039
29913SOL    HW192371  10.275   3.405   9.206  0.6292  0.1136 -1.5732
29913SOL    HW292372  10.321   3.262   9.223  0.2136  0.3857  2.7587
29914SOL     OW92373   6.005   2.641   9.734  0.0600 -0.3600  0.0480
29914SOL    HW192374   5.916   2.624   9.702  0.7158 -0.1259 -2.0646
29914SOL    HW292375   6.034   2.557   9.768 -0.7256 -0.6074  0.1378
29915SOL     OW92376   0.401   0.370   0.887 -0.3816  0.2499  0.7894
29915SOL    HW192377   0.460   0.307   0.844  0.7856  0.3937  2.1165
29915SOL    HW292378   0.342   0.316   0.939 -0.9274  0.1521  0.0913
29916SOL     OW92379   5.339   4.353   8.635 -0.2354 -0.3476 -0.1847
29916SOL    HW192380   5.263   4.355   8.694  0.8622 -1.0147  1.3083
29916SOL    HW292381   5.362   4.260   8.629  1.8230 -0.0081  1.2759
29917SOL     OW92382   4.271   8.158   9.323 -0.4671  0.4070 -0.0553
29917SOL    HW192383   4.202   8.212   9.286  0.7272  3.1896  1.4621
29917SOL    HW292384   4.352   8.204   9.302  0.7430 -1.3147  0.5374
29918SOL     OW92385   5.754   0.949   3.392 -0.2787  0.4873  0.0251
29918SOL    HW192386   5.668   0.987   3.373  0.5578  1.8636 -1.1928
29918SOL    HW292387   5.785   0.998   3.468 -0.9273 -0.6521  1.0621
29919SOL     OW92388   4.500   9.052   7.437  0.2201 -0.0688 -0.3997
29919SOL    HW192389   4.436   8.989   7.405 -0.3523  0.8250 -1.0837
29919SOL    HW292390   4.510   9.032   7.530  0.5418 -1.5588 -0.7316
29920SOL     OW92391   0.549   3.143   4.147  0.4740  0.2205 -0.7521
29920SOL    HW192392   0.581   3.228   4.117  1.2315 -0.1167 -0.9274
29920SOL    HW292393   0.627   3.088   4.151  0.1244 -0.2424  0.1447
29921SOL     OW92394   7.520   9.124   7.570  0.4967 -0.1221 -0.2571
29921SOL    HW192395   7.523   9.102   7.477 -1.7088  0.3542 -0.4868
29921SOL    HW292396   7.498   9.217   7.572  1.6210  0.1579  0.7699
29922SOL     OW92397   9.740   6.146   3.662  0.1500  0.1552  0.7146
29922SOL    HW192398   9.811   6.188   3.710 -0.8945  0.4508  2.0354
29922SOL    HW292399   9.667   6.208   3.666 -0.4905 -0.5330  0.1682
29923SOL     OW92400   2.151   7.947  10.090  0.0839 -0.1381  1.0416
29923SOL    HW192401   2.107   7.871  10.053 -0.5957 -0.4753  2.4519
29923SOL    HW292402   2.112   7.957  10.177  1.0328  1.0875  1.3607
29924SOL     OW92403   4.502  10.307   1.456  0.9417 -0.1005 -0.0124
29924SOL    HW192404   4.453  10.332   1.378  0.9087 -1.2076 -0.3654
29924SOL    HW292405   4.583  10.359   1.451  0.8333  0.0149 -0.6502
29925SOL     OW92406   0.090   1.961   9.014  0.0400 -0.0425 -0.6609
29925SOL    HW192407   0.104   1.954   8.920  0.2206  1.0136 -0.7324
29925SOL    HW292408   0.029   2.035   9.023  1.6407  1.2542  0.1386
29926SOL     OW92409   5.003   3.609   8.444 -0.1897 -0.7678 -0.5869
29926SOL    HW192410   5.087   3.620   8.399 -0.6409  0.2887 -1.2037
29926SOL    HW292411   5.026   3.590   8.535  0.7230 -1.6907 -0.9919
29927SOL     OW92412   3.051   8.930   1.584  0.3102  0.3598 -0.1145
29927SOL    HW192413   3.096   8.954   1.503  2.2080  0.5627  0.9430
29927SOL    HW292414   3.082   8.994   1.649  1.1270 -1.5087  1.4451
29928SOL     OW92415   5.745   6.715   0.327 -0.0178 -0.0588  0.1722
29928SOL    HW192416   5.821   6.755   0.368  0.5139  0.3434 -1.1666
29928SOL    HW292417   5.678   6.714   0.396  0.3355  2.0098  0.5949
29929SOL     OW92418   5.133   4.998   9.085 -0.7502 -0.4303  0.4496
29929SOL    HW192419   5.214   5.026   9.043 -1.3015 -0.1937 -0.5068
29929SOL    HW292420   5.078   4.968   9.012 -1.3219 -1.0885  1.1348
29930SOL     OW92421   9.898   2.602   7.541 -0.1369  0.4229 -0.5072
29930SOL    HW192422   9.903   2.643   7.627  0.4850  1.4098 -0.9913
29930SOL    HW292423   9.932   2.669   7.481 -0.2007 -0.3896 -1.4682
29931SOL     OW92424   6.456   7.784   7.666 -0.0467  0.1165  0.2227
29931SOL    HW192425   6.430   7.732   7.742  0.7601  0.2593  0.6130
29931SOL    HW292426   6.405   7.865   7.674 -0.4325 -0.1339  0.2693
29932SOL     OW92427   6.090   3.868   1.264 -0.4613 -0.5251 -0.3425
29932SOL    HW192428   6.099   3.791   1.321 -1.0747 -1.1230 -1.0483
29932SOL    HW292429   6.008   3.909   1.292  0.4848  0.6351  0.9099
29933SOL     OW92430   1.104   2.098   9.596  0.0935  0.0115  0.0081
29933SOL    HW192431   1.172   2.152   9.555  0.5855 -1.4458 -1.2207
29933SOL    HW292432   1.023   2.125   9.553  0.4920 -0.9270 -1.4378
29934SOL     OW92433   5.526   6.621   4.373 -0.5183  0.0104  0.1258
29934SOL    HW192434   5.574   6.700   4.349 -0.8560  0.8562  2.0679
29934SOL    HW292435   5.588   6.569   4.425 -0.9990  0.0953  0.8030
29935SOL     OW92436   6.037   2.974   0.913 -0.2191  0.4410  0.1482
29935SOL    HW192437   6.069   2.970   1.004 -0.4834  2.3238  0.3547
29935SOL    HW292438   5.959   3.029   0.917 -0.2645  0.5098 -1.2259
29936SOL     OW92439   4.792   6.535   0.303  0.1779  0.5146 -0.0930
29936SOL    HW192440   4.760   6.467   0.243  2.0248 -1.1287  0.6670
29936SOL    HW292441   4.782   6.496   0.390  0.0044  1.7969  0.4752
29937SOL     OW92442   8.961   2.912   6.190  0.4977  0.0114 -0.6247
29937SOL    HW192443   8.914   2.912   6.274  0.0448  0.7496 -0.8711
29937SOL    HW292444   8.892   2.917   6.124  0.9104  1.1401 -0.9933
29938SOL     OW92445   6.912   8.018   3.779  0.0863 -0.2256 -0.1125
29938SOL    HW192446   6.826   8.030   3.738 -0.2459  1.9705  1.0689
29938SOL    HW292447   6.974   8.031   3.707 -0.5428  0.1681 -0.6073
29939SOL     OW92448   3.531   2.878   8.923  0.5105 -0.5706  0.4474
29939SOL    HW192449   3.467   2.812   8.951  0.4159 -0.7488 -0.1723
29939SOL    HW292450   3.542   2.934   8.999 -1.2048  0.1033  0.2527
29940SOL     OW92451   3.372   0.096   0.194  0.0297 -0.4601 -0.0635
29940SOL    HW192452   3.293   0.096   0.248  1.4373  0.9944  2.1638
29940SOL    HW292453   3.436   0.145   0.245  2.1083 -0.7390 -2.2179
29941SOL     OW92454   8.445   3.772   0.531  0.5955  0.3266  0.2325
29941SOL    HW192455   8.497   3.846   0.502 -1.3474  1.6453 -0.1205
29941SOL    HW292456   8.394   3.806   0.605 -1.0999 -0.2926 -0.5838
29942SOL     OW92457   7.019   3.155   3.764 -0.2789  1.0600  0.0237
29942SOL    HW192458   6.995   3.159   3.671 -0.4451  0.4859  0.0327
29942SOL    HW292459   6.936   3.140   3.809 -0.0321 -0.1136  0.1299
29943SOL     OW92460   9.138   5.797   0.540 -0.2203  0.2501 -0.4368
29943SOL    HW192461   9.226   5.830   0.521 -0.0422  0.9502  1.3226
29943SOL    HW292462   9.079   5.855   0.493  0.2395 -0.5971 -2.1308
29944SOL     OW92463   2.222   8.888   6.963  1.3911 -0.4115  0.0764
29944SOL    HW192464   2.224   8.841   6.880  0.3015 -0.1001 -0.1486
29944SOL    HW292465   2.137   8.864   7.002  1.4108  0.3067  0.5843
29945SOL     OW92466   1.009   1.246   8.769 -0.3389 -0.0302 -0.2579
29945SOL    HW192467   0.960   1.264   8.689  0.7752 -2.1848 -1.5068
29945SOL    HW292468   1.089   1.297   8.760 -0.7244  0.6380  0.0521
29946SOL     OW92469   7.675   8.866   2.884 -0.1649 -0.4498 -0.2975
29946SOL    HW192470   7.706   8.950   2.851  0.2451 -0.4924 -0.0183
29946SOL    HW292471   7.754   8.819   2.909 -0.4261 -0.7280  0.0120
29947SOL     OW92472   0.982   1.078   1.416 -0.2044  0.0695  0.1126
29947SOL    HW192473   0.918   1.146   1.394 -0.9611  0.0479  2.0857
29947SOL    HW292474   0.933   1.015   1.468  1.0336 -0.8399  0.2170
29948SOL     OW92475   7.675   1.118   8.879  0.0193  0.0568  0.3786
29948SOL    HW192476   7.686   1.146   8.788 -1.1984  0.2146  0.2600
29948SOL    HW292477   7.714   1.031   8.883  0.0933  0.0570 -0.2963
29949SOL     OW92478   1.649   2.330   4.528 -0.1124 -0.7475  0.6457
29949SOL    HW192479   1.684   2.404   4.578 -2.2896 -0.3499  1.6827
29949SOL    HW292480   1.683   2.343   4.439  0.0364  1.1782  0.9501
29950SOL     OW92481   3.310   1.049   6.750 -0.1791 -0.6773 -0.4158
29950SOL    HW192482   3.302   1.107   6.674 -0.2216  0.0513  0.1325
29950SOL    HW292483   3.314   0.961   6.713  2.9003 -0.2088 -1.4651
29951SOL     OW92484   2.252   4.058   9.600  0.2082 -0.0503 -0.3318
29951SOL    HW192485   2.213   4.013   9.676 -0.0648 -1.4957 -1.2886
29951SOL    HW292486   2.204   4.024   9.525  0.2357  1.6303 -1.1434
29952SOL     OW92487   0.262   9.660   7.141  0.0607 -0.6193  0.8706
29952SOL    HW192488   0.215   9.735   7.105  0.0900 -0.4166  1.2581
29952SOL    HW292489   0.201   9.622   7.204 -0.2293 -1.3321  0.1805
29953SOL     OW92490   6.419   1.583   3.747 -0.1943 -0.0936  0.3618
29953SOL    HW192491   6.397   1.662   3.696 -0.4113 -0.7359 -0.5602
29953SOL    HW292492   6.373   1.512   3.702 -2.2565 -0.3887  2.7495
29954SOL     OW92493   3.656   8.925   7.138  0.6334 -0.6496 -0.3740
29954SOL    HW192494   3.748   8.898   7.142  0.9391  0.0884 -1.8854
29954SOL    HW292495   3.619   8.878   7.063 -0.3730 -1.2858  0.4814
29955SOL     OW92496   7.543   8.943   6.304  0.8221  0.0986 -0.3175
29955SOL    HW192497   7.552   8.906   6.392 -0.8624  1.6967  0.5929
29955SOL    HW292498   7.484   8.882   6.259  0.1000  0.3153  0.3228
29956SOL     OW92499   1.400   4.287   6.990 -0.2446  0.5656  0.6936
29956SOL    HW192500   1.391   4.199   6.954  2.6845  0.3314  0.3118
29956SOL    HW292501   1.459   4.277   7.064 -0.6978  2.0666  1.2966
29957SOL     OW92502   2.310   4.897   1.408 -0.0026 -1.0462 -0.1581
29957SOL    HW192503   2.294   4.988   1.431 -0.0492 -0.8648 -0.8781
29957SOL    HW292504   2.348   4.859   1.487  1.5385  0.0047 -0.3447
29958SOL     OW92505   7.310   4.411   6.454  0.1278  0.5271 -0.3136
29958SOL    HW192506   7.278   4.458   6.530  0.9480  2.9600 -1.3788
29958SOL    HW292507   7.298   4.318   6.476 -0.3692  1.1604  2.4093
29959SOL     OW92508   1.566   1.263   3.977 -0.0155 -0.1192 -0.0703
29959SOL    HW192509   1.632   1.240   4.043 -1.1285 -2.0322  0.4522
29959SOL    HW292510   1.554   1.357   3.987  0.9936 -0.1075  1.3692
29960SOL     OW92511   7.867   2.780   7.563  0.2762 -0.8599  0.4816
29960SOL    HW192512   7.900   2.732   7.488 -1.0453 -1.4340  0.2259
29960SOL    HW292513   7.796   2.834   7.528 -0.9517 -1.8016  1.4240
29961SOL     OW92514   5.882   6.266   0.164 -0.0754  0.6783  0.5256
29961SOL    HW192515   5.962   6.314   0.188  0.1053 -0.3309  2.1126
29961SOL    HW292516   5.817   6.334   0.148  0.9047  1.5001 -0.0686
29962SOL     OW92517   1.174   4.858   9.727  0.4741 -0.2653  0.8083
29962SOL    HW192518   1.115   4.845   9.653 -0.2665  1.5502  1.0306
29962SOL    HW292519   1.156   4.784   9.785 -1.7357  0.3241  0.9563
29963SOL     OW92520   6.105   6.064   5.754  0.1896 -0.1204 -0.6271
29963SOL    HW192521   6.107   6.092   5.662  2.9816  1.9295 -0.0952
29963SOL    HW292522   6.063   6.137   5.800  0.1596 -0.4444 -0.1320
29964SOL     OW92523   6.577   7.581   9.662 -0.2228 -0.0150  0.1353
29964SOL    HW192524   6.646   7.556   9.723  0.4416 -1.7681 -1.2482
29964SOL    HW292525   6.495   7.560   9.708  0.2173 -0.1340  0.8838
29965SOL     OW92526   7.879   4.128   3.926  0.1679 -0.2085 -0.0132
29965SOL    HW192527   7.796   4.090   3.899  0.2385  0.1597 -0.7782
29965SOL    HW292528   7.930   4.053   3.959 -0.7369 -0.3170  1.2085
29966SOL     OW92529   1.422   4.116   9.248  0.4578 -0.6842  0.9367
29966SOL    HW192530   1.488   4.157   9.192 -0.4480 -2.0228 -1.2263
29966SOL    HW292531   1.369   4.190   9.279  0.9944  0.1079  0.0475
29967SOL     OW92532   6.329   8.152   7.945  0.5208 -0.0514 -0.2029
29967SOL    HW192533   6.288   8.231   7.980 -2.4337 -0.7988 -1.6767
29967SOL    HW292534   6.413   8.182   7.910  0.0688  2.1575  0.4689
29968SOL     OW92535   6.986   9.815   4.084 -0.5010  0.0592  0.0421
29968SOL    HW192536   6.940   9.799   4.001  1.2172 -1.7842 -0.6214
29968SOL    HW292537   6.997   9.910   4.086 -1.7766  0.2761 -1.1513
29969SOL     OW92538   5.740   6.488   7.795 -0.1413  0.6144 -0.0304
29969SOL    HW192539   5.804   6.558   7.809  1.2118 -0.4715 -0.5720
29969SOL    HW292540   5.741   6.438   7.877  0.6336 -0.1016 -0.4536
29970SOL     OW92541   7.070   0.462   5.199  0.2356  0.1147 -0.0154
29970SOL    HW192542   7.123   0.515   5.257 -0.5588  0.1428  0.7006
29970SOL    HW292543   6.986   0.451   5.245 -0.3601  0.0181 -1.0802
29971SOL     OW92544   9.065   9.210   1.505  0.2126  0.2107  0.2310
29971SOL    HW192545   9.150   9.202   1.548  0.5164  0.7642 -0.2563
29971SOL    HW292546   9.026   9.123   1.512  1.4788 -0.4834 -0.8764
29972SOL     OW92547   8.403   4.991   8.201 -0.0264  0.7713 -0.1074
29972SOL    HW192548   8.441   4.911   8.237  1.4848  1.7826  0.6570
29972SOL    HW292549   8.462   5.017   8.131 -0.7980  0.9518 -0.7092
29973SOL     OW92550   8.058   8.568   3.324  0.4390 -0.3938 -0.3307
29973SOL    HW192551   8.077   8.659   3.346 -0.0841 -0.6957  1.5447
29973SOL    HW292552   8.009   8.573   3.243 -2.5302  1.3017  1.3825
29974SOL     OW92553   3.439   4.459   1.975  0.5204  0.1554  0.1153
29974SOL    HW192554   3.355   4.494   1.948  0.5574 -0.7265 -1.2708
29974SOL    HW292555   3.487   4.534   2.011 -0.1695  1.0618 -0.8030
29975SOL     OW92556   2.296   9.072   4.729 -0.1621  0.2486 -0.2190
29975SOL    HW192557   2.273   9.159   4.695  0.5594  0.1029 -1.1261
29975SOL    HW292558   2.212   9.026   4.734 -0.7945  1.5078  1.8675
29976SOL     OW92559   8.549   5.542   4.121 -0.5675  0.3578  0.0089
29976SOL    HW192560   8.634   5.503   4.141  0.3120  0.1681 -3.5495
29976SOL    HW292561   8.565   5.637   4.126  0.0325  0.3326 -1.1589
29977SOL     OW92562   4.864   9.922   0.433 -0.5638 -0.3630 -0.4008
29977SOL    HW192563   4.901   9.841   0.467  0.4320  0.5393  0.7899
29977SOL    HW292564   4.843   9.973   0.511 -2.4591 -0.0054 -1.1059
29978SOL     OW92565   4.919   7.887   8.307  0.0189  0.0030 -0.4160
29978SOL    HW192566   4.940   7.866   8.216 -1.5675  0.9246 -1.0334
29978SOL    HW292567   4.838   7.937   8.302 -0.9975 -1.2992  1.6294
29979SOL     OW92568   7.769   3.627   2.450 -0.2182  0.3754  0.6992
29979SOL    HW192569   7.774   3.673   2.534 -2.4148 -2.1067  2.3232
29979SOL    HW292570   7.675   3.618   2.433  0.0807 -2.7242  0.1251
29980SOL     OW92571   2.434   4.985   9.820 -0.0301 -0.0144 -0.1150
29980SOL    HW192572   2.519   4.941   9.808  0.3839 -0.1383  2.6646
29980SOL    HW292573   2.429   5.047   9.748  0.0190 -3.4593 -3.4219
29981SOL     OW92574   1.328   3.043   4.944 -0.3835  0.1405 -0.7862
29981SOL    HW192575   1.331   2.976   5.012 -1.6351  0.2276 -0.6247
29981SOL    HW292576   1.250   3.095   4.964  0.8429  1.9992 -0.5878
29982SOL     OW92577   4.639   3.103  10.073 -0.0543  0.0922 -0.1351
29982SOL    HW192578   4.543   3.105  10.071 -0.0758  0.0003 -3.0304
29982SOL    HW292579   4.662   3.014  10.048  0.8356 -0.1832  1.5321
29983SOL     OW92580   8.701   7.116   9.033  0.7712  0.5672 -0.0501
29983SOL    HW192581   8.730   7.130   8.943 -0.9605 -0.5847 -0.8628
29983SOL    HW292582   8.607   7.134   9.030  0.8346  1.3442  1.7441
29984SOL     OW92583   3.879   7.364   9.791  0.0828 -0.2606  0.4906
29984SOL    HW192584   3.820   7.299   9.753 -1.2205 -0.4883  2.7719
29984SOL    HW292585   3.925   7.318   9.861  1.7227  0.3934 -0.1017
29985SOL     OW92586   5.094   4.309   6.545 -0.2939 -0.2404  0.8000
29985SOL    HW192587   5.019   4.291   6.603  0.1526 -2.1347  0.8340
29985SOL    HW292588   5.067   4.386   6.495 -2.0762 -0.5917  1.1536
29986SOL     OW92589   5.276   1.128   6.195 -0.1408  0.0580 -0.8198
29986SOL    HW192590   5.287   1.094   6.106 -0.6234  2.3129 -1.8095
29986SOL    HW292591   5.327   1.209   6.197 -1.2370  0.7685  0.5002
29987SOL     OW92592   9.902   0.025   9.498 -0.1644  0.1877  0.3785
29987SOL    HW192593   9.861   0.064   9.420 -1.7954  1.6151  1.8582
29987SOL    HW292594   9.965  -0.038   9.463 -0.5786  1.0275 -2.0923
29988SOL     OW92595   9.893   3.401  10.349  0.1158  0.0279 -0.6662
29988SOL    HW192596   9.988   3.407  10.356  0.1144 -0.0751 -0.5676
29988SOL    HW292597   9.866   3.488  10.320  0.2149  0.1314 -0.4462
29989SOL     OW92598   8.130   1.688   2.127  0.2404 -0.5556 -0.1094
29989SOL    HW192599   8.115   1.594   2.120  0.4648 -0.5338 -0.9438
29989SOL    HW292600   8.067   1.717   2.193 -1.0463 -1.0048 -1.0991
29990SOL     OW92601   3.514   6.124   2.484 -0.1063  0.3820 -0.3787
29990SOL    HW192602   3.503   6.214   2.455  0.5052  0.3997 -0.5642
29990SOL    HW292603   3.451   6.074   2.432 -0.3182  0.6747 -0.4050
29991SOL     OW92604   4.348   9.678   9.024  0.5362  0.0013 -0.0807
29991SOL    HW192605   4.409   9.703   8.955  0.9466 -0.8560 -0.0477
29991SOL    HW292606   4.399   9.684   9.105  0.2149  0.4773  0.0892
29992SOL     OW92607   5.737   0.334   4.198 -0.5492 -0.5326  0.2099
29992SOL    HW192608   5.725   0.429   4.198 -0.2368 -0.4889 -0.5024
29992SOL    HW292609   5.711   0.307   4.110 -0.6815 -1.1171  0.4254
29993SOL     OW92610   4.685   1.473   5.035 -0.2493  0.2502  0.0816
29993SOL    HW192611   4.657   1.421   5.110 -1.9700 -0.8748 -1.2551
29993SOL    HW292612   4.745   1.416   4.987 -1.6969 -0.3684 -1.0841
29994SOL     OW92613   3.565   4.382   7.928 -0.3024 -0.1750  0.7423
29994SOL    HW192614   3.523   4.333   7.999  2.1409 -1.8458  1.1834
29994SOL    HW292615   3.509   4.369   7.852 -0.9693 -1.6308  1.4520
29995SOL     OW92616   3.665   0.376   4.111  0.2895 -0.1570 -0.2641
29995SOL    HW192617   3.735   0.406   4.169  1.0774 -0.0368 -1.2552
29995SOL    HW292618   3.634   0.455   4.067  0.5920 -0.4232 -0.9657
29996SOL     OW92619   3.231   2.016   8.950 -0.0658 -0.4850 -0.8258
29996SOL    HW192620   3.318   1.977   8.950 -0.0096 -0.3605 -1.3616
29996SOL    HW292621   3.241   2.099   8.905  0.2536  1.1797  2.0606
29997SOL     OW92622  10.028   7.633   0.750 -0.0589  0.0836 -0.4735
29997SOL    HW192623  10.054   7.666   0.836  0.1907  2.0286 -1.2403
29997SOL    HW292624   9.946   7.587   0.766  0.4510 -0.3987  0.9348
29998SOL     OW92625   0.801   2.765   4.142  0.2372  0.2960  0.2995
29998SOL    HW192626   0.812   2.776   4.047 -0.7919 -1.0374 -0.0071
29998SOL    HW292627   0.792   2.854   4.175  1.0805  0.8099 -0.7945
29999SOL     OW92628   2.675   8.672   1.895  0.2077  0.0950 -0.4057
29999SOL    HW192629   2.597   8.665   1.950  0.6238 -0.5332  0.1347
29999SOL    HW292630   2.652   8.626   1.814 -0.5620  1.4139 -0.9563
30000SOL     OW92631   0.601   3.504   0.548  0.1178  0.1541  0.3779
30000SOL    HW192632   0.513   3.533   0.571 -0.2612 -1.0899  0.5822
30000SOL    HW292633   0.649   3.585   0.529 -0.7434  0.9245  1.3756
30001SOL     OW92634   5.905   8.713   3.214  0.3502  0.3605  0.1025
30001SOL    HW192635   5.971   8.756   3.268  0.3659 -1.3884  1.5983
30001SOL    HW292636   5.902   8.623   3.248 -2.1900  0.1650 -0.4716
30002SOL     OW92637   1.334   1.703   2.923 -0.4679 -0.6232 -0.0914
30002SOL    HW192638   1.274   1.776   2.935  0.5648  0.1523  0.6436
30002SOL    HW292639   1.326   1.653   3.004 -0.5522 -0.8425 -0.2362
30003SOL     OW92640   7.551   4.437   1.646  0.1258 -0.1295  0.0593
30003SOL    HW192641   7.644   4.421   1.661  0.0556  0.5341  1.3642
30003SOL    HW292642   7.548   4.505   1.579  0.5149 -1.4796 -1.4031
30004SOL     OW92643   0.194   1.361   8.089  0.0290 -0.0181  0.6970
30004SOL    HW192644   0.271   1.311   8.062 -1.7184 -1.3797 -2.3624
30004SOL    HW292645   0.142   1.299   8.140 -0.2388  0.0390  0.4926
30005SOL     OW92646   5.912   9.267   4.247  0.0107 -0.3187 -0.2152
30005SOL    HW192647   5.942   9.186   4.206 -1.1379 -0.3038 -1.1208
30005SOL    HW292648   5.992   9.319   4.258  0.4658 -0.6895 -1.6062
30006SOL     OW92649   5.245   1.746   8.237  0.2535  0.0463  0.2118
30006SOL    HW192650   5.285   1.665   8.268  2.3080  1.4621  1.4654
30006SOL    HW292651   5.162   1.751   8.285 -0.8838 -2.2047 -1.3344
30007SOL     OW92652   0.107   9.571   3.991  0.4203 -0.3277 -0.1328
30007SOL    HW192653   0.167   9.509   4.033 -0.0136 -2.1638 -2.0619
30007SOL    HW292654   0.066   9.521   3.921 -1.6385  1.5541 -0.3692
30008SOL     OW92655   9.268   4.179   4.679  0.3527  0.0085  0.0155
30008SOL    HW192656   9.296   4.270   4.691  0.1921  0.2555 -1.3792
30008SOL    HW292657   9.349   4.128   4.686  0.7770  0.4651 -1.2558
30009SOL     OW92658   8.979   2.844   5.750 -0.2372 -0.8942 -0.3676
30009SOL    HW192659   8.886   2.842   5.771  0.0138 -0.9310  0.7670
30009SOL    HW292660   8.994   2.931   5.713 -0.4002 -0.2511  1.0198
30010SOL     OW92661   5.896   4.841  10.074  0.5670 -0.3518 -0.2014
30010SOL    HW192662   5.959   4.884  10.016 -0.5988  1.1347 -0.4185
30010SOL    HW292663   5.838   4.793  10.015 -0.2247  0.6289 -0.2380
30011SOL     OW92664   0.494   3.202   6.606 -0.0517  0.0549 -0.0608
30011SOL    HW192665   0.515   3.131   6.666  0.0639 -0.6379 -0.8936
30011SOL    HW292666   0.527   3.172   6.521  0.0303  1.1201 -0.4236
30012SOL     OW92667   4.506   9.191   5.739  0.9960 -0.2550  0.8089
30012SOL    HW192668   4.546   9.126   5.796  1.9845 -0.1414  0.2490
30012SOL    HW292669   4.435   9.145   5.695  0.2393 -0.3600  2.0861
30013SOL     OW92670   1.263   4.343   3.048 -0.2366 -0.5180  0.0749
30013SOL    HW192671   1.177   4.384   3.062  0.1326  0.8918 -1.4955
30013SOL    HW292672   1.322   4.392   3.105 -0.4084 -1.2874  0.9264
30014SOL     OW92673   7.073   3.171   0.308  0.1841 -0.2534 -0.4431
30014SOL    HW192674   7.127   3.151   0.384 -0.5788  0.3337  0.2666
30014SOL    HW292675   6.996   3.115   0.316 -0.1226  0.1482 -0.5272
30015SOL     OW92676   9.118   0.624   4.537  0.1377  0.3552  0.3279
30015SOL    HW192677   9.192   0.622   4.475  0.7268  1.1307  0.9925
30015SOL    HW292678   9.091   0.715   4.539  0.2520  0.3694  1.3649
30016SOL     OW92679   8.677   3.827   1.935 -0.1238 -0.1359 -0.2669
30016SOL    HW192680   8.677   3.789   1.847 -0.6205 -1.9809  0.4721
30016SOL    HW292681   8.661   3.920   1.921 -0.1664 -0.3801 -2.1222
30017SOL     OW92682   3.342   1.822   1.582 -0.3027  0.3288  0.0790
30017SOL    HW192683   3.421   1.768   1.571  1.4660  2.6429  0.5442
30017SOL    HW292684   3.285   1.770   1.639  2.5842  0.1444  3.0913
30018SOL     OW92685   9.783   6.701   5.921 -0.1167 -0.4797 -0.7311
30018SOL    HW192686   9.719   6.636   5.949  0.3479 -0.8047 -0.4045
30018SOL    HW292687   9.733   6.783   5.912 -0.2767 -0.3246  1.1825
30019SOL     OW92688   6.559   8.492   1.310 -0.1288  0.0740 -0.0705
30019SOL    HW192689   6.482   8.513   1.256  0.5799  0.6930 -0.8626
30019SOL    HW292690   6.590   8.576   1.342 -1.2169 -0.3585  2.3276
30020SOL     OW92691   7.914   8.331   8.831  0.0053  0.0454 -0.7766
30020SOL    HW192692   7.867   8.414   8.836  0.1720  0.1400 -0.7847
30020SOL    HW292693   7.979   8.344   8.762  2.0971  0.9678  1.2229
30021SOL     OW92694   1.035   9.265   2.165 -0.0587 -0.2925  0.1046
30021SOL    HW192695   1.001   9.220   2.089 -0.8250  0.7642 -0.1938
30021SOL    HW292696   0.958   9.286   2.218  0.3214  0.2371  0.4647
30022SOL     OW92697   8.694   1.045   6.178 -0.2514 -0.8116  0.0162
30022SOL    HW192698   8.774   1.097   6.175  0.0513 -1.3106 -0.7681
30022SOL    HW292699   8.632   1.099   6.227  0.8903 -0.8817  1.6109
30023SOL     OW92700   7.512   9.530   1.849 -0.0125 -0.5704  0.6879
30023SOL    HW192701   7.542   9.603   1.904 -1.4530 -0.8316  1.8757
30023SOL    HW292702   7.442   9.568   1.796 -0.0656 -0.8464  0.5640
30024SOL     OW92703   0.852   5.691   2.250  0.2800  0.3688  0.2143
30024SOL    HW192704   0.937   5.736   2.244 -0.4785  1.6655 -1.5480
30024SOL    HW292705   0.850   5.633   2.174 -0.8544  1.1699 -0.3811
30025SOL     OW92706   2.645   5.594   3.730 -0.8776  0.4210  0.6328
30025SOL    HW192707   2.624   5.616   3.821  0.1637 -0.3905  1.0928
30025SOL    HW292708   2.645   5.499   3.727  0.2202  0.4198  0.0727
30026SOL     OW92709   1.594   3.367   5.947  0.0926  0.1237  0.0544
30026SOL    HW192710   1.663   3.376   6.014 -0.4134  0.4971  0.5336
30026SOL    HW292711   1.519   3.412   5.984 -0.0913  0.6520 -0.9301
30027SOL     OW92712   8.805   7.400   7.817 -0.2604 -0.2219 -0.1970
30027SOL    HW192713   8.848   7.409   7.732 -0.7280 -2.2389 -0.7147
30027SOL    HW292714   8.862   7.343   7.867  0.8359  2.2240  1.5222
30028SOL     OW92715   5.612   5.939   6.583  0.0282  0.9755  0.5857
30028SOL    HW192716   5.674   5.986   6.527  0.7942  1.6887  1.9746
30028SOL    HW292717   5.646   5.950   6.671 -1.3080  0.1386  1.2448
30029SOL     OW92718  10.135   1.682   0.427  0.3861 -0.6988 -0.2039
30029SOL    HW192719  10.092   1.617   0.372  1.6547 -1.1420 -0.7152
30029SOL    HW292720  10.203   1.633   0.474 -1.0883 -0.4831  2.3344
30030SOL     OW92721   6.684   8.663   7.969 -0.2863  0.5008 -0.3992
30030SOL    HW192722   6.690   8.730   8.037 -1.3594  1.2820 -1.0346
30030SOL    HW292723   6.590   8.653   7.953 -0.0640  0.3372 -1.7554
30031SOL     OW92724   2.380   2.617   6.612 -0.2203 -0.2052 -0.0681
30031SOL    HW192725   2.367   2.531   6.650  2.3760 -1.0361 -0.8472
30031SOL    HW292726   2.467   2.645   6.643  0.7617  0.3101 -2.9285
30032SOL     OW92727   5.156   4.464   5.679 -0.1899 -0.0636 -0.0132
30032SOL    HW192728   5.147   4.472   5.774  0.5674  0.7948 -0.0001
30032SOL    HW292729   5.102   4.389   5.656 -0.3270 -0.3225  1.1060
30033SOL     OW92730   4.043   7.740   2.260  0.8493  0.4374 -0.7839
30033SOL    HW192731   4.088   7.716   2.341  0.0565  0.7819 -0.2297
30033SOL    HW292732   4.079   7.681   2.194  0.1706 -1.1154  0.1816
30034SOL     OW92733   1.791   4.117   9.136  0.3595  0.4647 -0.2856
30034SOL    HW192734   1.786   4.196   9.082  1.1273  1.7589  1.4190
30034SOL    HW292735   1.768   4.147   9.224  0.7566 -1.1939  0.4239
30035SOL     OW92736   4.791   9.227   9.478  0.1982 -0.0035 -0.3227
30035SOL    HW192737   4.850   9.269   9.414  0.7671 -0.9183 -0.4126
30035SOL    HW292738   4.799   9.134   9.460  0.0953 -0.2503  0.8695
30036SOL     OW92739   2.712   6.290   4.972 -0.0868  0.2292 -0.4988
30036SOL    HW192740   2.716   6.196   4.954  1.2485  0.2287 -0.3331
30036SOL    HW292741   2.634   6.320   4.925 -0.9082 -1.0574 -0.0271
30037SOL     OW92742   7.366   2.453   1.653  0.0063 -0.0585 -0.1898
30037SOL    HW192743   7.284   2.405   1.639 -0.1213  0.4524 -1.3451
30037SOL    HW292744   7.344   2.545   1.637  0.9294  0.0185 -1.1924
30038SOL     OW92745   6.430   3.392   2.565 -0.2523  0.6509 -0.5662
30038SOL    HW192746   6.357   3.390   2.627  0.0724  2.1123 -0.0958
30038SOL    HW292747   6.391   3.422   2.483 -0.4372 -0.0107 -0.7277
30039SOL     OW92748   6.147   6.202   3.247 -0.1914 -0.1090  0.1703
30039SOL    HW192749   6.238   6.195   3.218  0.7474 -0.5812  2.9488
30039SOL    HW292750   6.099   6.231   3.169  2.4137  0.7937 -1.2065
30040SOL     OW92751   9.712   9.888   7.790 -0.2243  0.2953  0.0544
30040SOL    HW192752   9.725   9.949   7.718  0.7745  2.5905  2.0538
30040SOL    HW292753   9.620   9.900   7.815 -0.0054  1.0692  0.5017
30041SOL     OW92754   7.171   7.663   5.410  0.2924 -0.5751 -0.4012
30041SOL    HW192755   7.237   7.596   5.391  0.5453 -0.8967  1.4470
30041SOL    HW292756   7.121   7.627   5.483  1.0184  1.5850  1.2799
30042SOL     OW92757   8.449   0.657   9.896  0.5905  0.6559  0.0693
30042SOL    HW192758   8.542   0.660   9.874  0.8213 -1.1136  0.6503
30042SOL    HW292759   8.405   0.633   9.815  0.5530  2.0240 -0.3391
30043SOL     OW92760   7.177   6.311  10.069  0.5212 -0.6244  0.3141
30043SOL    HW192761   7.121   6.240  10.036  1.1393 -2.0936  2.2359
30043SOL    HW292762   7.263   6.271  10.077  1.4827  1.1130 -0.9290
30044SOL     OW92763   7.719   2.314   4.807  0.9068 -0.1777  0.5714
30044SOL    HW192764   7.690   2.288   4.894 -0.1170  0.2442  0.3717
30044SOL    HW292765   7.811   2.336   4.817  0.4445  1.2840  1.8528
30045SOL     OW92766   8.558   3.017   3.753  0.5458 -0.0509 -0.4099
30045SOL    HW192767   8.485   2.960   3.777 -0.4025  1.0515 -0.5609
30045SOL    HW292768   8.555   3.021   3.657  2.0066 -1.4871 -0.5601
30046SOL     OW92769   2.128   0.873   4.469 -0.3878  0.6627  0.2050
30046SOL    HW192770   2.166   0.915   4.391  0.0758 -2.2479 -1.2539
30046SOL    HW292771   2.041   0.846   4.441 -0.4899  0.2279  0.9388
30047SOL     OW92772   4.110   8.486   2.818  0.0261 -0.3563 -0.0671
30047SOL    HW192773   4.155   8.509   2.899 -0.6363  1.4192 -0.1654
30047SOL    HW292774   4.027   8.535   2.822 -0.3497 -0.8383 -1.4677
30048SOL     OW92775   9.558   6.231   4.377 -0.2646  0.4734 -0.4675
30048SOL    HW192776   9.492   6.204   4.441 -1.5462  1.2098 -1.4131
30048SOL    HW292777   9.625   6.276   4.428 -1.7223  1.9096  0.2932
30049SOL     OW92778  10.151   2.502   0.596  0.9868 -0.1729  0.2302
30049SOL    HW192779  10.111   2.421   0.630  0.8400  0.7740  2.5388
30049SOL    HW292780  10.115   2.512   0.508  0.3625 -2.1780  0.2135
30050SOL     OW92781   0.373   5.574   2.492 -0.2918  0.3425  0.5183
30050SOL    HW192782   0.300   5.628   2.524  0.6268  1.2205  1.1731
30050SOL    HW292783   0.451   5.626   2.507  0.4266 -0.2214 -0.9727
30051SOL     OW92784   7.476   6.074   1.285  0.0065  0.1700  0.4260
30051SOL    HW192785   7.546   6.026   1.241  0.2817  1.1643 -0.2370
30051SOL    HW292786   7.398   6.021   1.271 -0.0708  0.8034 -1.9197
30052SOL     OW92787   0.259   7.507   9.573  0.1243 -0.0580  0.3517
30052SOL    HW192788   0.317   7.526   9.646  1.6713 -0.5368 -0.6910
30052SOL    HW292789   0.195   7.444   9.608 -0.0677  0.8245  1.6411
30053SOL     OW92790   7.032   7.198   8.046  0.1176 -0.6691  0.2545
30053SOL    HW192791   7.023   7.293   8.037 -1.6018 -0.9311 -1.9827
30053SOL    HW292792   6.978   7.176   8.122  0.0459  0.0885  0.4370
30054SOL     OW92793   2.597   8.559   1.657  0.8316 -0.3677  0.5549
30054SOL    HW192794   2.627   8.593   1.572 -0.8225  1.7296  0.7326
30054SOL    HW292795   2.591   8.464   1.645  0.3510 -0.0868 -1.7709
30055SOL     OW92796   8.562   8.107   6.939 -0.4070 -0.0331 -0.0442
30055SOL    HW192797   8.495   8.068   6.882  1.5419 -0.4020 -2.2347
30055SOL    HW292798   8.527   8.097   7.027 -1.8345 -3.0942 -0.8294
30056SOL     OW92799   7.208   0.407   3.545  0.1255  0.2057  0.3491
30056SOL    HW192800   7.143   0.465   3.506  2.0248  0.8213 -2.1555
30056SOL    HW292801   7.247   0.458   3.616 -1.5439  0.0820  1.4140
30057SOL     OW92802   1.158   7.779  10.346 -0.7045 -0.3698 -0.0385
30057SOL    HW192803   1.230   7.827  10.306 -0.6830  0.3149  0.7951
30057SOL    HW292804   1.079   7.825  10.317 -0.6666  0.3910  1.0276
30058SOL     OW92805   9.378   8.554   2.886  0.4045 -0.2146 -0.3232
30058SOL    HW192806   9.441   8.602   2.832  0.1587 -0.3187 -0.7077
30058SOL    HW292807   9.325   8.621   2.927  0.7218 -0.1278 -0.0489
30059SOL     OW92808   9.551   5.189   2.491 -0.0501 -0.0909  0.4329
30059SOL    HW192809   9.629   5.211   2.542 -0.1099 -0.6726  0.7825
30059SOL    HW292810   9.573   5.216   2.402 -0.0297  1.1352  0.7942
30060SOL     OW92811   0.752   6.611   2.354 -0.3807  0.1952  0.3562
30060SOL    HW192812   0.757   6.515   2.358 -1.0016  0.1326 -0.2432
30060SOL    HW292813   0.734   6.630   2.262  1.4222  0.9750  0.1333
30061SOL     OW92814   0.189   2.390   5.278 -0.1335  0.5204  0.6202
30061SOL    HW192815   0.174   2.368   5.370  1.8442 -3.2670  0.2611
30061SOL    HW292816   0.225   2.479   5.280 -1.9176  1.3046  3.2599
30062SOL     OW92817   3.003   3.237   6.167  0.0269  0.3396 -0.1094
30062SOL    HW192818   3.017   3.159   6.220 -0.6431 -0.6061 -1.2875
30062SOL    HW292819   2.910   3.255   6.174  0.1916  1.0836  0.2156
30063SOL     OW92820   1.640   9.707   3.592  0.1789  0.2405 -0.1900
30063SOL    HW192821   1.568   9.707   3.655  1.0191  0.1249  0.8026
30063SOL    HW292822   1.632   9.623   3.547  0.5074 -0.3973  0.8969
30064SOL     OW92823   6.528   9.367   5.595 -0.1178  0.3293  0.2509
30064SOL    HW192824   6.435   9.382   5.612  0.4485  1.8454  2.4878
30064SOL    HW292825   6.550   9.289   5.647 -0.1084  0.0023 -0.2347
30065SOL     OW92826  10.319   1.788   5.540 -0.5518 -0.5083 -0.1481
30065SOL    HW192827  10.288   1.771   5.451 -0.6324 -2.1113  0.1503
30065SOL    HW292828  10.363   1.873   5.534 -0.3584 -0.6800 -1.7623
30066SOL     OW92829   0.915   8.907   8.445 -0.1968  0.2073 -0.5282
30066SOL    HW192830   0.886   8.821   8.416  0.8171 -1.0548  1.9496
30066SOL    HW292831   0.874   8.919   8.531 -0.3066  2.2245 -0.8018
30067SOL     OW92832   5.544   1.700   0.165 -0.1013  0.0548 -0.6417
30067SOL    HW192833   5.466   1.701   0.109  0.7562  0.2848 -1.8699
30067SOL    HW292834   5.518   1.749   0.243 -1.0859  0.3966 -1.1713
30068SOL     OW92835   4.680   1.128   0.456  0.0606 -0.1951  0.2655
30068SOL    HW192836   4.770   1.152   0.435  0.3929  1.0326  2.7129
30068SOL    HW292837   4.628   1.166   0.385  1.3008  0.7808 -0.1615
30069SOL     OW92838   7.104   9.913   4.396 -0.3637  0.6849 -0.6522
30069SOL    HW192839   7.186   9.962   4.395  0.3830 -0.5285 -0.3647
30069SOL    HW292840   7.075   9.914   4.305  1.5627 -1.4323 -1.3707
30070SOL     OW92841   5.161   9.044   7.070 -0.0340 -0.1807 -0.2786
30070SOL    HW192842   5.198   9.129   7.047  1.0774 -0.7593 -0.6860
30070SOL    HW292843   5.130   9.055   7.160 -0.1412  0.7284 -0.4199
30071SOL     OW92844   9.155  10.225   6.636 -0.8019 -0.4337  0.3628
30071SOL    HW192845   9.140  10.140   6.596 -0.7744 -0.0658 -0.4523
30071SOL    HW292846   9.243  10.251   6.607 -1.4086  0.5486 -0.6858
30072SOL     OW92847   5.948   7.650   2.112  0.1099 -0.3322 -1.0238
30072SOL    HW192848   5.915   7.628   2.199  2.4208  0.7852  0.2420
30072SOL    HW292849   5.943   7.568   2.063  0.5077 -1.4906  0.7770
30073SOL     OW92850   1.230   3.974   5.375  0.2238 -0.1802 -0.5123
30073SOL    HW192851   1.224   3.883   5.403  1.4449 -0.0582  0.2275
30073SOL    HW292852   1.219   3.971   5.280  1.3360 -1.2499 -0.6310
30074SOL     OW92853   9.001  10.330   6.836  0.2222  0.3964  0.3177
30074SOL    HW192854   9.060  10.309   6.764  1.3363  0.8490  1.0818
30074SOL    HW292855   8.925  10.272   6.822  0.7650 -0.0792 -0.7613
30075SOL     OW92856   6.166   4.480   8.281  0.0323 -0.0073 -0.2210
30075SOL    HW192857   6.119   4.497   8.199  0.7434 -0.5725 -0.7602
30075SOL    HW292858   6.206   4.394   8.268 -0.3052 -0.3455  0.9413
30076SOL     OW92859   0.398   7.594   0.920  0.2089  0.0073  0.0200
30076SOL    HW192860   0.471   7.603   0.982  0.2059  1.9968 -0.2043
30076SOL    HW292861   0.396   7.677   0.874  0.0252 -1.2805 -2.4891
30077SOL     OW92862   3.773   9.541   0.781 -0.3680  0.2469  0.1127
30077SOL    HW192863   3.693   9.490   0.771 -0.0000 -0.3125 -0.0621
30077SOL    HW292864   3.843   9.477   0.772  0.1528  0.9701 -1.3983
30078SOL     OW92865   4.549   5.567   2.926  0.7499 -0.2921 -0.2199
30078SOL    HW192866   4.627   5.605   2.886  0.4252  0.7767  0.1041
30078SOL    HW292867   4.582   5.520   3.003  1.1435 -0.4902 -0.5066
30079SOL     OW92868   0.507   1.338   2.128  0.3668 -0.5291  0.3878
30079SOL    HW192869   0.556   1.319   2.208  0.2645  1.3428  0.9497
30079SOL    HW292870   0.431   1.387   2.158 -0.6859 -1.4176 -0.7036
30080SOL     OW92871   7.791   5.844   1.393  0.1088  0.0902  0.4970
30080SOL    HW192872   7.873   5.874   1.434  0.5604 -1.1299  0.5079
30080SOL    HW292873   7.819   5.802   1.312 -0.3257 -1.8176  1.2834
30081SOL     OW92874   3.909   8.377   0.996 -0.1739 -0.1084 -0.5969
30081SOL    HW192875   3.934   8.447   1.057  1.9073 -0.7069 -0.6923
30081SOL    HW292876   3.822   8.349   1.026 -0.1894  1.1656  0.6560
30082SOL     OW92877   4.977   2.834   2.989 -0.5626  0.0490 -0.1472
30082SOL    HW192878   4.912   2.813   3.056 -1.6031  1.2347 -0.7435
30082SOL    HW292879   5.000   2.926   3.006  0.7912 -0.2733 -0.0990
30083SOL     OW92880   1.945   0.695   9.178 -0.1549  0.3606 -0.1593
30083SOL    HW192881   1.923   0.742   9.258  2.6581  1.3537  0.1214
30083SOL    HW292882   1.918   0.604   9.196 -2.2234  1.0803  0.7248
30084SOL     OW92883   8.972   8.293   6.188 -0.2904  0.4881  0.7425
30084SOL    HW192884   9.017   8.242   6.121 -0.0932 -0.1148  1.3182
30084SOL    HW292885   8.891   8.245   6.205 -1.0246  1.4024 -0.0666
30085SOL     OW92886   7.741   2.189   4.105  0.0650 -0.2256 -0.0427
30085SOL    HW192887   7.695   2.191   4.022  1.4027  0.2860 -0.8076
30085SOL    HW292888   7.816   2.248   4.093 -0.2902  0.7263  1.8684
30086SOL     OW92889   3.052   1.793   3.495  0.1645  0.0871 -0.5580
30086SOL    HW192890   2.959   1.778   3.513  0.0583 -0.1557 -1.2719
30086SOL    HW292891   3.058   1.792   3.399  0.3866  3.2350 -0.6788
30087SOL     OW92892   1.609   1.713   2.856  0.1334 -0.4014  0.5232
30087SOL    HW192893   1.520   1.714   2.893 -0.5687  0.6309 -1.0680
30087SOL    HW292894   1.632   1.620   2.851 -1.6722 -0.8533 -0.7924
30088SOL     OW92895   4.044   3.083   9.333 -0.7339  0.0488 -0.2160
30088SOL    HW192896   3.973   3.022   9.349 -0.7547  0.1630  0.1370
30088SOL    HW292897   4.118   3.048   9.382 -0.0023 -1.0510 -2.0046
30089SOL     OW92898   7.297   3.333   7.237 -0.5543 -0.3728 -0.1780
30089SOL    HW192899   7.315   3.239   7.228 -1.7260 -0.6370  0.0367
30089SOL    HW292900   7.279   3.346   7.330 -0.3963  0.0651 -0.2070
30090SOL     OW92901   3.427   7.526   6.063  0.5234  0.7665 -0.6447
30090SOL    HW192902   3.338   7.499   6.039  1.0202  0.7469 -2.6201
30090SOL    HW292903   3.460   7.572   5.986  2.9972 -1.1389 -0.8548
30091SOL     OW92904   7.588   3.817   7.574 -0.3295  0.0501 -0.2994
30091SOL    HW192905   7.672   3.793   7.535 -0.0543 -1.0409  0.9086
30091SOL    HW292906   7.526   3.753   7.538 -0.0218 -1.1420  1.1946
30092SOL     OW92907   9.648   8.298   3.949 -0.5601  0.3283  0.0471
30092SOL    HW192908   9.621   8.382   3.988 -3.1993 -0.3011 -0.2677
30092SOL    HW292909   9.628   8.233   4.016 -0.8463 -0.2903 -0.6284
30093SOL     OW92910   1.873   7.155   8.885  0.6462 -0.8514 -0.5069
30093SOL    HW192911   1.803   7.091   8.899  0.4034 -0.4813  0.0165
30093SOL    HW292912   1.932   7.113   8.823  0.0814 -1.2648 -0.7741
30094SOL     OW92913   0.230   7.424   9.923 -0.1788  0.2885 -0.0110
30094SOL    HW192914   0.237   7.339   9.967 -0.8252  0.7620  1.0477
30094SOL    HW292915   0.313   7.433   9.876  0.4093 -0.3898  0.8542
30095SOL     OW92916   8.144  10.102   7.603  0.5217  0.2174 -0.0163
30095SOL    HW192917   8.142  10.085   7.508  0.2280  0.7855 -0.1116
30095SOL    HW292918   8.055  10.127   7.625  0.5708  0.0022  0.4316
30096SOL     OW92919   3.940   9.277   7.380  0.0451 -0.6771  0.6484
30096SOL    HW192920   3.953   9.340   7.309 -0.4767 -0.3445  0.8418
30096SOL    HW292921   4.004   9.208   7.363  0.6244 -0.0925  0.4355
30097SOL     OW92922   3.674   1.395   9.001 -1.0009 -0.6693 -0.0498
30097SOL    HW192923   3.624   1.368   8.924 -0.3442 -2.8630  0.2258
30097SOL    HW292924   3.748   1.444   8.966 -2.8192  1.9618 -0.5048
30098SOL     OW92925   2.225   3.133   2.701 -0.1668 -0.3649  0.3244
30098SOL    HW192926   2.271   3.131   2.785  1.2307  0.3744 -0.3859
30098SOL    HW292927   2.137   3.163   2.723 -0.2927 -1.5930  1.6964
30099SOL     OW92928   8.608   2.273   0.376  0.1580  0.0225  0.1498
30099SOL    HW192929   8.670   2.258   0.447 -2.1726  0.5694  2.4809
30099SOL    HW292930   8.602   2.188   0.331  0.7376 -0.7439  1.4695
30100SOL     OW92931   4.226   8.523   1.302  0.1602 -0.0409  0.2072
30100SOL    HW192932   4.249   8.434   1.330  0.1884  0.1796  0.9025
30100SOL    HW292933   4.310   8.562   1.278  0.1335 -0.2408 -0.2130
30101SOL     OW92934   5.105   3.965   1.751  0.5859 -0.2899  0.0064
30101SOL    HW192935   5.166   4.001   1.686  0.0694  1.5379  0.4717
30101SOL    HW292936   5.156   3.962   1.832  0.3988  0.1728  0.1449
30102SOL     OW92937   7.544   1.201   1.106  0.4113 -0.2096  0.3389
30102SOL    HW192938   7.456   1.233   1.085  0.2344 -0.5512  0.5405
30102SOL    HW292939   7.548   1.205   1.201  0.8657  0.4517  0.2930
30103SOL     OW92940   9.872   5.048   8.476 -0.3962 -0.1298  0.8465
30103SOL    HW192941   9.933   5.122   8.482  0.2624 -0.6227  0.3735
30103SOL    HW292942   9.785   5.088   8.474 -0.0199  0.6771 -0.1453
30104SOL     OW92943   6.023   1.173   0.084 -0.3270 -0.0420 -0.4878
30104SOL    HW192944   5.957   1.152   0.019 -0.1221 -0.5368 -0.5410
30104SOL    HW292945   6.016   1.104   0.150  0.7015 -0.5896 -0.9259
30105SOL     OW92946   7.610   4.008   2.735 -0.1517  0.4367 -0.1688
30105SOL    HW192947   7.618   4.013   2.640 -1.3743 -0.7184 -0.3662
30105SOL    HW292948   7.679   3.948   2.763 -0.4267 -0.0163 -0.4523
30106SOL     OW92949   7.332   9.101   6.200  0.0628  0.3329 -0.0345
30106SOL    HW192950   7.391   9.040   6.245 -0.8988 -0.8047 -0.2614
30106SOL    HW292951   7.263   9.045   6.163 -0.5463  1.5076 -0.7402
30107SOL     OW92952   6.046   5.713   5.128 -0.1900 -0.0136 -0.9482
30107SOL    HW192953   6.138   5.711   5.156  1.0070 -3.4256 -4.2484
30107SOL    HW292954   5.997   5.681   5.204  1.3689  1.1581  0.6436
30108SOL     OW92955   9.758  10.198   9.667  0.5301  0.5843  0.0712
30108SOL    HW192956   9.749  10.127   9.603  0.7616  0.2843  0.3674
30108SOL    HW292957   9.803  10.268   9.619 -0.9575  1.0975 -0.6507
30109SOL     OW92958   9.295   0.474   8.849 -0.2770  0.2388  0.3424
30109SOL    HW192959   9.383   0.507   8.868 -0.0190 -0.5323  0.5156
30109SOL    HW292960   9.287   0.483   8.754  0.0618  0.1354  0.3020
30110SOL     OW92961   7.987   5.347   7.437 -0.3467  0.6176 -0.2870
30110SOL    HW192962   7.955   5.368   7.525 -0.6566  0.6324 -0.4019
30110SOL    HW292963   7.961   5.422   7.383 -0.4578  0.4573 -0.4600
30111SOL     OW92964   2.237   2.019   3.462 -0.0887  0.1717  0.1894
30111SOL    HW192965   2.281   1.967   3.529  0.4543  0.5332  0.1275
30111SOL    HW292966   2.210   1.956   3.395  0.9013  0.0020 -0.0670
30112SOL     OW92967   1.629   6.340   7.384 -0.1639  0.1308  0.0188
30112SOL    HW192968   1.586   6.254   7.383  0.6710 -0.2958 -0.0179
30112SOL    HW292969   1.639   6.361   7.477 -1.2300  0.6393  0.0305
30113SOL     OW92970   7.584   4.266   4.845 -0.3958 -0.3086  0.5708
30113SOL    HW192971   7.619   4.298   4.928  0.4922  0.5995 -0.1338
30113SOL    HW292972   7.626   4.182   4.831  0.7004  0.2688  0.2772
30114SOL     OW92973   9.736   3.603   0.191  0.3186  0.0411  0.2036
30114SOL    HW192974   9.800   3.618   0.121  0.6695  1.1509  0.7417
30114SOL    HW292975   9.652   3.600   0.147  0.5252  0.8478 -0.2666
30115SOL     OW92976   8.638   9.353   2.530 -0.5473 -0.0586  0.2220
30115SOL    HW192977   8.570   9.421   2.532  0.4397  0.9484  1.0586
30115SOL    HW292978   8.720   9.402   2.537  0.3598 -1.1629 -1.9080
30116SOL     OW92979   7.453   1.252   1.363  0.1699 -0.0748 -0.0704
30116SOL    HW192980   7.367   1.290   1.351 -0.2799 -1.0975 -0.2038
30116SOL    HW292981   7.506   1.322   1.402 -1.0255  0.1913  1.1135
30117SOL     OW92982   0.829   2.610   6.101 -0.8775 -0.2155  0.0711
30117SOL    HW192983   0.810   2.704   6.106  0.1402 -0.0505  1.2900
30117SOL    HW292984   0.863   2.587   6.188  1.7460 -1.0694 -1.0831
30118SOL     OW92985   1.031   3.196   4.113 -0.1886  0.1594  0.5716
30118SOL    HW192986   1.074   3.265   4.064  0.3355 -1.5490 -1.5187
30118SOL    HW292987   1.102   3.146   4.152 -0.5078  0.0847  1.0745
30119SOL     OW92988   6.397   8.624   3.221  0.8617  0.4468  0.0810
30119SOL    HW192989   6.485   8.662   3.214  1.6185 -1.4287 -1.7525
30119SOL    HW292990   6.338   8.698   3.210  2.1454  1.9355  2.4825
30120SOL     OW92991   4.467   1.730   3.459 -0.8835  0.0907  0.3467
30120SOL    HW192992   4.436   1.761   3.374 -0.4906 -0.2252  0.0843
30120SOL    HW292993   4.404   1.764   3.522 -0.1577  1.9214  0.1418
30121SOL     OW92994   6.648   3.083   9.691  0.1015 -0.0914 -0.7352
30121SOL    HW192995   6.662   3.060   9.783  1.4003 -0.9527 -1.1248
30121SOL    HW292996   6.717   3.147   9.672 -1.1104  1.2576 -0.7124
30122SOL     OW92997   1.480   0.013   2.198  0.2873  0.3074  0.9358
30122SOL    HW192998   1.540  -0.032   2.257  1.9083  0.2368 -0.6779
30122SOL    HW292999   1.530   0.026   2.117 -2.0956 -0.4607 -0.8047
30123SOL     OW93000   4.761   2.870   3.896 -0.3603 -0.3851  0.1614
30123SOL    HW193001   4.739   2.823   3.976  0.9466 -0.1306  0.7013
30123SOL    HW293002   4.831   2.930   3.922  1.1172 -1.3162 -1.4541
30124SOL     OW93003   1.109   3.736   6.233 -0.8762 -0.1240  0.3955
30124SOL    HW193004   1.093   3.806   6.297 -2.0615 -0.1054  0.1174
30124SOL    HW293005   1.048   3.756   6.161 -1.3347 -1.5177  0.3712
30125SOL     OW93006   9.354   8.444   1.818  0.2918  0.1579 -0.2706
30125SOL    HW193007   9.355   8.476   1.908 -0.2853  1.4796 -0.7171
30125SOL    HW293008   9.292   8.371   1.819  0.3879  0.0761  0.4132
30126SOL     OW93009   7.167   5.405   5.964  0.1142 -0.7409  0.0540
30126SOL    HW193010   7.250   5.425   6.008 -0.4352 -0.3808  0.9454
30126SOL    HW293011   7.191   5.394   5.872  1.3613 -1.9472  0.4888
30127SOL     OW93012   1.608   5.941   4.235  0.4515  0.2133 -0.1043
30127SOL    HW193013   1.518   5.912   4.217  0.0567  1.6952 -0.6910
30127SOL    HW293014   1.600   6.036   4.249  1.5710 -0.0006  2.4388
30128SOL     OW93015   5.480   4.080   9.891  0.1275 -0.3795 -0.1845
30128SOL    HW193016   5.425   4.077   9.812  1.8350 -1.0473 -1.4245
30128SOL    HW293017   5.461   4.165   9.930 -0.4586  0.1447 -1.5520
30129SOL     OW93018   5.253   4.401   3.389  0.1151  0.1974 -0.1190
30129SOL    HW193019   5.348   4.389   3.396 -0.1605 -2.4311 -0.2337
30129SOL    HW293020   5.239   4.430   3.299  0.7142 -0.4142 -0.4122
30130SOL     OW93021   0.828   2.998   6.607 -0.2408  0.4509 -0.5084
30130SOL    HW193022   0.905   3.054   6.595 -1.0435  1.9774  1.1202
30130SOL    HW293023   0.865   2.910   6.621  1.1384  0.9569 -0.8084
30131SOL     OW93024   7.280   0.855  10.282 -0.4210 -0.1599  0.1662
30131SOL    HW193025   7.353   0.803  10.315 -0.7115  0.0710  1.1805
30131SOL    HW293026   7.321   0.919  10.223  0.2052 -0.0141  0.7543
30132SOL     OW93027   0.369   6.406   0.975  0.1133  0.3355  0.0083
30132SOL    HW193028   0.441   6.438   1.030 -0.1148  0.7840  0.0507
30132SOL    HW293029   0.400   6.420   0.885  0.8267 -1.1511 -0.0091
30133SOL     OW93030   0.714   9.464   9.540  0.4285  0.5281  0.4503
30133SOL    HW193031   0.741   9.382   9.580  0.8555  0.2964 -0.3116
30133SOL    HW293032   0.619   9.455   9.528  0.5977 -0.1959 -0.4163
30134SOL     OW93033   4.225   3.827   8.910 -0.4728 -0.0501 -0.3983
30134SOL    HW193034   4.291   3.808   8.843 -0.5286  1.3123 -0.8642
30134SOL    HW293035   4.232   3.921   8.924 -0.4081 -0.3207  1.5964
30135SOL     OW93036   6.988   4.380   0.324  0.1389 -0.0997  0.7702
30135SOL    HW193037   7.068   4.343   0.286 -0.9175 -0.4503 -1.2832
30135SOL    HW293038   6.949   4.307   0.373 -0.2614 -0.7684 -0.4981
30136SOL     OW93039   8.735   7.889   9.113  0.4281 -0.0676  0.2241
30136SOL    HW193040   8.754   7.819   9.176  0.9053 -0.0460  0.1105
30136SOL    HW293041   8.676   7.949   9.160  0.0744 -0.5083  0.3443
30137SOL     OW93042   7.580   2.279   7.165  0.0657  0.0232 -0.0778
30137SOL    HW193043   7.583   2.296   7.259 -0.7666 -0.2413  0.0111
30137SOL    HW293044   7.551   2.362   7.126 -0.0781 -0.0096 -0.0437
30138SOL     OW93045   4.522   8.982   1.029 -0.4281  0.1725  0.0578
30138SOL    HW193046   4.578   9.052   0.995 -1.4531  0.6183 -0.7926
30138SOL    HW293047   4.544   8.906   0.975 -0.8766  0.4403 -0.5121
30139SOL     OW93048   0.139   2.918   9.708  0.7866  0.9931  0.9912
30139SOL    HW193049   0.044   2.912   9.715  0.5714  1.7389 -0.6362
30139SOL    HW293050   0.168   2.829   9.688  0.2346  1.0560 -0.1523
30140SOL     OW93051   0.489   1.244  10.219  0.1369 -0.1439 -0.4219
30140SOL    HW193052   0.525   1.330  10.196  0.2421 -0.5407 -1.8306
30140SOL    HW293053   0.458   1.208  10.136 -2.3122 -0.3965  0.5126
30141SOL     OW93054   9.792  10.215   1.201 -0.1156  0.4813 -0.2183
30141SOL    HW193055   9.814  10.126   1.226 -0.1078  0.9670  1.6528
30141SOL    HW293056   9.699  10.225   1.221  0.1390  1.2134  0.6954
30142SOL     OW93057   0.718   0.867   8.325 -0.1035  0.4080 -0.1416
30142SOL    HW193058   0.721   0.950   8.372  1.6294  0.2714  0.0364
30142SOL    HW293059   0.634   0.828   8.351 -0.5808  1.7170  0.3918
30143SOL     OW93060   4.507   1.656   3.802 -0.2042  0.2225  0.1855
30143SOL    HW193061   4.529   1.726   3.864 -2.3400 -0.8171  2.2361
30143SOL    HW293062   4.441   1.695   3.744  0.7014  0.7214 -0.5562
30144SOL     OW93063   7.356   4.653   6.110  0.1892 -0.4221 -0.3450
30144SOL    HW193064   7.268   4.691   6.110 -0.0933 -1.0707 -0.6820
30144SOL    HW293065   7.409   4.716   6.061 -0.5259 -1.0161 -1.9440
30145SOL     OW93066   2.079   2.634   1.421 -0.2021  0.5482  0.0758
30145SOL    HW193067   2.047   2.704   1.365  0.0376  0.6611  0.0800
30145SOL    HW293068   2.010   2.621   1.485 -0.4697  0.4300 -0.2346
30146SOL     OW93069   2.703   7.746   2.569 -0.2545 -0.2510  0.1123
30146SOL    HW193070   2.762   7.674   2.546 -0.6347 -0.4150 -0.3650
30146SOL    HW293071   2.617   7.706   2.575 -0.1247 -0.3144  2.3385
30147SOL     OW93072   3.999   9.108   1.582 -0.1106  0.5467 -0.1215
30147SOL    HW193073   3.931   9.042   1.596  0.7219 -0.5642 -1.0765
30147SOL    HW293074   3.983   9.174   1.649 -0.2256 -1.2398  1.7006
30148SOL     OW93075   3.464   5.867  10.238  0.2055  0.2682 -0.4133
30148SOL    HW193076   3.379   5.826  10.224 -0.2040  0.7617  0.5259
30148SOL    HW293077   3.526   5.795  10.240 -0.3282 -0.1856 -0.0560
30149SOL     OW93078   9.841   1.037   6.238 -0.2073  0.7378  0.2830
30149SOL    HW193079   9.901   1.064   6.307  0.9768 -1.1477  0.0688
30149SOL    HW293080   9.772   0.988   6.285 -0.1091  0.5787  0.2626
30150SOL     OW93081   4.287  10.007   4.466  0.2272  0.3818  0.1755
30150SOL    HW193082   4.225  10.033   4.533 -0.5223  0.3690 -0.4916
30150SOL    HW293083   4.260   9.918   4.442  1.1680 -0.0380  0.6298
30151SOL     OW93084   8.236   8.077   9.174  0.2390 -0.3299  0.3055
30151SOL    HW193085   8.182   8.009   9.133  0.9762 -0.8064  0.1145
30151SOL    HW293086   8.187   8.158   9.159 -0.3317 -0.7297 -0.0354
30152SOL     OW93087   0.450   8.800   7.536  0.2211  0.8721  0.7012
30152SOL    HW193088   0.512   8.777   7.605  1.2101  0.5444 -0.2654
30152SOL    HW293089   0.474   8.890   7.511  0.3712  0.7221  0.2822
30153SOL     OW93090   6.880   8.531   1.756 -0.1918 -0.4153  0.2840
30153SOL    HW193091   6.821   8.600   1.725 -1.5327 -1.3345  0.7172
30153SOL    HW293092   6.965   8.555   1.720 -0.2822  2.2418  1.5386
30154SOL     OW93093   2.927   6.477   1.859 -0.4429 -0.0985  0.2699
30154SOL    HW193094   2.855   6.478   1.922 -0.2301 -0.0135  0.5107
30154SOL    HW293095   2.895   6.423   1.787 -0.4449 -0.7066  0.7265
30155SOL     OW93096   5.626   0.716   2.586  0.4023  0.2647 -0.2403
30155SOL    HW193097   5.620   0.748   2.676  2.8671 -0.0717  0.1165
30155SOL    HW293098   5.671   0.631   2.593  0.3883  0.0953 -1.7553
30156SOL     OW93099   3.068   0.827  10.144  0.1173  0.1297 -0.1861
30156SOL    HW193100   3.046   0.743  10.184 -3.6156  0.6920 -0.7176
30156SOL    HW293101   3.086   0.885  10.218  1.1394 -0.7059  0.2459
30157SOL     OW93102   3.897   6.270   4.531  0.1084 -0.0624 -0.1929
30157SOL    HW193103   3.991   6.255   4.523  0.0026 -1.0891  0.3076
30157SOL    HW293104   3.857   6.193   4.489 -0.4993  0.0161  0.2258
30158SOL     OW93105   7.093   8.695   1.976  0.1980 -0.1117  0.5627
30158SOL    HW193106   7.098   8.614   1.926 -0.8925 -0.2843  0.6992
30158SOL    HW293107   7.097   8.765   1.911 -0.1758 -0.3146  0.3168
30159SOL     OW93108   7.036   1.158   6.678 -0.0701  0.3184 -0.4274
30159SOL    HW193109   7.000   1.088   6.623  1.4770  0.2677 -1.4468
30159SOL    HW293110   7.046   1.233   6.619  0.7474  0.5529 -0.0113
30160SOL     OW93111   5.688   5.841   7.400 -0.3056 -0.3078  0.1070
30160SOL    HW193112   5.665   5.814   7.311 -0.9540  0.3930  0.0526
30160SOL    HW293113   5.605   5.869   7.439  0.0359 -0.2405  0.8054
30161SOL     OW93114   4.130   4.187   3.345  0.4817  0.3419 -0.0393
30161SOL    HW193115   4.164   4.152   3.427  0.9351 -0.8085 -0.7058
30161SOL    HW293116   4.191   4.158   3.278 -1.0506 -0.6335 -1.0922
30162SOL     OW93117   3.885   2.168   9.327 -0.1043  0.1430  0.6773
30162SOL    HW193118   3.947   2.100   9.300 -0.7609  0.0088 -0.5428
30162SOL    HW293119   3.801   2.123   9.332 -0.3687  0.6514  0.8682
30163SOL     OW93120   9.794   7.949   8.474  0.0841  0.3851 -0.3355
30163SOL    HW193121   9.756   8.021   8.525 -0.7050 -0.4119  0.2338
30163SOL    HW293122   9.888   7.955   8.492 -0.0745  0.7157  0.4517
30164SOL     OW93123   2.512   0.390   4.755  0.3655  0.1871  0.3394
30164SOL    HW193124   2.478   0.307   4.721 -1.0918  0.4143  1.1158
30164SOL    HW293125   2.568   0.365   4.828  1.1666 -0.1664 -0.3829
30165SOL     OW93126   1.563   5.096   7.524 -0.1077  0.1619 -0.4462
30165SOL    HW193127   1.473   5.065   7.517 -0.3991  0.1257  2.3308
30165SOL    HW293128   1.556   5.181   7.569  1.2208  0.0843 -0.0496
30166SOL     OW93129   3.741   0.240   4.481  0.4209  0.1439  0.3657
30166SOL    HW193130   3.665   0.241   4.423  0.7322 -1.0884 -0.0819
30166SOL    HW293131   3.801   0.305   4.444  0.7034 -0.7728 -0.8297
30167SOL     OW93132   2.714   8.728   6.682 -0.1143 -0.3101  0.5501
30167SOL    HW193133   2.797   8.773   6.663 -0.0998 -0.8420 -0.7286
30167SOL    HW293134   2.740   8.650   6.731  0.2546 -0.9841 -0.6879
30168SOL     OW93135   2.605  10.236   6.751  0.2864  0.1073  0.0018
30168SOL    HW193136   2.621  10.171   6.683  0.9423 -0.5279  0.7434
30168SOL    HW293137   2.601  10.185   6.833  0.0707  0.9093  0.4999
30169SOL     OW93138   1.979   0.780   0.566  0.1675 -0.8376 -0.1458
30169SOL    HW193139   1.928   0.785   0.485  0.3122 -0.8458 -0.2375
30169SOL    HW293140   1.915   0.755   0.633 -0.3740  1.1452  0.1350
30170SOL     OW93141   7.687   2.519   7.611  0.7360  0.1287 -0.1766
30170SOL    HW193142   7.723   2.440   7.652  0.4356 -0.0528 -0.2572
30170SOL    HW293143   7.745   2.589   7.639  0.2197  0.1005  1.0218
30171SOL     OW93144   5.083   6.685   3.070  0.3681  0.5134 -0.0785
30171SOL    HW193145   5.071   6.770   3.028  1.5641  0.5948 -0.2782
30171SOL    HW293146   5.120   6.629   3.002 -1.4390 -0.5137 -0.2797
30172SOL     OW93147   1.588   0.561   0.551 -0.2199 -0.1209  0.4418
30172SOL    HW193148   1.511   0.595   0.597  0.7671  1.5050  1.0063
30172SOL    HW293149   1.657   0.624   0.572  0.3703  0.6466 -3.1502
30173SOL     OW93150   9.759   7.027   4.325 -0.2306  0.3131 -0.7531
30173SOL    HW193151   9.770   6.967   4.251  2.9313  1.9472 -1.8142
30173SOL    HW293152   9.839   7.016   4.377 -1.6903  0.3212  1.6633
30174SOL     OW93153   2.620  10.142   4.952  0.0863  0.0952  0.1982
30174SOL    HW193154   2.541  10.196   4.958 -1.7798 -2.3645 -0.4040
30174SOL    HW293155   2.651  10.135   5.042  0.3293  1.9980  0.3048
30175SOL     OW93156   2.076   9.861   6.174  0.3882  0.2949 -0.1828
30175SOL    HW193157   2.075   9.824   6.262 -1.3727  1.2533  0.2233
30175SOL    HW293158   2.127   9.942   6.182  0.0185  0.5072 -0.0035
30176SOL     OW93159   1.848   9.909   5.087  0.0407 -0.3554 -0.3142
30176SOL    HW193160   1.896   9.989   5.068  0.0565 -0.7102 -1.9845
30176SOL    HW293161   1.910   9.838   5.068 -0.7275 -0.7923 -1.3324
30177SOL     OW93162   9.104   5.379   7.737 -0.2874 -0.2229 -0.5486
30177SOL    HW193163   9.175   5.323   7.707 -0.5367  0.2103 -1.9762
30177SOL    HW293164   9.110   5.459   7.684 -0.4422  0.7864  0.8846
30178SOL     OW93165  10.045   1.625   4.343  0.1250 -0.3000  0.1480
30178SOL    HW193166   9.952   1.639   4.324  0.3765  2.5532  0.6921
30178SOL    HW293167  10.091   1.675   4.277  1.2623 -0.5396  0.7313
30179SOL     OW93168   1.793   5.196   3.692 -0.9033  0.2040  0.7159
30179SOL    HW193169   1.808   5.127   3.628  0.6427  1.5357 -0.4538
30179SOL    HW293170   1.735   5.258   3.648 -2.0175 -0.1462  1.6322
30180SOL     OW93171   8.614   1.541   3.065  0.5632 -0.4819  0.2144
30180SOL    HW193172   8.693   1.588   3.039  0.4960 -0.5905 -0.2073
30180SOL    HW293173   8.635   1.449   3.049  0.2170 -0.4811 -0.2962
30181SOL     OW93174   5.732   7.350   8.421  0.2404 -0.0995 -0.2959
30181SOL    HW193175   5.682   7.422   8.457 -0.7970 -0.2323 -1.3846
30181SOL    HW293176   5.692   7.271   8.459 -1.8910 -0.3397 -2.7311
30182SOL     OW93177   8.380   1.758   1.289  0.4825  0.2544  0.0430
30182SOL    HW193178   8.331   1.762   1.371  0.1117 -2.3119  0.0164
30182SOL    HW293179   8.444   1.689   1.302  1.6271  1.0225 -1.2387
30183SOL     OW93180   7.711  10.069   4.748 -0.3692 -0.4046  0.2028
30183SOL    HW193181   7.633  10.119   4.723 -1.1800 -1.2657  0.9098
30183SOL    HW293182   7.775  10.088   4.680 -1.2905  0.1319 -0.5332
30184SOL     OW93183   1.309   1.240   1.945  0.3746  0.2357  0.2855
30184SOL    HW193184   1.405   1.241   1.937  0.3531 -0.7330 -0.2731
30184SOL    HW293185   1.291   1.291   2.024  1.2683  1.5103 -0.2981
30185SOL     OW93186  10.053   4.882   8.956 -0.2333 -0.1519 -0.1892
30185SOL    HW193187  10.034   4.793   8.926  0.0156  0.1560 -1.3184
30185SOL    HW293188  10.140   4.876   8.996  0.8716 -0.0052 -2.3890
30186SOL     OW93189   1.387   2.379   4.875  0.0567 -0.3752 -0.3531
30186SOL    HW193190   1.413   2.471   4.877  0.8557 -0.5922  1.2588
30186SOL    HW293191   1.462   2.332   4.911 -0.0052 -1.7659 -1.9565
30187SOL     OW93192   2.385   2.316   9.737  0.4412  0.0669 -0.2513
30187SOL    HW193193   2.421   2.360   9.660  1.3400 -0.0134  0.1148
30187SOL    HW293194   2.439   2.346   9.810  0.2654 -0.6673  0.1898
30188SOL     OW93195   7.123   8.000   9.033 -0.2831  0.2130 -0.6173
30188SOL    HW193196   7.052   8.036   9.086  0.7057 -0.9191  1.5877
30188SOL    HW293197   7.107   7.905   9.032  1.0255 -0.0403 -0.2628
30189SOL     OW93198   3.280   2.348   9.976  0.0165  0.5824  0.4146
30189SOL    HW193199   3.262   2.301   9.894  0.2043 -3.1080  2.2809
30189SOL    HW293200   3.212   2.416   9.980 -1.0367 -0.2260 -1.9854
30190SOL     OW93201   4.965  10.216   8.911 -0.4552  0.0450  0.1414
30190SOL    HW193202   5.019  10.224   8.989  1.3031 -0.3285 -0.9761
30190SOL    HW293203   5.024  10.236   8.838 -1.2565 -2.3031 -1.2802
30191SOL     OW93204   9.959   7.975   0.923  0.0816  0.3294  0.8211
30191SOL    HW193205   9.966   8.036   0.850 -1.4145 -0.4730 -0.0337
30191SOL    HW293206   9.892   8.013   0.980 -0.6562 -0.3577  0.4240
30192SOL     OW93207   8.761  10.175   3.470  0.1009  0.0067 -0.2452
30192SOL    HW193208   8.766  10.262   3.509 -0.2842 -0.1730  0.2140
30192SOL    HW293209   8.699  10.185   3.397 -0.0966  0.0703 -0.0686
30193SOL     OW93210   4.002   5.335   2.484  0.0238 -0.1001  0.2835
30193SOL    HW193211   4.051   5.347   2.565 -1.1859  0.9143  0.9049
30193SOL    HW293212   3.924   5.285   2.510 -0.2674  0.0385 -0.2913
30194SOL     OW93213   9.153   4.510   9.622  0.2717  0.3921  0.0761
30194SOL    HW193214   9.101   4.435   9.649 -0.1541  1.1684  1.5578
30194SOL    HW293215   9.241   4.491   9.654  0.3108  0.2394 -0.1220
30195SOL     OW93216   1.204   0.489   3.599 -0.0631  0.3198 -0.4983
30195SOL    HW193217   1.290   0.478   3.638  0.0614  0.9755 -0.5793
30195SOL    HW293218   1.198   0.419   3.533  0.8929  0.9965 -1.3376
30196SOL     OW93219   3.228   9.633   1.930  0.0345 -0.0588 -0.0710
30196SOL    HW193220   3.184   9.619   1.846  0.5053  0.0036 -0.3272
30196SOL    HW293221   3.301   9.691   1.911 -0.2893  0.5563  0.5148
30197SOL     OW93222   3.392   4.610   7.817 -0.2335 -0.4761 -0.2784
30197SOL    HW193223   3.457   4.616   7.887 -0.4988 -1.4973  0.0823
30197SOL    HW293224   3.439   4.637   7.738  0.8925 -1.9330 -0.1607
30198SOL     OW93225   7.474   4.457   2.054 -0.3732 -0.0813  0.1775
30198SOL    HW193226   7.412   4.422   1.990 -0.1626  0.3588 -0.2739
30198SOL    HW293227   7.529   4.518   2.004  0.5182 -0.5736  0.5317
30199SOL     OW93228   2.658   8.404   8.593 -0.1946 -0.5017  0.0277
30199SOL    HW193229   2.626   8.384   8.505 -2.8651 -0.3053  0.8680
30199SOL    HW293230   2.746   8.439   8.579 -0.8989  0.4514 -2.6566
30200SOL     OW93231   3.876   8.915   8.620 -0.3599  0.0837 -0.8183
30200SOL    HW193232   3.908   8.893   8.707 -1.4408 -0.7909 -0.6223
30200SOL    HW293233   3.883   8.833   8.571  0.3169  0.5918 -1.5944
30201SOL     OW93234   1.768   1.684   6.034 -0.2332 -0.3406  0.3850
30201SOL    HW193235   1.822   1.709   5.959 -1.4358  0.0609 -0.3604
30201SOL    HW293236   1.773   1.588   6.037 -1.4852 -0.4822 -1.2202
30202SOL     OW93237   4.405   2.428   9.094 -0.2415  0.4773  0.0614
30202SOL    HW193238   4.354   2.487   9.039  0.1391  0.3510 -0.4303
30202SOL    HW293239   4.393   2.342   9.055 -1.7187 -0.0023  1.4192
30203SOL     OW93240   0.535   0.064   1.517 -0.3881  0.8481 -0.7961
30203SOL    HW193241   0.463   0.023   1.565  0.2025  1.1394  0.3886
30203SOL    HW293242   0.517   0.044   1.425 -0.8081 -0.9525 -0.3746
30204SOL     OW93243   8.100   8.161   9.953  0.1380 -0.1516  0.1041
30204SOL    HW193244   8.133   8.175   9.864 -0.1175  0.6606  0.1321
30204SOL    HW293245   8.011   8.198   9.951 -0.1349 -0.7658  0.5044
30205SOL     OW93246   0.317   6.477   8.350  0.0407 -0.5521  0.3371
30205SOL    HW193247   0.294   6.467   8.258  1.8458 -0.2709 -0.1695
30205SOL    HW293248   0.237   6.452   8.397 -1.2985  0.4268 -1.3025
30206SOL     OW93249   2.422   9.137   9.760 -0.3668  0.2370 -0.6356
30206SOL    HW193250   2.336   9.099   9.738 -0.5018  0.6337 -0.8023
30206SOL    HW293251   2.445   9.096   9.843 -0.3998 -0.3914 -0.9249
30207SOL     OW93252   5.930   1.993   9.502  0.2681  0.4201  0.6206
30207SOL    HW193253   6.025   1.990   9.506  0.2798 -1.7494 -0.2932
30207SOL    HW293254   5.905   1.920   9.446 -1.9060  1.5507 -0.0300
30208SOL     OW93255   7.573   9.979   4.102 -0.0902  0.3199  0.6178
30208SOL    HW193256   7.611   9.966   4.015 -1.6614 -1.0525  0.0812
30208SOL    HW293257   7.504  10.044   4.089  0.3809  0.9312  1.0835
30209SOL     OW93258   8.138   5.640   7.569  0.2064  0.3567 -0.3038
30209SOL    HW193259   8.192   5.599   7.636 -0.1910  1.2608  0.6120
30209SOL    HW293260   8.088   5.568   7.531 -0.3727 -0.0493  1.1601
30210SOL     OW93261   5.070   0.143   9.620  0.3438  0.5584  0.8432
30210SOL    HW193262   5.008   0.185   9.680 -1.1004  1.3433 -1.0793
30210SOL    HW293263   5.066   0.196   9.541  0.8564 -1.3815 -0.5639
30211SOL     OW93264   9.945   2.577   6.287 -0.2077 -0.7451  0.0306
30211SOL    HW193265   9.881   2.509   6.270 -0.3857 -0.6008  0.1064
30211SOL    HW293266   9.901   2.658   6.261 -0.7471 -0.4422  1.7376
30212SOL     OW93267   0.645   1.164   9.020 -0.2889 -0.0798 -0.0982
30212SOL    HW193268   0.717   1.227   9.017 -0.7496  0.4252 -1.2985
30212SOL    HW293269   0.570   1.215   9.049 -0.5073 -0.2319 -0.3875
30213SOL     OW93270   1.064   1.436   1.350  0.0183 -0.0384  0.6225
30213SOL    HW193271   1.039   1.462   1.439  0.0597  0.3405  0.5256
30213SOL    HW293272   1.111   1.354   1.362 -1.0912 -0.6545  0.8273
30214SOL     OW93273   2.627   7.696   6.977 -0.0545 -0.2983  0.0549
30214SOL    HW193274   2.657   7.619   6.928  1.2408  0.5710 -0.5839
30214SOL    HW293275   2.547   7.668   7.020  0.2762 -1.9348 -0.3481
30215SOL     OW93276   3.596   3.769   6.784  0.4306  0.4441 -0.2686
30215SOL    HW193277   3.640   3.758   6.868  0.9143 -0.1333 -0.5839
30215SOL    HW293278   3.515   3.719   6.793  1.1574 -0.8774 -0.6145
30216SOL     OW93279   9.991   8.337   6.322 -0.2622 -0.2428 -0.3976
30216SOL    HW193280  10.022   8.377   6.241 -0.9501 -1.9654 -1.5599
30216SOL    HW293281   9.897   8.326   6.309 -0.6333  0.6665  1.2060
30217SOL     OW93282   2.210   5.867   5.137 -0.3959 -0.0299  0.3982
30217SOL    HW193283   2.163   5.944   5.169 -1.8164 -0.0174 -1.4983
30217SOL    HW293284   2.145   5.796   5.140 -0.0786 -0.4038 -0.7626
30218SOL     OW93285   5.603   6.242   6.881 -0.2251 -0.0265 -0.2184
30218SOL    HW193286   5.552   6.185   6.823 -0.1809 -2.0597  1.6575
30218SOL    HW293287   5.694   6.219   6.862 -0.2293 -1.3857  1.2503
30219SOL     OW93288   1.066   5.338   1.381  0.4396 -0.2348 -0.6372
30219SOL    HW193289   1.126   5.412   1.386  0.2361 -0.1170  0.3512
30219SOL    HW293290   1.094   5.288   1.305  2.3617 -0.6745  0.3036
30220SOL     OW93291   6.246   8.407   8.008 -0.4543 -0.5505  0.0977
30220SOL    HW193292   6.155   8.435   8.000 -0.8631 -2.2059 -2.2491
30220SOL    HW293293   6.296   8.480   7.972 -0.9117 -0.0037  0.5428
30221SOL     OW93294   3.773   3.074  10.123  0.1268  0.4415  0.1837
30221SOL    HW193295   3.839   3.143  10.130  1.3091 -0.3607 -2.0768
30221SOL    HW293296   3.692   3.115  10.154  0.7113  2.9913 -1.3381
30222SOL     OW93297   6.005   2.407   0.601 -0.2696  0.2023  0.1463
30222SOL    HW193298   6.073   2.345   0.575 -0.4290 -0.0332  0.2843
30222SOL    HW293299   5.949   2.415   0.524 -0.7836 -0.5515  0.4285
30223SOL     OW93300   7.423   9.490   0.085 -0.4583  0.5298  0.1499
30223SOL    HW193301   7.447   9.454  -0.000 -0.2851 -0.2003  0.4956
30223SOL    HW293302   7.416   9.584   0.071 -1.2834  0.3260 -0.8636
30224SOL     OW93303   9.495   2.439  10.275  0.5428 -0.0114  0.1924
30224SOL    HW193304   9.503   2.527  10.311  2.1046 -0.7362  1.7811
30224SOL    HW293305   9.468   2.385  10.349  0.3468 -0.9986 -0.5816
30225SOL     OW93306   4.043   0.518   2.704  0.6737  0.0436 -0.6563
30225SOL    HW193307   4.095   0.521   2.785 -1.5523  0.2126  0.8640
30225SOL    HW293308   4.108   0.508   2.635  2.7744  1.0712  1.0326
30226SOL     OW93309   6.466  10.208   4.405 -0.0754 -0.2590 -0.4871
30226SOL    HW193310   6.429  10.121   4.390  1.2338 -0.9084 -0.0767
30226SOL    HW293311   6.426  10.237   4.487  0.1025 -0.8218 -0.1975
30227SOL     OW93312   2.743   5.680   3.020 -0.3235 -0.0016  0.1198
30227SOL    HW193313   2.768   5.772   3.025  0.5948 -0.0243 -2.7315
30227SOL    HW293314   2.647   5.681   3.018 -0.3088  0.9266 -0.4166
30228SOL     OW93315   0.980   2.326   8.040  0.0488  0.5280 -0.0511
30228SOL    HW193316   0.895   2.370   8.045 -0.5054 -0.3653 -1.0010
30228SOL    HW293317   0.959   2.239   8.006  1.5322  0.9735 -2.3090
30229SOL     OW93318   2.465   3.423   1.099 -0.0817  0.2697  0.1671
30229SOL    HW193319   2.406   3.433   1.024  0.8401  1.6002 -0.4233
30229SOL    HW293320   2.438   3.493   1.159 -0.3603 -0.3505  0.7665
30230SOL     OW93321   7.981   3.235   7.912 -0.1192  0.4934  0.5083
30230SOL    HW193322   7.964   3.329   7.899  1.4006  0.9973  1.8032
30230SOL    HW293323   7.899   3.192   7.887 -0.3276  2.0179 -1.6526
30231SOL     OW93324   8.162   3.450   9.913  0.0389  0.4820  0.1616
30231SOL    HW193325   8.079   3.496   9.903  0.0369  0.7559  1.3567
30231SOL    HW293326   8.227   3.510   9.878 -0.3787 -0.3711 -2.3157
30232SOL     OW93327   2.656   0.905   3.348  0.2054 -0.6806 -0.0272
30232SOL    HW193328   2.598   0.941   3.282 -0.2420  0.5547  1.0074
30232SOL    HW293329   2.734   0.960   3.344 -0.8167  1.0380  2.1362
30233SOL     OW93330   8.225   5.681   4.589 -0.2488 -0.0161 -0.3291
30233SOL    HW193331   8.313   5.642   4.586  0.7600  2.1278  0.0479
30233SOL    HW293332   8.204   5.687   4.682 -0.4321  0.2321 -0.3855
30234SOL     OW93333  10.291   2.907   5.298  0.4062  0.0321  0.0156
30234SOL    HW193334  10.334   2.892   5.382 -0.1851 -0.9274  0.1535
30234SOL    HW293335  10.314   2.998   5.275  1.3429 -0.0130  0.7473
30235SOL     OW93336   6.968   0.935   9.135  0.0665  0.3959  0.6242
30235SOL    HW193337   6.967   0.973   9.223  0.8028  0.0901  0.7762
30235SOL    HW293338   6.876   0.930   9.109 -0.3593 -1.4607  2.2368
30236SOL     OW93339   4.543   0.103   9.808 -0.1654  0.0573 -0.6085
30236SOL    HW193340   4.564   0.152   9.887  1.3448 -0.4288 -0.6721
30236SOL    HW293341   4.604   0.029   9.809 -2.8842 -2.3503 -0.0878
30237SOL     OW93342   9.196   6.273   1.117  0.0132 -0.3958 -0.5024
30237SOL    HW193343   9.145   6.192   1.125 -1.8772  0.5869 -1.8162
30237SOL    HW293344   9.131   6.340   1.094  1.7621  1.1501 -1.1845
30238SOL     OW93345   2.138  10.250   0.451 -0.5000 -0.0054  0.2034
30238SOL    HW193346   2.072  10.293   0.505 -0.5395 -2.0556  1.9557
30238SOL    HW293347   2.221  10.268   0.496  0.0237  1.4543 -1.2529
30239SOL     OW93348   7.506   5.693   8.506 -0.0864 -0.0268  0.1750
30239SOL    HW193349   7.598   5.705   8.484  0.0263 -0.3255  0.4826
30239SOL    HW293350   7.470   5.782   8.509  0.0654  0.0619 -0.4645
30240SOL     OW93351   9.196   4.634   3.898 -0.0274 -0.3223 -0.8633
30240SOL    HW193352   9.126   4.572   3.881 -0.7664  0.3056 -0.1527
30240SOL    HW293353   9.153   4.719   3.905  0.3595 -0.2796  2.5399
30241SOL     OW93354   4.778   3.238   4.904 -0.0727  0.5065 -0.3514
30241SOL    HW193355   4.713   3.270   4.842  0.8977 -0.5629 -2.0038
30241SOL    HW293356   4.730   3.175   4.959 -0.6838  0.6031 -0.7656
30242SOL     OW93357   7.251   6.574   2.461 -0.3945  0.1836 -0.2019
30242SOL    HW193358   7.330   6.621   2.488  1.1362 -1.8971 -0.8063
30242SOL    HW293359   7.243   6.593   2.367 -0.4386  0.1335 -0.2078
30243SOL     OW93360   9.978   4.313   6.274  0.4893 -0.4980 -0.2805
30243SOL    HW193361  10.045   4.256   6.311  1.1894 -1.0277 -2.2362
30243SOL    HW293362   9.909   4.254   6.245 -0.7257  0.0186  1.3747
30244SOL     OW93363   1.364   4.709   6.635  0.1807 -0.1041  0.3067
30244SOL    HW193364   1.430   4.746   6.577  0.8621 -0.3805  0.8958
30244SOL    HW293365   1.413   4.661   6.702 -0.6696 -2.6461 -0.7570
30245SOL     OW93366   7.596   5.818   3.437  0.4233 -0.0315 -0.0290
30245SOL    HW193367   7.507   5.783   3.434  0.3656  0.0265  0.8575
30245SOL    HW293368   7.586   5.905   3.475  1.0478 -0.7330  1.8606
30246SOL     OW93369   4.697   7.252   1.289  0.1417 -0.7056 -0.4092
30246SOL    HW193370   4.678   7.346   1.285  0.5612 -0.6387 -1.5678
30246SOL    HW293371   4.790   7.248   1.313  0.5217 -0.7422 -1.7721
30247SOL     OW93372   7.364   2.776   7.888 -0.1769 -0.1092  0.3252
30247SOL    HW193373   7.321   2.762   7.804 -0.8357  0.2790  0.5960
30247SOL    HW293374   7.449   2.733   7.878 -1.0988 -2.0477  0.2316
30248SOL     OW93375  10.032   4.426   4.340 -0.0257  0.4450 -0.0727
30248SOL    HW193376   9.956   4.474   4.307  1.2789  1.8391 -1.2356
30248SOL    HW293377  10.016   4.335   4.315 -1.2330  0.7432 -0.4485
30249SOL     OW93378   0.843  10.291   2.385  0.3869 -0.4830  0.4427
30249SOL    HW193379   0.939  10.297   2.383  0.4163 -0.2787  1.5399
30249SOL    HW293380   0.824  10.204   2.351  0.9666 -0.5562  0.2908
30250SOL     OW93381   8.725   4.645   5.270 -0.2705  0.4871 -0.3101
30250SOL    HW193382   8.645   4.600   5.243 -0.7069  0.6557  0.6776
30250SOL    HW293383   8.712   4.665   5.363  1.0289  0.2784 -0.0638
30251SOL     OW93384   4.573   5.401   2.118 -0.0933  0.0084  0.6170
30251SOL    HW193385   4.500   5.348   2.087  0.4156 -0.9454  1.0068
30251SOL    HW293386   4.648   5.372   2.066 -0.2604  2.1318 -0.9560
30252SOL     OW93387   3.830   8.827   5.288 -0.0768  0.2397 -0.2778
30252SOL    HW193388   3.922   8.851   5.289  0.0005  0.1143 -1.7421
30252SOL    HW293389   3.828   8.736   5.318  0.4806 -0.2771 -1.7283
30253SOL     OW93390   8.282   4.557   1.110 -0.5062  0.2946 -0.3311
30253SOL    HW193391   8.332   4.514   1.179  1.0723  0.5599 -1.2529
30253SOL    HW293392   8.317   4.520   1.029  0.7186  3.0097 -1.1726
30254SOL     OW93393   7.696   0.576   9.365  0.7071  0.3795  0.0645
30254SOL    HW193394   7.788   0.586   9.387  0.7378  0.0233  0.1017
30254SOL    HW293395   7.687   0.619   9.280  0.8933  0.4786  0.0959
30255SOL     OW93396   1.425   6.768   8.250 -0.0290  0.1640 -0.0934
30255SOL    HW193397   1.492   6.783   8.183  1.1067 -0.5924  0.8240
30255SOL    HW293398   1.370   6.699   8.213 -0.3177  0.7889 -0.8562
30256SOL     OW93399   3.952   2.564   8.939  0.1644 -0.2124 -0.3417
30256SOL    HW193400   3.967   2.638   8.880 -0.2413  1.0703  1.0980
30256SOL    HW293401   3.974   2.487   8.887 -1.6650  0.7365 -2.7031
30257SOL     OW93402   1.624   3.143   9.382 -0.5699 -0.0365  0.2616
30257SOL    HW193403   1.587   3.226   9.412  0.4262  0.4243  0.2556
30257SOL    HW293404   1.703   3.131   9.435  0.0744 -0.2536 -0.7197
30258SOL     OW93405   7.182   8.735   6.472  0.7284  0.0829  0.1655
30258SOL    HW193406   7.149   8.645   6.467 -1.9120  1.0072 -0.8375
30258SOL    HW293407   7.228   8.748   6.389  0.9564 -0.2764  0.2340
30259SOL     OW93408   7.891   1.791   1.658  0.0322 -0.6542 -0.0078
30259SOL    HW193409   7.828   1.766   1.591  0.5863 -0.6013 -0.5524
30259SOL    HW293410   7.847   1.862   1.706  0.5136  0.9213 -1.7683
30260SOL     OW93411   0.463   9.862   3.928  0.4156  0.0284 -0.0472
30260SOL    HW193412   0.408   9.787   3.905 -1.8034  2.0016 -1.6154
30260SOL    HW293413   0.406   9.919   3.980  1.5161  1.3900 -0.2624
30261SOL     OW93414   1.663   3.352   3.945  0.5314  0.0412 -0.2677
30261SOL    HW193415   1.707   3.301   4.013  2.0614  2.5536  0.8059
30261SOL    HW293416   1.626   3.427   3.992 -1.9656 -0.1913 -1.6923
30262SOL     OW93417   9.964   4.168  10.047  0.7101  0.0074 -0.3480
30262SOL    HW193418   9.899   4.098  10.055  1.8218 -1.2409 -1.6681
30262SOL    HW293419  10.005   4.173  10.134 -1.1550  0.8974  0.5433
30263SOL     OW93420   4.547   1.045   2.085  0.8523  0.2435 -0.3037
30263SOL    HW193421   4.627   1.024   2.132  0.0951  1.1681  1.4624
30263SOL    HW293422   4.523   1.132   2.114 -0.7849  0.0018 -0.8115
30264SOL     OW93423   2.594   8.903   8.575  0.2676 -0.1573  0.0545
30264SOL    HW193424   2.541   8.828   8.549  0.3179 -0.0562 -0.3522
30264SOL    HW293425   2.543   8.945   8.645 -0.7257  0.5466 -1.0514
30265SOL     OW93426   2.264   1.538   8.114  0.2633 -0.1283 -0.4451
30265SOL    HW193427   2.279   1.449   8.081 -0.8616  0.1439 -1.8115
30265SOL    HW293428   2.322   1.593   8.061 -1.0753  0.2369 -1.6076
30266SOL     OW93429   3.095   0.286   3.159 -0.4792  0.5114 -0.2316
30266SOL    HW193430   3.160   0.353   3.141 -0.1112  0.1158 -0.3709
30266SOL    HW293431   3.050   0.272   3.075 -0.4076  0.4254 -0.2558
30267SOL     OW93432   8.621   5.857   4.004 -0.0627  0.3412  0.0803
30267SOL    HW193433   8.709   5.882   3.975  0.4741  0.0611  1.3838
30267SOL    HW293434   8.601   5.919   4.075  0.0997 -1.0542  1.4121
30268SOL     OW93435   4.627   1.532   3.439 -0.0667 -0.0580 -0.3107
30268SOL    HW193436   4.703   1.534   3.498 -0.2720 -0.3393 -0.0296
30268SOL    HW293437   4.582   1.615   3.456 -0.4260 -0.3768  0.3420
30269SOL     OW93438   3.910   3.629   8.633 -0.2880  0.3500  0.0960
30269SOL    HW193439   3.976   3.698   8.643 -0.7797  0.6951  1.1827
30269SOL    HW293440   3.848   3.646   8.704  0.8459 -2.6440  1.9652
30270SOL     OW93441   8.689   5.310   5.902  0.5633  0.1984  0.1699
30270SOL    HW193442   8.770   5.270   5.931  1.5133 -0.7009 -3.2472
30270SOL    HW293443   8.714   5.399   5.875 -0.1502  0.7884  1.3445
30271SOL     OW93444   5.086   9.084   7.305  0.4703  0.4389 -0.0647
30271SOL    HW193445   5.096   9.178   7.319 -0.6861  0.7182 -1.0036
30271SOL    HW293446   5.035   9.054   7.381 -1.4196  1.0626 -1.0197
30272SOL     OW93447   9.452   1.167   0.868  0.5622 -0.1709 -0.3923
30272SOL    HW193448   9.397   1.132   0.797 -0.6173  1.2304 -0.2028
30272SOL    HW293449   9.489   1.089   0.910 -0.6379 -1.1136 -1.0358
30273SOL     OW93450   8.131   0.092   8.152 -0.6074  0.4736  0.6669
30273SOL    HW193451   8.133   0.032   8.226  1.9014 -1.5231 -0.8260
30273SOL    HW293452   8.205   0.151   8.167  0.2759 -0.3063 -0.4486
30274SOL     OW93453   9.015   0.408   8.249 -0.1053  0.4571  0.4121
30274SOL    HW193454   9.087   0.458   8.287 -0.0530 -1.0949  2.5620
30274SOL    HW293455   8.950   0.474   8.224  0.3393  1.6955  2.2910
30275SOL     OW93456   3.142   6.620   2.917 -0.7098 -0.0829 -0.0933
30275SOL    HW193457   3.127   6.574   3.000  0.3817 -1.5141 -0.6404
30275SOL    HW293458   3.230   6.656   2.925 -0.0885 -1.3198 -1.0875
30276SOL     OW93459   6.021  10.167   6.461  0.4985 -0.5494 -0.1722
30276SOL    HW193460   6.091  10.132   6.405  0.5962 -1.0741  0.2778
30276SOL    HW293461   5.940  10.144   6.415  0.5840 -0.7995 -0.1989
30277SOL     OW93462   7.937   0.089   9.422  0.1983 -0.1050 -0.1240
30277SOL    HW193463   7.886   0.007   9.422 -1.0345  0.6395  0.5456
30277SOL    HW293464   7.877   0.154   9.458  2.0818  0.5391  2.0030
30278SOL     OW93465   5.507   5.634   4.387 -0.1450 -0.4733  0.0372
30278SOL    HW193466   5.541   5.547   4.409  0.9225 -0.0579  0.1055
30278SOL    HW293467   5.584   5.691   4.390 -1.3428  1.3438  4.3492
30279SOL     OW93468   5.864   1.773   8.686  0.3725 -0.0223  0.3937
30279SOL    HW193469   5.817   1.700   8.645 -0.3525  0.4499  0.3565
30279SOL    HW293470   5.941   1.786   8.631 -0.8589  0.9475 -1.1742
30280SOL     OW93471   9.484   3.674   9.068  0.0626 -0.3794  0.5441
30280SOL    HW193472   9.408   3.663   9.011 -0.6992  0.9242  1.2738
30280SOL    HW293473   9.460   3.745   9.127  1.6530 -0.2943  1.1312
30281SOL     OW93474   2.117   8.817   3.644  0.8497  0.4011  0.0917
30281SOL    HW193475   2.188   8.880   3.635 -0.0631  1.5396  0.7120
30281SOL    HW293476   2.113   8.797   3.737  0.1485  0.5896  0.1069
30282SOL     OW93477   7.962   7.696   6.566 -0.9340  0.4126 -0.1335
30282SOL    HW193478   7.960   7.739   6.481  0.8544 -2.0132 -1.4917
30282SOL    HW293479   7.894   7.629   6.562 -0.8350  0.2766  0.3392
30283SOL     OW93480   4.555   4.239   0.879 -0.5006  0.1295 -0.6126
30283SOL    HW193481   4.605   4.159   0.897  0.1322  0.3083 -1.5534
30283SOL    HW293482   4.617   4.298   0.836 -0.7424  1.4484  0.7638
30284SOL     OW93483   1.802   3.095   9.615 -0.4316  0.1409 -0.1215
30284SOL    HW193484   1.747   3.069   9.689  0.5919  0.2013  0.6820
30284SOL    HW293485   1.880   3.039   9.622  0.7420  1.7623  0.2433
30285SOL     OW93486   9.971   3.994   1.706 -0.3135 -0.1260  0.0784
30285SOL    HW193487   9.957   4.047   1.785  0.8810  0.8164 -0.3100
30285SOL    HW293488   9.966   3.904   1.736  1.3594  0.1988  1.4954
30286SOL     OW93489   6.780  10.313   7.533 -0.5854 -0.2414  0.1680
30286SOL    HW193490   6.732  10.292   7.453  1.0240 -0.2667 -0.8414
30286SOL    HW293491   6.819  10.230   7.560 -0.6603 -0.1151  0.6796
30287SOL     OW93492   1.068   8.562   3.383  0.2325  0.1354  0.3246
30287SOL    HW193493   1.021   8.506   3.321 -2.0402  0.5514  1.5776
30287SOL    HW293494   1.020   8.645   3.381  1.1037  0.6923  1.4490
30288SOL     OW93495   7.499   5.893   8.178  0.4251 -0.6467  0.2094
30288SOL    HW193496   7.506   5.810   8.132  2.5136 -0.1418 -0.4940
30288SOL    HW293497   7.488   5.958   8.109  0.9055 -0.1317  0.6132
30289SOL     OW93498   5.494   6.689   0.462  0.8652  0.7473  0.2662
30289SOL    HW193499   5.458   6.610   0.504 -0.5816  0.7489 -0.9024
30289SOL    HW293500   5.538   6.735   0.533  0.6658 -0.4965  1.2390
30290SOL     OW93501   5.332   8.825   5.504 -0.2729  0.2037 -0.0005
30290SOL    HW193502   5.361   8.798   5.591 -0.6857  1.0424  0.3962
30290SOL    HW293503   5.369   8.758   5.446  2.4742  1.1624  0.4801
30291SOL     OW93504   1.697   8.794   1.443  0.2499  0.6652  0.1761
30291SOL    HW193505   1.705   8.794   1.538 -0.2345  0.8186  0.2182
30291SOL    HW293506   1.623   8.852   1.425 -1.1192 -1.1114 -0.1624
30292SOL     OW93507   6.070   2.736   3.280 -0.2324 -0.1369 -0.5050
30292SOL    HW193508   6.105   2.805   3.337  0.1056  0.3832 -1.3252
30292SOL    HW293509   6.002   2.694   3.333  1.8252 -1.4274  1.3006
30293SOL     OW93510   6.100   8.070   6.852 -0.0466  0.4777  0.2350
30293SOL    HW193511   6.023   8.094   6.903  0.4636 -0.2889  1.4270
30293SOL    HW293512   6.145   8.004   6.906  0.5624 -0.3262 -1.1779
30294SOL     OW93513   7.232   9.494   0.837 -0.4450  0.3697  0.3395
30294SOL    HW193514   7.259   9.410   0.873  1.5549  0.3150 -1.0850
30294SOL    HW293515   7.155   9.474   0.783 -1.1890 -0.1537  1.5527
30295SOL     OW93516   4.562   5.796   9.479 -0.1027  0.0655  0.0843
30295SOL    HW193517   4.613   5.765   9.554 -0.2838 -0.4709 -0.0039
30295SOL    HW293518   4.505   5.864   9.515  1.7914  1.8272 -0.1373
30296SOL     OW93519   5.392   0.291   6.739 -0.6772 -0.4098  0.1173
30296SOL    HW193520   5.356   0.321   6.656 -1.6294  0.3948  0.7935
30296SOL    HW293521   5.364   0.200   6.746 -1.3689 -0.2210 -0.0528
30297SOL     OW93522  10.236   8.890   3.819 -0.1398  0.5017  0.6806
30297SOL    HW193523  10.270   8.974   3.851  0.6436  0.4514 -0.0006
30297SOL    HW293524  10.146   8.909   3.792 -0.7876  0.5829  2.7384
30298SOL     OW93525   3.911   6.291   0.843 -0.4314 -0.3387 -0.3028
30298SOL    HW193526   3.847   6.355   0.871  1.8397  1.7813  0.3835
30298SOL    HW293527   3.971   6.282   0.918  1.4901 -0.2771 -1.7536
30299SOL     OW93528   2.806   6.641   8.845 -0.0054  0.3101  0.1150
30299SOL    HW193529   2.712   6.657   8.835  0.2048  1.0249 -0.9234
30299SOL    HW293530   2.812   6.562   8.899 -1.2069 -0.3311 -0.6596
30300SOL     OW93531   7.187   8.028   2.077  0.3891  0.6411 -0.0291
30300SOL    HW193532   7.173   7.975   1.998  0.9957 -0.1349  0.3674
30300SOL    HW293533   7.126   7.991   2.141  2.4333 -1.2079  0.9832
30301SOL     OW93534   5.657  10.035   8.332 -0.6718 -0.4814 -0.5124
30301SOL    HW193535   5.731  10.000   8.383 -0.5913  0.1529 -0.1919
30301SOL    HW293536   5.698  10.074   8.255 -0.5865  0.5558  0.0349
30302SOL     OW93537   3.531   6.620   1.855 -0.0900 -0.0460  0.6235
30302SOL    HW193538   3.528   6.601   1.949 -0.7317 -3.0163  0.0995
30302SOL    HW293539   3.453   6.673   1.839 -0.0437  0.3948  1.7004
30303SOL     OW93540   9.236   0.130   1.328 -0.5472  0.2000  0.0930
30303SOL    HW193541   9.156   0.125   1.275  0.6295 -0.3938 -1.7027
30303SOL    HW293542   9.301   0.170   1.270  1.1228 -1.5756  0.6413
30304SOL     OW93543   7.232   1.664   1.135  0.2258 -0.0681  0.1699
30304SOL    HW193544   7.262   1.755   1.127  3.9348 -1.0909  0.5737
30304SOL    HW293545   7.181   1.648   1.056 -0.2854  2.2671 -0.0354
30305SOL     OW93546   3.981   7.232   1.464 -0.0987 -0.0067  0.3238
30305SOL    HW193547   4.040   7.181   1.407 -0.6091 -0.7373  0.4364
30305SOL    HW293548   4.014   7.214   1.552 -1.1291 -1.2978  0.4749
30306SOL     OW93549   5.645   4.026   4.490 -0.2466  0.4273 -0.3866
30306SOL    HW193550   5.627   4.056   4.401  0.9815  1.7699 -0.2318
30306SOL    HW293551   5.582   4.073   4.545 -0.7781 -0.1398 -0.5034
30307SOL     OW93552   4.598   5.204   9.917 -0.4056  0.3215  0.1854
30307SOL    HW193553   4.691   5.184   9.911 -0.3141  0.6175  0.5587
30307SOL    HW293554   4.595   5.297   9.941 -0.8134  0.6075 -0.9127
30308SOL     OW93555   0.350   8.371   4.025 -0.5295  0.2085 -0.0333
30308SOL    HW193556   0.382   8.302   3.967  0.1661  0.2589  0.2729
30308SOL    HW293557   0.272   8.335   4.066 -1.3484  0.3670 -1.3924
30309SOL     OW93558   9.962   5.185  10.219  0.5759 -0.6324 -0.3655
30309SOL    HW193559   9.936   5.265  10.174 -0.1153 -1.3253 -1.2159
30309SOL    HW293560   9.907   5.116  10.182  1.2040 -1.5269  0.2984
30310SOL     OW93561   7.443   7.968   2.555 -0.3631 -0.8656  0.8661
30310SOL    HW193562   7.453   7.920   2.473 -1.5193 -1.2624  0.9414
30310SOL    HW293563   7.520   8.024   2.560 -1.5007  1.1671 -1.8225
30311SOL     OW93564   9.534   7.304   1.265 -0.2370 -0.2110  0.6507
30311SOL    HW193565   9.608   7.254   1.229  1.1706  1.3248  1.2381
30311SOL    HW293566   9.522   7.269   1.353 -0.3103 -0.5623  0.5033
30312SOL     OW93567   5.469   4.865   4.877 -0.7661 -0.7082  0.0361
30312SOL    HW193568   5.435   4.954   4.873 -0.4753 -0.6086 -0.3269
30312SOL    HW293569   5.437   4.830   4.960 -0.2836 -0.0285  0.5086
30313SOL     OW93570   1.556   6.108   5.699  0.1621  0.3678 -0.2552
30313SOL    HW193571   1.609   6.029   5.716 -0.8711 -0.7003 -1.7565
30313SOL    HW293572   1.587   6.140   5.615  0.5156  1.5424  0.3129
30314SOL     OW93573   8.445   0.759   3.231 -0.7526  0.0162 -0.5767
30314SOL    HW193574   8.436   0.801   3.145  2.9978  0.5982 -0.8463
30314SOL    HW293575   8.406   0.672   3.219  1.2482 -0.6319 -3.5386
30315SOL     OW93576   7.320   4.221   4.938 -0.3863 -0.0767  0.5879
30315SOL    HW193577   7.391   4.253   4.882 -2.0806  0.9268 -1.1023
30315SOL    HW293578   7.319   4.126   4.923  1.2128 -0.2703  1.4523
30316SOL     OW93579   1.648   8.205   8.008 -0.4316  0.0992 -0.1725
30316SOL    HW193580   1.661   8.283   8.063 -1.0400  0.1264 -0.0609
30316SOL    HW293581   1.726   8.201   7.953 -0.1673  0.5066  0.1710
30317SOL     OW93582   5.911   9.832   9.917 -0.3137  0.2334 -0.0747
30317SOL    HW193583   5.950   9.793   9.995  0.2793  2.4857  0.8364
30317SOL    HW293584   5.854   9.764   9.882  1.3842 -1.7733  0.8236
30318SOL     OW93585   6.777   3.352   7.669 -0.1779 -0.0374  0.1565
30318SOL    HW193586   6.867   3.372   7.695 -0.3551  0.9897  0.0451
30318SOL    HW293587   6.726   3.424   7.706 -0.7586  0.1501 -0.9930
30319SOL     OW93588   5.774   5.743   9.642 -0.1925  0.2409  0.3355
30319SOL    HW193589   5.771   5.809   9.574 -0.5428 -0.8376 -0.7410
30319SOL    HW293590   5.829   5.673   9.606 -1.9578 -1.2107  0.3112
30320SOL     OW93591   4.308   4.569   9.363  0.5198 -0.1847 -0.0725
30320SOL    HW193592   4.269   4.635   9.420  1.5682  0.3336  0.0670
30320SOL    HW293593   4.267   4.487   9.390  1.4711 -0.0651  1.9442
30321SOL     OW93594   1.818   5.538   6.614 -0.2357 -0.3410  0.6581
30321SOL    HW193595   1.808   5.468   6.551  1.9810 -0.5686  0.4657
30321SOL    HW293596   1.759   5.607   6.584 -1.7076 -1.6914  0.2925
30322SOL     OW93597   8.979   3.258   3.506  0.1792  0.2290 -0.2809
30322SOL    HW193598   9.064   3.246   3.464 -0.2615  0.3479 -1.2250
30322SOL    HW293599   8.981   3.349   3.538 -0.5658  1.1451 -2.6299
30323SOL     OW93600   2.517   9.568   1.356  0.3848 -0.0971 -0.4074
30323SOL    HW193601   2.484   9.563   1.266 -1.8306 -0.6309  0.3696
30323SOL    HW293602   2.587   9.503   1.359  1.7030  1.1376 -2.1695
30324SOL     OW93603   5.053   8.520   8.370 -0.0166 -0.2260  0.1703
30324SOL    HW193604   5.114   8.503   8.442 -1.1505 -3.5469  0.5078
30324SOL    HW293605   5.098   8.487   8.293 -0.0049  0.5545 -0.1589
30325SOL     OW93606   4.931   7.012   9.966 -0.5892 -0.8273 -0.2025
30325SOL    HW193607   5.009   7.061   9.995 -1.3900  0.7652 -0.6558
30325SOL    HW293608   4.960   6.921   9.967  1.4910 -0.2455 -0.9464
30326SOL     OW93609   2.372   6.448   8.025  0.2217 -0.6237  0.3900
30326SOL    HW193610   2.348   6.533   7.989 -1.4556 -1.1999  0.0377
30326SOL    HW293611   2.421   6.468   8.104 -0.6620  0.6745  0.6337
30327SOL     OW93612   0.886   4.326   7.540 -0.1663  0.3347 -0.5712
30327SOL    HW193613   0.888   4.371   7.625  2.9426  1.3659 -1.0463
30327SOL    HW293614   0.809   4.362   7.496 -0.4636  1.6107  0.8814
30328SOL     OW93615   7.893   8.972   3.475  0.0559  0.2906  0.6825
30328SOL    HW193616   7.955   8.926   3.418 -1.0164  0.1495 -0.4128
30328SOL    HW293617   7.940   9.049   3.506  0.6786  0.3682 -0.4100
30329SOL     OW93618   3.131   8.224   7.740 -0.2283  0.0602 -0.0732
30329SOL    HW193619   3.212   8.185   7.705  0.2517  1.7182 -0.9533
30329SOL    HW293620   3.142   8.221   7.835  0.0315 -1.3819 -0.1237
30330SOL     OW93621   3.259   3.774   1.248 -0.4265  0.3286 -0.3031
30330SOL    HW193622   3.214   3.701   1.290 -0.2411 -0.3785 -1.2896
30330SOL    HW293623   3.194   3.810   1.188 -0.1737  0.2795 -0.6085
30331SOL     OW93624   7.571   7.342   4.849 -0.4443  0.2781 -0.2703
30331SOL    HW193625   7.657   7.381   4.839 -0.9514  1.7987  0.8542
30331SOL    HW293626   7.587   7.258   4.893  0.5361 -0.0294 -1.1872
30332SOL     OW93627   4.062   2.812   7.561 -0.8869  0.4990  0.1812
30332SOL    HW193628   3.977   2.782   7.529 -1.0756 -0.5707  1.6328
30332SOL    HW293629   4.086   2.750   7.630  0.6044  1.3749  0.4988
30333SOL     OW93630   9.000   2.015   4.163 -0.1054  0.2286 -0.2731
30333SOL    HW193631   8.914   1.998   4.125  0.1452 -0.0353 -0.7340
30333SOL    HW293632   9.017   2.107   4.142 -0.2489  0.2656 -0.2301
30334SOL     OW93633   8.137   5.805   2.768 -0.7770  0.2513  0.0240
30334SOL    HW193634   8.217   5.819   2.717  0.1977 -1.1437  1.0912
30334SOL    HW293635   8.107   5.718   2.742 -0.4034 -0.3745  1.6017
30335SOL     OW93636   4.567   4.774   0.714 -0.4438 -0.4697 -0.2531
30335SOL    HW193637   4.597   4.728   0.793  1.4811  0.2517 -0.5001
30335SOL    HW293638   4.471   4.772   0.720 -0.3709  0.1588  2.4706
30336SOL     OW93639   8.668   7.485   0.404 -0.0982  0.2658 -0.2087
30336SOL    HW193640   8.628   7.570   0.384  0.1714  0.6047  0.6774
30336SOL    HW293641   8.593   7.429   0.426 -0.3803 -0.0372 -1.8011
30337SOL     OW93642   5.372   3.099  10.015  0.5194  0.6050 -0.0731
30337SOL    HW193643   5.387   3.026   9.955 -0.3395  0.7532 -0.4779
30337SOL    HW293644   5.435   3.166   9.987  0.1007  0.6907 -0.8480
30338SOL     OW93645   5.686  10.188   0.801 -0.4360 -0.2961  0.2287
30338SOL    HW193646   5.613  10.209   0.743 -0.2775 -0.2355  0.0505
30338SOL    HW293647   5.746  10.262   0.794 -0.5503 -0.1533  0.6952
30339SOL     OW93648   3.523   0.743   7.682 -0.4734 -0.0040  0.3862
30339SOL    HW193649   3.470   0.782   7.613  0.0384 -0.5891 -0.3569
30339SOL    HW293650   3.538   0.653   7.653 -1.0753 -0.5761  1.7381
30340SOL     OW93651   1.311   8.580   4.783  0.0149  0.3203 -0.1479
30340SOL    HW193652   1.404   8.590   4.803 -0.2575  1.5600  0.6063
30340SOL    HW293653   1.310   8.542   4.695  1.2225 -0.3007  0.0751
30341SOL     OW93654   0.693   3.508   3.453  0.0378  0.0992  0.4449
30341SOL    HW193655   0.649   3.521   3.536  0.2367  1.4188  0.3608
30341SOL    HW293656   0.627   3.467   3.397 -0.0415 -0.9602  1.2715
30342SOL     OW93657   7.794   0.287   8.079 -0.4386  0.2777 -0.2902
30342SOL    HW193658   7.848   0.352   8.035 -1.9020  1.3134 -0.6429
30342SOL    HW293659   7.792   0.315   8.170 -0.0270 -0.0172 -0.1884
30343SOL     OW93660   1.342   0.533   9.118 -0.5748 -0.3764  0.5894
30343SOL    HW193661   1.427   0.574   9.136 -0.8411  0.3295  0.2807
30343SOL    HW293662   1.364   0.450   9.076 -0.0439  0.0229  0.0636
30344SOL     OW93663   2.141   1.933   5.028  0.7625 -0.1204 -0.2765
30344SOL    HW193664   2.049   1.954   5.014  0.7663  0.7433  0.7966
30344SOL    HW293665   2.140   1.864   5.095  0.8842 -0.6139 -0.7738
30345SOL     OW93666   2.961   0.212   9.234 -0.2907  0.5181 -0.4458
30345SOL    HW193667   2.919   0.205   9.319  0.7688  0.3180  0.0770
30345SOL    HW293668   3.017   0.289   9.240  0.9923 -0.3768 -0.3927
30346SOL     OW93669   5.700   2.157   1.623  0.7003 -0.2702  0.1251
30346SOL    HW193670   5.618   2.125   1.659  1.1794 -0.0200  1.4887
30346SOL    HW293671   5.723   2.093   1.556 -0.1901 -0.7809  0.2917
30347SOL     OW93672   5.362   9.119   7.668 -0.0041  0.3983 -0.0135
30347SOL    HW193673   5.422   9.046   7.681  0.7314  1.1443  0.9693
30347SOL    HW293674   5.343   9.151   7.757 -0.8107  1.0052 -0.3888
30348SOL     OW93675  10.167   4.050   1.382 -0.0323 -0.0210 -0.2714
30348SOL    HW193676  10.220   4.020   1.456  0.1057 -2.3512 -1.2069
30348SOL    HW293677  10.217   4.021   1.305 -0.6004  1.5584 -1.2768
30349SOL     OW93678   7.446   6.613   2.026 -0.4253 -0.2085 -0.7341
30349SOL    HW193679   7.429   6.535   2.077 -0.1936 -0.0529 -0.4170
30349SOL    HW293680   7.406   6.596   1.941 -0.5950 -0.5664 -0.5803
30350SOL     OW93681   7.345   0.326   0.692  0.1498 -0.6453 -0.2645
30350SOL    HW193682   7.432   0.360   0.669  0.3245 -1.6482 -1.1488
30350SOL    HW293683   7.362   0.243   0.735 -0.3029  0.1372  1.5070
30351SOL     OW93684   6.943   8.274   5.827 -0.3588  0.0978  0.3310
30351SOL    HW193685   6.862   8.264   5.777 -1.8607  0.9973  2.4439
30351SOL    HW293686   6.988   8.190   5.817 -3.6183 -2.1622  2.5195
30352SOL     OW93687   0.695   2.350   6.763 -0.1253 -0.0411 -0.5584
30352SOL    HW193688   0.760   2.352   6.833 -0.6255 -1.8097  0.0226
30352SOL    HW293689   0.674   2.441   6.746 -0.2692  0.4355  1.8570
30353SOL     OW93690   6.679   8.022   6.642 -0.3710 -0.1663  0.3656
30353SOL    HW193691   6.722   8.009   6.558  1.6462  1.1932  1.1111
30353SOL    HW293692   6.687   7.936   6.686  1.1586 -0.1161  0.2526
30354SOL     OW93693   9.404   1.646   8.626  0.0172 -0.2400  0.3448
30354SOL    HW193694   9.376   1.677   8.540  1.2009 -2.2094 -0.8251
30354SOL    HW293695   9.339   1.578   8.650 -0.2059  0.1715  0.9392
30355SOL     OW93696  10.239   3.204   4.888  0.0262  0.4398  0.3949
30355SOL    HW193697  10.152   3.198   4.848  0.3666 -0.6147 -0.2166
30355SOL    HW293698  10.261   3.114   4.912  0.2531  0.9154  2.1013
30356SOL     OW93699   1.838   4.723   7.896  0.0798 -0.7508 -0.0484
30356SOL    HW193700   1.748   4.747   7.874  0.8554  2.2363 -0.3765
30356SOL    HW293701   1.846   4.742   7.989  0.5488 -0.3049 -0.1724
30357SOL     OW93702   2.705   0.799   2.279  0.1473  0.7660  0.1455
30357SOL    HW193703   2.678   0.767   2.366 -0.2986  0.9197  0.0659
30357SOL    HW293704   2.790   0.840   2.295  0.1691  0.6055  0.4721
30358SOL     OW93705   1.859   5.506   6.288 -0.0754  0.7593  0.2619
30358SOL    HW193706   1.821   5.422   6.316  0.1785  0.5529  0.0013
30358SOL    HW293707   1.790   5.548   6.238  0.5263 -0.3105 -1.5672
30359SOL     OW93708   7.791   7.162   4.503 -0.0307 -0.0164  0.0249
30359SOL    HW193709   7.842   7.116   4.571  0.9357  1.0249  0.0374
30359SOL    HW293710   7.747   7.233   4.551 -1.5458 -0.9128  0.0150
30360SOL     OW93711   6.724   4.182   4.914  0.3467  0.3467 -0.0181
30360SOL    HW193712   6.773   4.176   4.832 -1.8787  0.2277 -1.4583
30360SOL    HW293713   6.757   4.261   4.957  2.0156  0.0549 -0.6863
30361SOL     OW93714   5.855   6.518   7.310  0.6007 -0.1141  0.3641
30361SOL    HW193715   5.764   6.550   7.306  0.9223  1.1182  2.0192
30361SOL    HW293716   5.884   6.538   7.399  2.5736 -0.2984 -0.1928
30362SOL     OW93717   5.303   1.175  10.140  0.3859 -0.8025 -0.0106
30362SOL    HW193718   5.365   1.195  10.211 -0.0988 -0.9819  0.4740
30362SOL    HW293719   5.218   1.202  10.175  0.1897 -0.5565 -0.6710
30363SOL     OW93720   0.467  10.003   8.707 -0.5019  0.6170 -0.0667
30363SOL    HW193721   0.541   9.943   8.711 -0.0364  0.9805 -1.9569
30363SOL    HW293722   0.469  10.037   8.617 -1.2544  2.7849  0.6695
30364SOL     OW93723   3.161   6.689   9.588  0.1528 -0.1160  0.0416
30364SOL    HW193724   3.251   6.708   9.615 -1.0121  0.1673  4.4409
30364SOL    HW293725   3.122   6.775   9.571 -0.0572 -0.0070  1.0573
30365SOL     OW93726   5.132   8.657   5.196  0.6243  0.0883 -0.0105
30365SOL    HW193727   5.210   8.639   5.249 -0.1598  0.3070  1.2569
30365SOL    HW293728   5.074   8.583   5.214 -0.7292  1.4752  1.5595
30366SOL     OW93729   7.219   1.282   8.644  0.6905  0.1515 -0.1411
30366SOL    HW193730   7.292   1.306   8.586  1.7658  1.7374  1.7513
30366SOL    HW293731   7.203   1.361   8.695 -0.6133 -1.0073  1.3162
30367SOL     OW93732   3.645   0.915   4.255 -0.0534  0.1728  0.1914
30367SOL    HW193733   3.715   0.975   4.232 -0.3687  0.3954 -0.2029
30367SOL    HW293734   3.592   0.908   4.176  0.7528 -1.7378 -0.2328
30368SOL     OW93735  10.351   1.360   7.892 -0.0850  0.1036  0.2823
30368SOL    HW193736  10.272   1.413   7.898  0.6386  1.5702 -1.7834
30368SOL    HW293737  10.397   1.374   7.975 -2.1389 -1.1536  1.7095
30369SOL     OW93738   5.365   7.977   9.044  0.0346 -0.1795  0.0553
30369SOL    HW193739   5.380   7.974   8.949 -1.0266 -0.8537 -0.1091
30369SOL    HW293740   5.435   7.922   9.081  1.2122  1.0984 -0.2130
30370SOL     OW93741   1.692   6.682  10.273 -0.3065  0.0520 -0.4355
30370SOL    HW193742   1.605   6.657  10.304 -0.5019  0.0500 -0.9615
30370SOL    HW293743   1.741   6.705  10.352 -1.4439  2.1926 -0.3004
30371SOL     OW93744   6.825   4.698   5.868 -0.0839 -0.5882 -0.3010
30371SOL    HW193745   6.862   4.763   5.928  1.1025 -2.0601  0.6496
30371SOL    HW293746   6.883   4.700   5.792  2.0275 -2.7468  1.1005
30372SOL     OW93747   8.538   0.223   1.404 -0.1731  0.4425  0.4555
30372SOL    HW193748   8.489   0.147   1.435  2.0445 -0.7987  1.1392
30372SOL    HW293749   8.557   0.204   1.313 -1.1733  1.0770  0.0959
30373SOL     OW93750   5.689   1.362   4.928  0.2454 -0.1973 -0.1014
30373SOL    HW193751   5.781   1.334   4.928 -0.1420 -1.5432  0.2810
30373SOL    HW293752   5.650   1.313   4.855 -0.7223 -1.6887  1.3501
30374SOL     OW93753   2.179   8.214   3.441  0.3282 -0.3120  0.2244
30374SOL    HW193754   2.124   8.238   3.367  1.5213 -1.7369 -1.1712
30374SOL    HW293755   2.160   8.281   3.507 -0.7724  0.9759 -1.3292
30375SOL     OW93756   0.688   8.203   0.007 -0.4171  0.3375  0.0258
30375SOL    HW193757   0.627   8.133  -0.015  0.1228  0.4913 -2.1465
30375SOL    HW293758   0.658   8.235   0.092 -1.9976 -1.0577  0.0332
30376SOL     OW93759   8.260   4.639   0.536 -0.4003  0.6649  0.4500
30376SOL    HW193760   8.351   4.651   0.563  0.3193 -1.3228 -0.8920
30376SOL    HW293761   8.244   4.712   0.475  0.6239  0.4788 -0.0582
30377SOL     OW93762   0.226   2.273   0.194 -0.5924 -0.3675  0.0222
30377SOL    HW193763   0.187   2.359   0.176 -0.9794 -0.6419 -0.4880
30377SOL    HW293764   0.202   2.220   0.118  1.2401 -0.4053 -0.5825
30378SOL     OW93765   4.852   1.877   0.627  0.0416 -0.2145  0.7279
30378SOL    HW193766   4.788   1.879   0.556  1.3694  1.8891 -0.4930
30378SOL    HW293767   4.819   1.809   0.687 -2.2668 -0.5300 -0.7877
30379SOL     OW93768   3.388   1.291   7.844 -0.1741 -0.5747  0.5317
30379SOL    HW193769   3.436   1.254   7.918  0.1767  2.7474  2.1112
30379SOL    HW293770   3.298   1.262   7.857  0.4115 -2.5882  0.4419
30380SOL     OW93771   6.630   7.874   8.598  0.0089  0.6184 -0.1121
30380SOL    HW193772   6.695   7.886   8.667 -0.1693  0.9404  0.0013
30380SOL    HW293773   6.682   7.855   8.520  0.2206  0.4520  0.0650
30381SOL     OW93774  10.310   8.685   3.501 -0.7298 -0.0616 -0.0065
30381SOL    HW193775  10.388   8.738   3.516 -0.0342 -1.1697  0.4095
30381SOL    HW293776  10.247   8.717   3.567 -0.6538  0.8465 -0.3556
30382SOL     OW93777   1.555   0.051   1.153 -0.1731 -0.1768 -0.2320
30382SOL    HW193778   1.505  -0.025   1.184 -1.1022  0.1684 -0.8300
30382SOL    HW293779   1.554   0.112   1.227  1.8818 -1.3082  0.8126
30383SOL     OW93780   5.369   8.951   0.022  0.0735 -0.1238 -0.1447
30383SOL    HW193781   5.447   8.988  -0.019 -0.3479 -0.4898 -1.2936
30383SOL    HW293782   5.303   8.952  -0.047 -1.0001  0.3426  0.8549
30384SOL     OW93783   5.395   8.322   9.072  0.2225 -0.0804  0.7701
30384SOL    HW193784   5.342   8.342   9.149 -0.7734  0.1472  0.0520
30384SOL    HW293785   5.334   8.279   9.012  0.7484  0.5627 -0.2507
30385SOL     OW93786   5.424   2.242   3.756 -0.3988  0.3137 -0.2165
30385SOL    HW193787   5.403   2.334   3.774  0.3812  0.5330 -0.4229
30385SOL    HW293788   5.514   2.243   3.726  0.7424 -0.8516  2.7495
30386SOL     OW93789   7.193   9.254   7.290 -0.0518  0.4986  0.4047
30386SOL    HW193790   7.233   9.168   7.272 -1.5152 -0.2886  0.7342
30386SOL    HW293791   7.127   9.235   7.357 -2.3575  1.3410 -1.5031
30387SOL     OW93792   2.495   8.510   9.935 -0.0597 -0.4033  0.3127
30387SOL    HW193793   2.569   8.561   9.968  1.1798 -1.0532 -1.2977
30387SOL    HW293794   2.533   8.424   9.914 -1.3418 -0.8686 -0.2159
30388SOL     OW93795   3.479   6.825  10.000 -0.0697  0.0544 -0.2984
30388SOL    HW193796   3.569   6.849   9.979  0.3068  0.6293  1.7612
30388SOL    HW293797   3.481   6.729  10.008  0.0204 -0.0715 -1.5453
30389SOL     OW93798   7.427   1.596   3.857 -0.5730  0.2202 -0.2434
30389SOL    HW193799   7.374   1.619   3.933  0.4132  1.3125  0.1564
30389SOL    HW293800   7.514   1.580   3.894 -0.3427 -0.3508 -1.0211
30390SOL     OW93801   5.454   0.668   1.821 -0.2991 -0.5159 -0.0436
30390SOL    HW193802   5.361   0.689   1.809 -0.2900 -0.7411 -0.5256
30390SOL    HW293803   5.454   0.577   1.849 -0.3463  0.1080  2.1951
30391SOL     OW93804   7.564   6.869   8.791  0.4396 -0.5661  0.5819
30391SOL    HW193805   7.531   6.779   8.800 -3.0489  0.4033 -0.7708
30391SOL    HW293806   7.623   6.880   8.865 -0.0738 -3.5372  1.5798
30392SOL     OW93807   1.511   2.444   8.828 -0.2017 -0.3377 -0.0378
30392SOL    HW193808   1.479   2.521   8.875  0.8365 -1.6021  3.0353
30392SOL    HW293809   1.463   2.444   8.745 -0.9503  3.0086  0.2646
30393SOL     OW93810   9.511   9.185   9.604 -0.1457  0.1248 -0.7413
30393SOL    HW193811   9.451   9.121   9.642 -0.8634 -0.2270 -2.4037
30393SOL    HW293812   9.491   9.184   9.511 -0.1963  2.7827 -0.8279
30394SOL     OW93813   7.843   2.600   6.250  0.3629 -0.0670  0.0184
30394SOL    HW193814   7.840   2.596   6.345  2.7820 -0.2040  0.1486
30394SOL    HW293815   7.868   2.690   6.230 -2.0524  0.5323 -0.6349
30395SOL     OW93816   8.958   0.004   4.517 -0.2276 -0.3713 -0.0891
30395SOL    HW193817   9.009   0.070   4.566 -1.2499  0.6385 -0.3537
30395SOL    HW293818   8.910  -0.044   4.585 -1.1120  0.5745 -0.0191
30396SOL     OW93819   8.555   1.127   8.744  0.0336 -0.0125  0.1551
30396SOL    HW193820   8.566   1.039   8.779  1.2638  0.1570  0.2500
30396SOL    HW293821   8.462   1.134   8.724 -0.3461 -0.8116  1.5441
30397SOL     OW93822   5.082   9.314   8.509 -0.1301 -0.1833  0.1115
30397SOL    HW193823   5.062   9.266   8.428  1.3876  0.1129 -0.4764
30397SOL    HW293824   5.036   9.265   8.578 -0.4200 -1.1757 -0.7567
30398SOL     OW93825   7.866   3.678   3.115  0.9162 -0.7191 -0.6524
30398SOL    HW193826   7.940   3.737   3.108  0.6741 -0.3507 -0.1886
30398SOL    HW293827   7.789   3.733   3.102  0.7081 -1.0437 -0.8331
30399SOL     OW93828  10.214   1.654   5.968  0.0887 -0.2042  0.0037
30399SOL    HW193829  10.201   1.666   5.873  3.7161 -0.2668 -0.6172
30399SOL    HW293830  10.194   1.740   6.006  1.4437  0.6949 -1.2274
30400SOL     OW93831   7.565   2.919   2.099  0.2160  0.3308  0.3713
30400SOL    HW193832   7.646   2.944   2.142  0.1012 -0.4733  1.0773
30400SOL    HW293833   7.589   2.843   2.045  0.0944  0.5607 -0.0062
30401SOL     OW93834   4.082   1.796   9.167 -0.4455 -0.0907  0.2349
30401SOL    HW193835   4.045   1.805   9.079  0.2390 -0.9229 -0.1477
30401SOL    HW293836   4.174   1.777   9.152 -0.8152 -2.9600  1.0273
30402SOL     OW93837   8.306   6.697   6.095  0.0833  0.0985  0.1884
30402SOL    HW193838   8.226   6.750   6.097  0.7802  1.2389  3.4909
30402SOL    HW293839   8.278   6.609   6.117 -0.3138  0.4215  0.9773
30403SOL     OW93840   3.381   7.841   6.991  0.4195  0.1276  0.4783
30403SOL    HW193841   3.369   7.935   7.003 -0.1840 -0.1700  2.6547
30403SOL    HW293842   3.473   7.826   7.012 -0.0399 -0.0385  2.5787
30404SOL     OW93843   7.223   7.159   8.994  0.1939 -0.3573  0.4025
30404SOL    HW193844   7.295   7.117   9.041 -0.7682 -3.8274 -0.9534
30404SOL    HW293845   7.266   7.221   8.936  1.8659 -0.4665  1.4391
30405SOL     OW93846   2.527   2.493   5.269  0.1472  0.0808 -0.4748
30405SOL    HW193847   2.463   2.501   5.199 -1.8810 -0.9550  1.1487
30405SOL    HW293848   2.566   2.580   5.276 -0.7341  0.6117 -1.8397
30406SOL     OW93849   7.169   3.741   1.882  0.3261 -0.1181  0.2892
30406SOL    HW193850   7.213   3.706   1.960 -0.2068  0.2307  0.7537
30406SOL    HW293851   7.215   3.823   1.864  1.4740 -0.9352 -0.7083
30407SOL     OW93852   8.681   5.311   7.978 -0.0122  0.2822 -0.2138
30407SOL    HW193853   8.745   5.309   7.907  0.4675 -0.6989  0.2199
30407SOL    HW293854   8.682   5.222   8.014 -0.0757  0.8055  1.1647
30408SOL     OW93855   8.092   4.865   3.454 -1.1517  0.0048 -0.1512
30408SOL    HW193856   8.170   4.902   3.496 -0.7093  0.1639 -1.0760
30408SOL    HW293857   8.045   4.821   3.524  1.3562 -2.8447 -0.1000
30409SOL     OW93858   4.401   5.599   4.618  0.3278 -0.2294  0.2123
30409SOL    HW193859   4.345   5.527   4.647  0.2242 -0.3343 -0.2486
30409SOL    HW293860   4.490   5.571   4.642  0.7835 -2.1796 -3.1071
30410SOL     OW93861   5.817   9.079   0.036 -0.1024  0.1455  0.0756
30410SOL    HW193862   5.825   9.138  -0.039 -0.0500  1.7198  1.2510
30410SOL    HW293863   5.846   8.994   0.003  3.9900  1.5802 -0.7091
30411SOL     OW93864   2.251   7.665   4.181  0.0319 -0.0027  0.3171
30411SOL    HW193865   2.190   7.600   4.217 -1.1171  0.7779 -0.1609
30411SOL    HW293866   2.329   7.657   4.235 -0.9085 -0.2426  1.7054
30412SOL     OW93867   2.610   9.424   3.397  0.4241  0.1471  0.1587
30412SOL    HW193868   2.561   9.461   3.471 -0.8769 -0.9390 -0.1196
30412SOL    HW293869   2.551   9.359   3.360  2.1336 -1.2826 -0.1701
30413SOL     OW93870   7.019   1.539   1.597  0.1117  0.1537  0.4999
30413SOL    HW193871   6.984   1.501   1.678  1.1016 -1.6297  0.1373
30413SOL    HW293872   6.962   1.613   1.580 -1.9690 -1.1701  1.2570
30414SOL     OW93873   5.186   3.055   7.401 -0.2157 -0.1339 -0.1652
30414SOL    HW193874   5.092   3.063   7.382  0.0610  0.6949 -1.3861
30414SOL    HW293875   5.224   3.136   7.365  0.6171  0.9754  2.8993
30415SOL     OW93876   6.617   9.669   4.584  0.5996 -0.7041 -0.2446
30415SOL    HW193877   6.654   9.621   4.509  0.9285 -1.5818  0.4506
30415SOL    HW293878   6.646   9.619   4.660  0.9531  0.6252  0.5221
30416SOL     OW93879   6.947   9.487   8.677 -0.3160  0.5258  0.4876
30416SOL    HW193880   7.017   9.450   8.730  0.2497 -0.3876 -0.8439
30416SOL    HW293881   6.922   9.567   8.723  0.4343 -0.0050  1.8799
30417SOL     OW93882   0.933   5.130   1.043  0.2307 -0.3950  0.0167
30417SOL    HW193883   0.843   5.163   1.046 -0.0388 -1.1315  0.3466
30417SOL    HW293884   0.986   5.202   1.076 -0.4520 -0.6351  1.7361
30418SOL     OW93885   1.630   4.466   0.239 -0.0838  0.0252 -0.5842
30418SOL    HW193886   1.676   4.466   0.323 -1.1921 -2.0384  0.0799
30418SOL    HW293887   1.693   4.502   0.177  1.9760 -1.4607  0.5368
30419SOL     OW93888   8.883   8.183   4.875  0.4595 -0.6416 -0.1059
30419SOL    HW193889   8.804   8.192   4.823  0.5479 -1.0300 -0.3056
30419SOL    HW293890   8.951   8.225   4.823  0.3308 -0.0471  0.1973
30420SOL     OW93891   6.712   0.905   9.263  0.0561 -0.2572 -0.6513
30420SOL    HW193892   6.653   0.970   9.224 -0.4280 -1.1909 -1.5313
30420SOL    HW293893   6.709   0.923   9.357 -1.2941  0.0042 -0.7165
30421SOL     OW93894   5.042   4.435   9.897 -0.4900  0.0137 -0.0525
30421SOL    HW193895   5.065   4.509   9.952 -0.8428  0.8903 -1.0373
30421SOL    HW293896   4.981   4.472   9.832 -1.3477 -1.3284 -0.0393
30422SOL     OW93897   1.319   2.223   5.543 -0.3420  0.5075  0.3107
30422SOL    HW193898   1.411   2.233   5.518 -0.0135 -0.9248  0.8588
30422SOL    HW293899   1.294   2.309   5.578  1.1520  0.5635  1.3109
30423SOL     OW93900   3.269   6.510   3.623 -0.6293  0.1034 -0.0395
30423SOL    HW193901   3.285   6.568   3.548  0.4608  0.1452  0.2012
30423SOL    HW293902   3.278   6.422   3.588  2.4745  0.0909  0.4614
30424SOL     OW93903   0.647   4.633   2.175  0.5521 -0.3301  0.2473
30424SOL    HW193904   0.706   4.685   2.121  1.0398 -0.4257  0.6831
30424SOL    HW293905   0.595   4.698   2.222 -1.4635 -0.1917 -1.9591
30425SOL     OW93906   4.567   2.061   2.492  0.2381  0.2569  0.2118
30425SOL    HW193907   4.589   2.123   2.561  0.2286  2.7996 -1.9319
30425SOL    HW293908   4.650   2.042   2.449  0.3639 -1.8864  1.2687
30426SOL     OW93909   1.684   3.100   6.154  0.8886  0.4512 -0.5606
30426SOL    HW193910   1.615   3.162   6.175 -1.2581 -1.6799 -0.9831
30426SOL    HW293911   1.756   3.124   6.214  0.3306  3.4515 -0.9042
30427SOL     OW93912   7.766   5.398   7.171  0.3118  0.3046  0.6875
30427SOL    HW193913   7.816   5.398   7.089  0.5571 -2.1376  0.7677
30427SOL    HW293914   7.799   5.473   7.219  1.0273  1.0887 -0.9404
30428SOL     OW93915   4.528   3.201   0.014 -0.0239 -0.7299 -0.5714
30428SOL    HW193916   4.445   3.203  -0.034  0.1647 -0.3135 -0.8853
30428SOL    HW293917   4.517   3.131   0.078 -2.0556  1.6420  1.9311
30429SOL     OW93918  10.097   3.830  10.008 -0.3026  0.1749 -0.6930
30429SOL    HW193919  10.173   3.771  10.008  0.2140  0.6919 -3.3686
30429SOL    HW293920  10.113   3.890  10.080  1.2207 -0.4695 -0.4526
30430SOL     OW93921   3.082   0.952   8.394 -0.9499  0.4869 -0.0357
30430SOL    HW193922   3.016   0.969   8.328  0.2418  3.3433 -0.6454
30430SOL    HW293923   3.159   0.923   8.345 -1.1585 -1.0377  0.4945
30431SOL     OW93924   0.329   2.736   3.652  0.3063 -0.4160 -0.3095
30431SOL    HW193925   0.359   2.787   3.577 -1.5622 -0.3751 -1.0866
30431SOL    HW293926   0.265   2.676   3.616  0.0930 -1.0782  1.1179
30432SOL     OW93927   4.741   7.769   0.325 -0.0916 -0.5328  0.9002
30432SOL    HW193928   4.830   7.780   0.291  0.0322  1.1132  1.6781
30432SOL    HW293929   4.726   7.675   0.322  1.4254 -0.7854  0.1402
30433SOL     OW93930   5.132   9.287   2.608 -0.4323 -0.3533  0.6529
30433SOL    HW193931   5.226   9.305   2.602 -0.5547  0.1759  0.1868
30433SOL    HW293932   5.102   9.289   2.517 -0.9429 -0.2440  0.8226
30434SOL     OW93933   5.115   4.847   4.200  0.1594 -0.3773  0.0305
30434SOL    HW193934   5.150   4.911   4.137  1.0725 -1.2778 -0.4032
30434SOL    HW293935   5.103   4.898   4.281  1.1588  0.2910 -0.2191
30435SOL     OW93936   5.217   8.705   0.864 -0.0337 -0.1965  0.3991
30435SOL    HW193937   5.279   8.766   0.825 -2.2907  0.9307 -1.7218
30435SOL    HW293938   5.134   8.754   0.868 -1.0635 -1.9270  2.1543
30436SOL     OW93939   9.676   1.024   7.060 -0.0310 -0.3204 -0.0487
30436SOL    HW193940   9.622   1.083   7.113  0.3159  0.4822 -0.5872
30436SOL    HW293941   9.664   0.938   7.101 -0.5492  0.1155  0.7301
30437SOL     OW93942   0.369   5.970  10.039  0.0353  0.9700  0.2291
30437SOL    HW193943   0.440   5.908  10.057  0.0396  1.4876  2.2132
30437SOL    HW293944   0.408   6.056  10.051 -0.9204  1.2603  1.4960
30438SOL     OW93945   8.037   0.417   4.210  0.2673  0.1208  0.3041
30438SOL    HW193946   7.955   0.455   4.178 -0.2985 -1.0393  0.2920
30438SOL    HW293947   8.104   0.448   4.149 -0.0138  1.7489  0.7991
30439SOL     OW93948   1.285   4.766   6.321  0.3380  0.0760  0.3145
30439SOL    HW193949   1.374   4.784   6.349  0.7866  0.5366 -1.2964
30439SOL    HW293950   1.273   4.672   6.337  1.5296 -0.2364 -0.5018
30440SOL     OW93951   0.940   7.389   7.933 -0.5876  0.4284  0.2739
30440SOL    HW193952   1.002   7.360   7.867 -0.1428  1.0711  0.3919
30440SOL    HW293953   0.983   7.465   7.973 -0.7768 -0.0427  1.4000
30441SOL     OW93954   1.678  10.025   6.580  0.2526 -0.4967  0.2752
30441SOL    HW193955   1.663   9.936   6.611 -2.4537  0.1586  1.1355
30441SOL    HW293956   1.630  10.030   6.497 -0.1743  0.3059  0.5563
30442SOL     OW93957   9.561   7.301   7.973  0.5243  0.6833 -0.0048
30442SOL    HW193958   9.638   7.248   7.990  0.7645  1.7258  2.5385
30442SOL    HW293959   9.583   7.353   7.896  1.7449 -0.1174 -0.2122
30443SOL     OW93960   6.798   3.107   3.917 -0.2240  0.1107  0.2759
30443SOL    HW193961   6.777   3.018   3.890  1.6558 -0.1246 -0.5038
30443SOL    HW293962   6.811   3.102   4.011 -1.3597 -0.1543  0.4397
30444SOL     OW93963   3.381   2.592   6.853  0.0021  0.4069 -0.0987
30444SOL    HW193964   3.306   2.550   6.896 -0.5762  2.5650  1.1107
30444SOL    HW293965   3.370   2.570   6.760 -0.7933 -1.2394  0.3358
30445SOL     OW93966   1.753   7.581   0.828 -0.1546  0.0040  0.8092
30445SOL    HW193967   1.712   7.667   0.829 -1.8789 -0.6671 -1.6744
30445SOL    HW293968   1.681   7.519   0.842  0.7786 -1.0732  1.0108
30446SOL     OW93969   8.013   7.925   9.360  0.1982  0.1023 -0.9239
30446SOL    HW193970   8.007   7.870   9.439  0.2087  2.5257  0.8629
30446SOL    HW293971   7.925   7.962   9.350  0.2963  0.1030 -1.8629
30447SOL     OW93972   2.299   8.705   4.690 -0.6943  0.0564  0.4367
30447SOL    HW193973   2.371   8.769   4.693  0.4277 -0.9939 -1.8970
30447SOL    HW293974   2.341   8.621   4.706 -1.4786 -0.5172 -0.4201
30448SOL     OW93975  10.037   9.163   3.940 -0.1472 -0.0330 -0.3379
30448SOL    HW193976  10.098   9.121   4.000 -1.1448 -0.2513  0.5556
30448SOL    HW293977   9.988   9.224   3.994  0.2825  1.2426 -1.3362
30449SOL     OW93978   8.121   2.861   3.210  0.1025 -0.0060 -0.2539
30449SOL    HW193979   8.046   2.867   3.269 -0.4406 -1.9460 -0.6776
30449SOL    HW293980   8.083   2.865   3.122  0.3455 -1.7742 -0.4821
30450SOL     OW93981   9.421   9.196   6.654  0.4318  0.2315  0.2785
30450SOL    HW193982   9.406   9.248   6.733  0.6224  0.9803 -0.1671
30450SOL    HW293983   9.372   9.241   6.585 -0.5544 -0.9681  0.1518
30451SOL     OW93984   2.507   8.938   4.350  0.0950 -0.4581  0.2860
30451SOL    HW193985   2.426   8.961   4.303  0.1431 -0.0524  0.3977
30451SOL    HW293986   2.558   8.887   4.286 -0.5917 -1.4224  0.4830
30452SOL     OW93987   2.590   4.885   5.493  0.1407 -0.0681 -0.4944
30452SOL    HW193988   2.579   4.865   5.586  1.6653  0.7640 -0.0938
30452SOL    HW293989   2.501   4.897   5.460 -0.4162 -0.1249  0.9153
30453SOL     OW93990   8.756   2.197  10.126  0.1567  0.1030 -0.2490
30453SOL    HW193991   8.849   2.183  10.109  0.5097  2.1292 -0.1608
30453SOL    HW293992   8.753   2.270  10.188 -1.4723 -0.5472  0.4908
30454SOL     OW93993   3.130   2.590   5.181 -0.1769 -0.4679  0.1172
30454SOL    HW193994   3.074   2.661   5.150  0.7982  0.2077 -0.1470
30454SOL    HW293995   3.069   2.520   5.205 -1.1930  0.6318  0.8730
30455SOL     OW93996   3.666   5.535   2.665  0.4817 -0.4139 -0.0535
30455SOL    HW193997   3.713   5.524   2.582  0.9909 -2.8250  0.4829
30455SOL    HW293998   3.581   5.494   2.649  0.1184  0.2001  0.2705
30456SOL     OW93999   0.054   1.817   3.498  0.2083  0.1108  0.6504
30456SOL    HW194000   0.089   1.900   3.531 -0.3513 -0.0895  1.7901
30456SOL    HW294001   0.127   1.756   3.505  0.6252  0.4780 -0.1967
30457SOL     OW94002   5.396   2.937   0.965  0.1699 -0.1399  0.0765
30457SOL    HW194003   5.346   3.006   1.009 -0.3840  1.0250 -2.2552
30457SOL    HW294004   5.413   2.873   1.034 -2.5462  0.5045  1.4755
30458SOL     OW94005   9.638   5.933   1.513  0.3904 -0.1794 -0.0734
30458SOL    HW194006   9.570   5.866   1.518 -2.0749  2.2578  3.2805
30458SOL    HW294007   9.617   5.983   1.434 -1.8848  0.5238  0.8920
30459SOL     OW94008   3.402   3.412   8.895 -0.0904  0.0992 -0.1764
30459SOL    HW194009   3.324   3.372   8.856 -0.5912  1.4826 -0.6345
30459SOL    HW294010   3.368   3.483   8.949  0.7286 -0.6682  1.4071
30460SOL     OW94011   1.007   2.086   9.276 -0.7299  0.3916  0.3350
30460SOL    HW194012   0.916   2.063   9.296 -1.0627  0.6194 -0.8274
30460SOL    HW294013   1.022   2.167   9.324 -0.8691 -0.0861  1.1989
30461SOL     OW94014   5.720   3.029   1.236  0.3205  0.2934  0.5152
30461SOL    HW194015   5.686   2.986   1.314  0.3298  0.0870  0.4060
30461SOL    HW294016   5.653   3.013   1.169 -0.5100  1.9035  0.9121
30462SOL     OW94017   3.164   0.437   0.400 -0.2583  0.0101 -0.2688
30462SOL    HW194018   3.251   0.459   0.436 -0.5034  0.0878  0.2963
30462SOL    HW294019   3.103   0.480   0.460 -0.6887 -0.0726 -0.6472
30463SOL     OW94020   5.298   9.572   7.739  0.0290 -0.1089  0.0910
30463SOL    HW194021   5.266   9.654   7.703  0.7816  0.0175 -0.3047
30463SOL    HW294022   5.374   9.596   7.791  1.1221 -0.7062 -1.1833
30464SOL     OW94023   8.753   7.659  10.247  0.1929 -0.7111 -0.6759
30464SOL    HW194024   8.678   7.708  10.213 -1.0759  0.2542  2.9575
30464SOL    HW294025   8.723   7.568  10.251  0.0008 -0.6703 -1.2174
30465SOL     OW94026   1.018   0.871   1.686 -0.2204 -0.2136  0.5758
30465SOL    HW194027   1.001   0.854   1.779 -0.0760  2.2285  1.1190
30465SOL    HW294028   0.932   0.896   1.651 -0.1979 -0.7448  0.1426
30466SOL     OW94029   6.121   0.943   9.214 -0.2234 -0.1186 -0.4308
30466SOL    HW194030   6.118   0.987   9.129 -0.0920 -0.8947 -0.8468
30466SOL    HW294031   6.196   0.884   9.208  0.4783  0.6321  0.6408
30467SOL     OW94032   4.093   2.570   2.720  0.2860  0.5871 -0.3117
30467SOL    HW194033   4.076   2.551   2.628  1.5018 -0.0779 -0.4208
30467SOL    HW294034   4.126   2.660   2.720  1.4124  0.1963 -0.6941
30468SOL     OW94035   6.501   1.121   4.523 -0.1486  0.0648  0.2144
30468SOL    HW194036   6.570   1.055   4.530  1.0510  1.2580 -0.0546
30468SOL    HW294037   6.527   1.190   4.583 -0.3432  1.1929 -0.9644
30469SOL     OW94038   7.665   8.428   5.803 -0.2978 -0.0627 -0.0180
30469SOL    HW194039   7.735   8.434   5.737  0.4231 -0.6692  0.6627
30469SOL    HW294040   7.588   8.400   5.753  0.6537 -2.2581 -0.4035
30470SOL     OW94041   6.715   9.103   4.040  0.1302 -0.4655 -0.3193
30470SOL    HW194042   6.794   9.134   3.996 -0.4433 -0.9143 -1.7228
30470SOL    HW294043   6.668   9.053   3.973 -0.8131 -1.1332  0.7974
30471SOL     OW94044   9.150   7.389   0.954  0.0807  0.0620  0.5489
30471SOL    HW194045   9.216   7.441   0.910  2.5277 -0.4706  3.2553
30471SOL    HW294046   9.074   7.447   0.962  0.7300  1.2359 -1.3085
30472SOL     OW94047   9.752   4.645   9.746 -0.2015  0.0820 -0.3597
30472SOL    HW194048   9.742   4.575   9.681 -0.3491  0.4375 -0.7212
30472SOL    HW294049   9.766   4.724   9.694 -0.6905  0.4310  0.0362
30473SOL     OW94050   5.323   4.166   1.127  0.1890 -0.3566  0.1840
30473SOL    HW194051   5.284   4.222   1.061  0.5526  0.1404  0.3791
30473SOL    HW294052   5.418   4.174   1.113  0.2508 -0.7321  0.3652
30474SOL     OW94053   3.513   1.007   9.766 -0.7918  0.4885 -0.5289
30474SOL    HW194054   3.604   1.018   9.794 -0.9614 -0.3072  0.3809
30474SOL    HW294055   3.493   0.916   9.786 -1.4919  0.3836 -1.6442
30475SOL     OW94056   8.221   4.465   7.790 -0.7507 -0.3562  0.1722
30475SOL    HW194057   8.286   4.399   7.815 -1.1456 -0.3443  1.3242
30475SOL    HW294058   8.213   4.521   7.868 -0.5577  0.9544 -0.7145
30476SOL     OW94059   9.292   4.046   3.680 -0.1780 -0.0551 -0.2919
30476SOL    HW194060   9.372   4.086   3.647 -0.2995  0.4058 -0.0279
30476SOL    HW294061   9.257   4.109   3.742 -0.6482 -0.3391 -0.2638
30477SOL     OW94062   9.674   3.264   6.591 -0.3745  0.3818 -0.2604
30477SOL    HW194063   9.754   3.314   6.580 -1.4709  1.7734 -2.7608
30477SOL    HW294064   9.621   3.315   6.652  0.9507 -1.0914  2.2800
30478SOL     OW94065   8.233   2.268   4.278  0.4473  0.2307 -0.1486
30478SOL    HW194066   8.143   2.292   4.300  0.3225  1.0928 -1.4803
30478SOL    HW294067   8.246   2.302   4.190  1.6393 -1.0913 -0.5214
30479SOL     OW94068   2.711  10.330   8.698  0.0670 -0.0386  0.5528
30479SOL    HW194069   2.677  10.257   8.646  1.1199  1.0985 -1.8441
30479SOL    HW294070   2.799  10.302   8.724 -0.3105 -0.4428  1.4393
30480SOL     OW94071   9.943   9.822   2.302 -0.1669  0.2500  0.7950
30480SOL    HW194072  10.031   9.831   2.337  0.0708 -0.7589  0.4715
30480SOL    HW294073   9.954   9.828   2.207 -0.5215  0.6594  0.7726
30481SOL     OW94074   8.120   0.130   3.479 -0.2670  0.2015 -0.7655
30481SOL    HW194075   8.033   0.170   3.483 -0.5892 -0.5602  0.7230
30481SOL    HW294076   8.171   0.178   3.545 -0.2183 -0.8079 -0.0525
30482SOL     OW94077   2.692   6.776   0.515 -0.1688  0.4633 -0.2423
30482SOL    HW194078   2.743   6.694   0.509  1.2528  1.2289  0.7587
30482SOL    HW294079   2.721   6.827   0.440  1.0395  1.1411  0.6549
30483SOL     OW94080   4.933   4.142   8.101  0.5624 -0.5854 -0.1746
30483SOL    HW194081   4.965   4.125   8.189  1.2689  0.9179 -0.1189
30483SOL    HW294082   5.004   4.111   8.044  0.2372 -1.2669 -0.2246
30484SOL     OW94083   1.137   8.769   8.003 -0.4187  0.1715 -0.3078
30484SOL    HW194084   1.201   8.721   7.951 -0.1181  0.4496 -0.1995
30484SOL    HW294085   1.138   8.857   7.966  0.0659  0.4705  0.3954
30485SOL     OW94086   8.319   6.172   5.141  0.2167 -0.0928 -0.0486
30485SOL    HW194087   8.408   6.204   5.126 -0.0895  0.7524 -0.0856
30485SOL    HW294088   8.331   6.079   5.159  0.8520 -0.6971 -2.9746
30486SOL     OW94089   4.226   9.427   2.124 -0.5733  0.1228  0.3854
30486SOL    HW194090   4.235   9.412   2.030 -1.8998 -1.1951  0.4296
30486SOL    HW294091   4.283   9.501   2.142  0.0171  0.1446 -1.3857
30487SOL     OW94092   5.506   7.313   0.239  0.1525  0.2713 -0.0752
30487SOL    HW194093   5.529   7.262   0.161 -1.2917 -0.8458  0.1870
30487SOL    HW294094   5.548   7.266   0.311  1.0466  1.0059 -0.0949
30488SOL     OW94095   4.289   9.236   3.119  0.8818  0.2397  0.3854
30488SOL    HW194096   4.327   9.153   3.089  0.4051  0.5597 -1.1985
30488SOL    HW294097   4.198   9.215   3.137  0.2399  0.7697 -1.9014
30489SOL     OW94098   2.861   7.907   3.659 -0.9296  0.0833  0.4645
30489SOL    HW194099   2.838   7.954   3.578 -1.4385  1.1591  1.2202
30489SOL    HW294100   2.950   7.936   3.679 -0.4335 -0.9093 -0.1993
30490SOL     OW94101   8.392   3.027   4.019 -0.1701  0.8638  0.3570
30490SOL    HW194102   8.361   3.118   4.023  1.7993  1.8360 -2.5569
30490SOL    HW294103   8.328   2.982   3.966 -0.2685  0.9830  0.3725
30491SOL     OW94104   8.916   8.120   1.201  0.1170  0.4063 -0.0402
30491SOL    HW194105   8.992   8.063   1.194  0.0857  0.4180 -0.5149
30491SOL    HW294106   8.937   8.196   1.148 -1.1389 -0.6122 -2.1101
30492SOL     OW94107   6.967   8.514   5.636  0.3445 -0.6580 -0.2565
30492SOL    HW194108   6.948   8.459   5.713  0.6831  0.2279  0.4794
30492SOL    HW294109   7.005   8.453   5.573 -0.7301 -1.5782 -0.0668
30493SOL     OW94110   1.659   5.722   9.838  0.0938  0.1468  0.5918
30493SOL    HW194111   1.665   5.741   9.745 -0.6234 -0.9804  0.2889
30493SOL    HW294112   1.749   5.710   9.866  0.2444 -1.3177 -0.3912
30494SOL     OW94113   1.683   8.248   4.049 -0.1365  0.3120 -0.3101
30494SOL    HW194114   1.775   8.224   4.035  0.0418  1.3846 -1.1315
30494SOL    HW294115   1.679   8.341   4.026 -1.3684  0.3535  0.0050
30495SOL     OW94116   3.814   8.809   1.437  0.1019  0.0722  0.5967
30495SOL    HW194117   3.866   8.829   1.360 -1.3474 -1.4380 -0.8734
30495SOL    HW294118   3.878   8.787   1.505  1.4161 -0.7116 -0.8337
30496SOL     OW94119   8.016   1.409   6.267  0.4622  0.0661  0.5409
30496SOL    HW194120   8.008   1.462   6.188  0.9484  0.6599  0.8770
30496SOL    HW294121   7.994   1.469   6.338 -1.1247 -0.7726  0.7871
30497SOL     OW94122   8.571   3.704   6.467  0.4635 -0.8105 -0.2471
30497SOL    HW194123   8.660   3.727   6.494 -0.8188  2.3641  1.8309
30497SOL    HW294124   8.573   3.709   6.371  2.2873  0.2664 -0.2068
30498SOL     OW94125   2.794   3.971   0.678 -0.3268 -0.1217 -0.9061
30498SOL    HW194126   2.791   3.896   0.738  1.5720  0.7181  0.3256
30498SOL    HW294127   2.740   4.038   0.719  0.2367  0.1393 -0.5859
30499SOL     OW94128   9.945   0.212   3.296 -0.3612  0.3126 -0.0543
30499SOL    HW194129  10.002   0.239   3.224  0.8472 -0.4006  0.5977
30499SOL    HW294130   9.947   0.285   3.357 -2.0397  1.2701 -1.0566
30500SOL     OW94131   0.441   2.087   7.619  0.1854  0.6410 -0.5398
30500SOL    HW194132   0.414   2.178   7.608  0.2185  0.5136 -1.8907
30500SOL    HW294133   0.443   2.052   7.530 -2.1284 -1.3501  0.0944
30501SOL     OW94134   9.260   5.767   8.798  0.5367 -0.8088 -0.1991
30501SOL    HW194135   9.317   5.760   8.722 -0.5881 -0.5801 -1.0826
30501SOL    HW294136   9.240   5.860   8.806  0.5835 -0.8384  0.3383
30502SOL     OW94137   9.657   6.346   0.569  0.2291  0.0545  0.4966
30502SOL    HW194138   9.605   6.421   0.541  1.5152  2.8758  4.6115
30502SOL    HW294139   9.602   6.301   0.633  0.6733 -0.5571  0.4602
30503SOL     OW94140   7.540   4.280   2.779 -0.0327  0.1421  0.0667
30503SOL    HW194141   7.571   4.190   2.769 -0.7301 -0.0652 -0.3751
30503SOL    HW294142   7.563   4.303   2.869  1.0312 -0.1223 -0.1208
30504SOL     OW94143   8.055   8.632   7.497 -0.4390  0.4699 -0.3025
30504SOL    HW194144   8.025   8.573   7.428 -2.1260  0.3651  0.4675
30504SOL    HW294145   8.145   8.654   7.473 -1.0540  0.6763 -2.6883
30505SOL     OW94146   0.676   1.853   4.719  0.1423  0.5785  0.3874
30505SOL    HW194147   0.636   1.935   4.691 -0.0165  0.4629  0.2657
30505SOL    HW294148   0.770   1.865   4.703  0.0576  0.5199 -0.1955
30506SOL     OW94149   7.635   7.031   0.851 -0.0887 -0.4928 -0.1878
30506SOL    HW194150   7.665   7.103   0.796 -0.4586 -0.3604 -0.2176
30506SOL    HW294151   7.572   7.070   0.911  0.5477 -0.5754  0.5506
30507SOL     OW94152   9.661   9.820   1.603  0.2015  0.5987 -0.5555
30507SOL    HW194153   9.627   9.734   1.579 -0.4072  1.2293 -2.1334
30507SOL    HW294154   9.688   9.859   1.520  0.8842  1.7604  0.1818
30508SOL     OW94155   5.221  10.231   3.091 -0.1894  0.0616 -0.2075
30508SOL    HW194156   5.250  10.176   3.164  0.1916  0.3416 -0.1424
30508SOL    HW294157   5.146  10.185   3.054 -1.4233  0.6882  1.3713
30509SOL     OW94158   0.049   4.968   8.077 -0.1873  0.0918 -0.0537
30509SOL    HW194159  -0.005   4.982   8.155  0.1461  0.7812  0.0666
30509SOL    HW294160   0.065   5.057   8.043 -0.7915 -0.2228 -1.2311
30510SOL     OW94161   9.685   5.422   7.999 -0.3312  0.2937 -0.3386
30510SOL    HW194162   9.607   5.395   8.048  0.1899 -2.2166 -0.7325
30510SOL    HW294163   9.756   5.420   8.063 -0.1758  0.0217 -0.5141
30511SOL     OW94164   3.415   6.719   2.866 -0.0370 -0.3463 -0.2384
30511SOL    HW194165   3.509   6.721   2.884  0.2208  0.7772 -1.5261
30511SOL    HW294166   3.386   6.809   2.879 -0.6196 -0.3691 -1.2955
30512SOL     OW94167   7.844   1.100   3.291 -0.5571 -0.2272  0.1355
30512SOL    HW194168   7.900   1.025   3.311 -1.1641 -0.7901 -0.2409
30512SOL    HW294169   7.758   1.062   3.276 -0.7040  0.4656 -0.8532
30513SOL     OW94170   3.141   8.961   1.309 -0.1865 -0.2933  0.4193
30513SOL    HW194171   3.165   8.953   1.217 -2.4491 -0.8828 -0.1582
30513SOL    HW294172   3.225   8.965   1.355  0.9920  0.8464 -1.7079
30514SOL     OW94173   0.693   7.067   4.601 -0.3141 -0.3805  0.2089
30514SOL    HW194174   0.721   7.126   4.671  0.4664 -0.8238  0.2874
30514SOL    HW294175   0.710   7.116   4.520  0.4723 -0.5444  0.2673
30515SOL     OW94176   0.227   0.824   1.295 -0.2800 -0.3920  0.2768
30515SOL    HW194177   0.198   0.912   1.318 -0.1746  0.2027 -1.6435
30515SOL    HW294178   0.189   0.808   1.209 -0.1706 -2.1821  0.5283
30516SOL     OW94179   0.163   1.035   9.167 -0.1845 -0.4812  0.0468
30516SOL    HW194180   0.238   0.978   9.152  0.6993  0.8125 -0.6243
30516SOL    HW294181   0.145   1.028   9.261  0.1039 -1.5861  0.0355
30517SOL     OW94182   0.708   1.689   0.455 -0.3478 -0.4071  0.3151
30517SOL    HW194183   0.622   1.720   0.484  0.1309  1.7404 -0.3529
30517SOL    HW294184   0.699   1.594   0.450 -2.7286 -0.2416  0.1423
30518SOL     OW94185   6.346   9.646   8.387  0.5260  0.2820 -0.3861
30518SOL    HW194186   6.291   9.576   8.351 -0.3788  0.0694  1.3258
30518SOL    HW294187   6.423   9.602   8.421  0.2784  0.1941  0.0652
30519SOL     OW94188   6.860   7.671   7.452 -0.5743 -0.9486 -0.0869
30519SOL    HW194189   6.869   7.578   7.472 -0.3662 -0.7192  0.9480
30519SOL    HW294190   6.827   7.710   7.533  0.9229  0.1313  0.0488
30520SOL     OW94191   2.963   2.178   7.582 -0.2185 -0.8443  0.3467
30520SOL    HW194192   2.900   2.188   7.653  0.3751  0.5186  0.7279
30520SOL    HW294193   3.042   2.145   7.624 -0.4536 -1.8852 -0.0121
30521SOL     OW94194   4.657  10.262   2.341 -0.1527 -0.1770 -0.3182
30521SOL    HW194195   4.692  10.301   2.421  0.2690  0.8558 -0.9878
30521SOL    HW294196   4.569  10.234   2.365 -0.6843  1.6861  0.0553
30522SOL     OW94197   5.342   5.944   9.566 -0.1769 -0.2471  0.5359
30522SOL    HW194198   5.385   6.029   9.559  1.3536 -0.8930  1.6024
30522SOL    HW294199   5.382   5.891   9.497  1.2042 -1.0108  1.8682
30523SOL     OW94200   8.188   3.482   2.199 -0.3694 -0.4001 -0.3143
30523SOL    HW194201   8.172   3.476   2.293  0.3467  0.4402 -0.1325
30523SOL    HW294202   8.264   3.540   2.190 -1.9284  1.5809 -1.5429
30524SOL     OW94203   7.451   9.098   5.540  0.1161 -0.1055  0.4856
30524SOL    HW194204   7.377   9.157   5.554  0.5462  0.2452  1.3274
30524SOL    HW294205   7.410   9.012   5.529 -0.4838  0.2702 -0.2896
30525SOL     OW94206   8.556   7.805   8.241  0.2490  0.1306 -0.8435
30525SOL    HW194207   8.601   7.742   8.185 -0.6169 -1.7461  0.4663
30525SOL    HW294208   8.565   7.769   8.330 -2.9287  0.1243 -0.4044
30526SOL     OW94209   0.207   3.807   8.388  0.3051 -0.9719  0.8281
30526SOL    HW194210   0.286   3.795   8.336  0.5939 -1.3977  1.3598
30526SOL    HW294211   0.169   3.719   8.395 -0.4702 -0.7033  0.1838
30527SOL     OW94212   5.481   8.481   2.045 -0.0353 -0.9439 -0.6510
30527SOL    HW194213   5.484   8.416   1.974 -3.5434  0.0218 -1.8625
30527SOL    HW294214   5.428   8.552   2.011  0.4545  0.8702  2.0331
30528SOL     OW94215   9.944   3.431   1.140 -0.3033  0.1691 -0.9436
30528SOL    HW194216   9.927   3.466   1.053  0.4510 -1.6377 -1.8764
30528SOL    HW294217   9.858   3.432   1.184 -0.8115  0.5301 -1.9186
30529SOL     OW94218   6.903   5.710   2.540 -0.4203  0.3842 -0.0931
30529SOL    HW194219   6.889   5.774   2.470 -0.5421 -0.1923 -0.6097
30529SOL    HW294220   6.852   5.744   2.613 -0.0855  1.1326 -0.1934
30530SOL     OW94221   5.301   2.077   9.430 -0.0400  0.0117 -0.1851
30530SOL    HW194222   5.301   2.159   9.480 -0.5799  0.7542 -1.3690
30530SOL    HW294223   5.209   2.051   9.426 -0.0841  0.2761 -1.2681
30531SOL     OW94224   9.069   3.576   7.498 -0.3934 -0.0766 -0.4281
30531SOL    HW194225   9.084   3.482   7.492 -0.9610 -0.1898 -0.0991
30531SOL    HW294226   9.156   3.613   7.513 -0.2162 -0.5830 -0.1719
30532SOL     OW94227   9.653   6.438   6.683 -0.6534  0.2068  0.0129
30532SOL    HW194228   9.688   6.349   6.694 -1.5529 -0.2372 -0.6557
30532SOL    HW294229   9.699   6.472   6.606 -0.3236  0.3253  0.2569
30533SOL     OW94230   3.860   6.904   9.367 -0.1529  0.0777 -0.4369
30533SOL    HW194231   3.895   6.979   9.317 -0.8398  0.4550 -0.3609
30533SOL    HW294232   3.805   6.944   9.434  1.6557 -0.3601  1.3959
30534SOL     OW94233   5.177   4.182   4.433 -0.5849  0.3000 -0.0037
30534SOL    HW194234   5.105   4.149   4.380 -0.8892 -0.5290  0.9026
30534SOL    HW294235   5.252   4.128   4.409 -0.7100 -0.0406  0.3628
30535SOL     OW94236  10.082   6.035   9.284 -0.4877  0.0211 -0.3611
30535SOL    HW194237  10.097   6.095   9.357 -3.4770 -0.6219  0.8997
30535SOL    HW294238  10.077   6.091   9.207  0.2311  0.9765  0.2666
30536SOL     OW94239  10.247   5.039   0.460 -0.3838  0.0460 -0.1253
30536SOL    HW194240  10.301   5.076   0.390 -0.4656  1.3729  0.4851
30536SOL    HW294241  10.158   5.068   0.440 -0.1089  2.3545  1.6917
30537SOL     OW94242   4.037   1.150   9.268 -0.3722  0.0626 -0.1494
30537SOL    HW194243   4.027   1.206   9.345  0.6727  0.4725 -0.2932
30537SOL    HW294244   4.045   1.061   9.303  1.8477  0.4069  0.3865
30538SOL     OW94245   5.682   9.623   5.329  0.5976 -0.0889  0.6085
30538SOL    HW194246   5.727   9.622   5.244 -0.2479  1.2179  0.1109
30538SOL    HW294247   5.653   9.533   5.342  0.7376 -0.3057 -0.4873
30539SOL     OW94248  10.262   3.527   5.885  0.2922 -0.0736 -0.2184
30539SOL    HW194249  10.232   3.616   5.865 -1.1359 -0.9290 -2.2638
30539SOL    HW294250  10.326   3.539   5.955 -2.5200  2.2338  2.2785
30540SOL     OW94251   1.900  10.110   5.369 -0.0329  0.0789 -0.7062
30540SOL    HW194252   1.811  10.091   5.397 -0.5380  2.1193 -0.7494
30540SOL    HW294253   1.903  10.085   5.277 -0.6517  0.2523 -0.7742
30541SOL     OW94254  10.153   5.172   6.688 -0.1091  0.2776  0.0524
30541SOL    HW194255  10.217   5.102   6.677  0.4664  0.8771 -0.4869
30541SOL    HW294256  10.205   5.252   6.690 -0.7739  0.7105  0.4560
30542SOL     OW94257   5.195   1.583   9.547 -0.4742 -0.0327 -0.0710
30542SOL    HW194258   5.111   1.543   9.523 -1.3077  0.8197  1.2725
30542SOL    HW294259   5.257   1.548   9.483 -1.0975 -3.5903  1.0080
30543SOL     OW94260   4.624   2.093   3.751 -0.3992  0.0661  0.6305
30543SOL    HW194261   4.676   2.147   3.691 -0.6668 -1.5442 -1.1349
30543SOL    HW294262   4.534   2.117   3.733 -0.4408  0.3280  1.1653
30544SOL     OW94263   1.329   2.264   9.509  0.2113 -0.0654 -0.0771
30544SOL    HW194264   1.282   2.296   9.432 -1.0394  0.8513  1.0221
30544SOL    HW294265   1.402   2.325   9.521 -0.5679  0.7938  0.4094
30545SOL     OW94266   0.741   1.695   1.358  0.0403 -0.7178 -0.2394
30545SOL    HW194267   0.648   1.701   1.333 -0.2814  0.4412  1.1077
30545SOL    HW294268   0.777   1.781   1.334  0.9081 -1.3271 -1.2012
30546SOL     OW94269   0.605   3.913   1.571 -0.1315  0.0666  0.1265
30546SOL    HW194270   0.625   3.944   1.483 -0.9363  0.9904  0.2497
30546SOL    HW294271   0.548   3.837   1.558 -1.5549  1.1341 -0.1689
30547SOL     OW94272   2.773   3.935   1.900  0.1752  0.2456  0.3652
30547SOL    HW194273   2.694   3.882   1.889 -0.3852  1.4716 -2.3588
30547SOL    HW294274   2.747   4.003   1.962  0.0475 -0.9839  1.7232
30548SOL     OW94275   2.103   9.576   6.101  0.4499  0.1361  0.1686
30548SOL    HW194276   2.032   9.638   6.120 -1.0725 -1.2110 -0.8822
30548SOL    HW294277   2.168   9.628   6.053  0.6325  1.6016  1.8796
30549SOL     OW94278   6.867   0.337   4.925  0.0901 -0.1031 -0.2138
30549SOL    HW194279   6.780   0.377   4.924  0.4306  0.6627 -0.9636
30549SOL    HW294280   6.894   0.340   5.016 -0.6446 -0.2822  0.0118
30550SOL     OW94281   9.174   5.004   0.945 -0.2698  0.0717  0.6179
30550SOL    HW194282   9.167   4.922   0.896 -0.8676 -0.7828  2.0688
30550SOL    HW294283   9.172   4.978   1.037  1.4810  1.5673  1.1364
30551SOL     OW94284   9.111   3.290   6.290  0.4026  0.2822 -0.1806
30551SOL    HW194285   9.045   3.355   6.313 -0.1786 -0.3472 -0.0132
30551SOL    HW294286   9.118   3.296   6.194 -1.1747 -0.8088 -0.4044
30552SOL     OW94287   7.858   2.778   4.197  0.7701 -0.0146 -0.2698
30552SOL    HW194288   7.862   2.871   4.174 -1.8019  0.3079  0.2708
30552SOL    HW294289   7.879   2.775   4.290 -1.1335  0.3458  0.2087
30553SOL     OW94290   2.941   8.773   3.070  0.0679  0.2265 -0.2122
30553SOL    HW194291   3.023   8.810   3.035  0.2887 -0.0711 -0.0125
30553SOL    HW294292   2.969   8.715   3.140 -0.2954 -0.1167 -0.3479
30554SOL     OW94293   6.898   2.741   3.165 -0.9061 -0.7258 -0.1893
30554SOL    HW194294   6.971   2.791   3.200 -0.3680 -0.4313 -1.6844
30554SOL    HW294295   6.862   2.795   3.096 -1.4472 -1.6182 -0.6272
30555SOL     OW94296   5.940  10.053   1.224  0.6858 -0.3687 -0.2170
30555SOL    HW194297   5.897  10.041   1.308 -1.3268  1.2558 -0.9463
30555SOL    HW294298   5.881  10.011   1.161  1.6733 -0.7024 -0.9514
30556SOL     OW94299   1.473   6.917   2.089  0.4437 -0.6853  0.2906
30556SOL    HW194300   1.431   6.947   2.009 -0.7108 -0.3005  1.0026
30556SOL    HW294301   1.452   6.823   2.093  1.1573 -0.8676 -0.2385
30557SOL     OW94302   1.970   9.000   9.484 -0.0971  0.3811  0.7725
30557SOL    HW194303   1.927   8.917   9.505  0.3574 -0.6382 -1.8340
30557SOL    HW294304   1.916   9.037   9.414  1.1113  0.9827  0.1283
30558SOL     OW94305   3.735   8.764   6.442  0.7305 -0.1864  0.7309
30558SOL    HW194306   3.712   8.806   6.359 -0.7117 -1.6672  0.3435
30558SOL    HW294307   3.652   8.751   6.487  1.4941  0.6765  2.4937
30559SOL     OW94308   7.816   0.675   8.700 -0.2228  0.1726 -0.3193
30559SOL    HW194309   7.732   0.633   8.685 -0.3337  0.5823 -0.8371
30559SOL    HW294310   7.877   0.602   8.714 -0.9417 -0.1022  1.6366
30560SOL     OW94311   1.273   7.021   6.072 -0.0900 -0.2512 -0.0794
30560SOL    HW194312   1.255   7.031   6.166  0.5596  0.2177  0.0007
30560SOL    HW294313   1.279   6.927   6.058  1.8556 -0.2908  0.7559
30561SOL     OW94314   6.081   5.470   8.589 -0.4881  0.2063 -0.0006
30561SOL    HW194315   6.002   5.475   8.644 -0.6947 -2.0844  0.0439
30561SOL    HW294316   6.151   5.504   8.644 -1.1506  0.5165  0.6675
30562SOL     OW94317   2.124   0.403   2.685 -0.6387 -0.5091 -0.1870
30562SOL    HW194318   2.044   0.353   2.701 -0.6851 -0.5147 -0.4326
30562SOL    HW294319   2.180   0.344   2.634 -0.1881 -0.7656  0.5961
30563SOL     OW94320   9.697   8.483   2.757 -0.7151  0.4631  0.6275
30563SOL    HW194321   9.750   8.505   2.833  0.4155  0.3376 -0.1064
30563SOL    HW294322   9.757   8.491   2.683 -0.7509 -2.9441  0.0768
30564SOL     OW94323   6.236   1.128   7.980  0.5749  0.2182 -0.1384
30564SOL    HW194324   6.166   1.064   7.971  2.8012 -2.5080  0.6099
30564SOL    HW294325   6.254   1.132   8.074  2.3586 -0.2789 -0.4195
30565SOL     OW94326   3.191   0.061   8.923  0.0875  0.2986 -0.5086
30565SOL    HW194327   3.200   0.011   9.004 -1.0489  1.0912  0.1474
30565SOL    HW294328   3.238   0.142   8.939  0.4829  0.1518 -0.9228
30566SOL     OW94329   2.780   7.646   3.649 -0.0536  0.1084  0.2133
30566SOL    HW194330   2.687   7.669   3.649  0.2409  1.3988 -0.3979
30566SOL    HW294331   2.825   7.727   3.672  0.8956 -0.7268  1.4330
30567SOL     OW94332   4.892   4.007   8.621 -0.2962 -0.1615 -0.2781
30567SOL    HW194333   4.910   3.974   8.709  0.5008  1.0645  0.0571
30567SOL    HW294334   4.837   3.940   8.580  0.9622 -1.6959  0.4503
30568SOL     OW94335   5.247   9.942   7.762  0.7861 -0.4421 -0.0295
30568SOL    HW194336   5.231  10.028   7.800  4.0929  1.3419 -2.2180
30568SOL    HW294337   5.266   9.885   7.837 -0.8627  0.8240  1.4145
30569SOL     OW94338  10.035   6.695   8.264  0.1255  0.4328  0.0803
30569SOL    HW194339  10.129   6.683   8.270  0.4923  2.5278 -0.7071
30569SOL    HW294340  10.015   6.688   8.171 -0.2884  1.2052  0.1016
30570SOL     OW94341   5.239   7.764   7.797 -0.8942  0.2530  0.3400
30570SOL    HW194342   5.300   7.825   7.757 -0.1553 -0.2177  0.7269
30570SOL    HW294343   5.272   7.752   7.886 -0.4878 -1.4109 -0.0062
30571SOL     OW94344   0.627   2.339   5.104 -0.9673 -0.2968 -0.2128
30571SOL    HW194345   0.642   2.255   5.147 -1.3958  0.1315  0.7964
30571SOL    HW294346   0.674   2.403   5.159  0.8379 -0.0633 -1.9134
30572SOL     OW94347   5.633   7.600   0.030  0.0033  0.1134  0.2922
30572SOL    HW194348   5.564   7.623  -0.032  0.3901  2.8620  0.7602
30572SOL    HW294349   5.585   7.579   0.111 -0.3637 -0.5848 -0.0924
30573SOL     OW94350   7.622   8.016   3.535 -0.3795  0.1577 -0.2083
30573SOL    HW194351   7.645   7.947   3.597  0.5873 -0.5714 -1.3387
30573SOL    HW294352   7.685   8.086   3.553 -1.3796  0.7841  0.9587
30574SOL     OW94353   5.358   8.304   4.775 -0.3235 -0.5614  0.2785
30574SOL    HW194354   5.355   8.309   4.680 -1.9849 -0.7592  0.2912
30574SOL    HW294355   5.436   8.353   4.800 -1.6061  2.3009 -0.9973
30575SOL     OW94356   1.306   2.381   1.232  0.4532  0.3121  0.3197
30575SOL    HW194357   1.276   2.459   1.279  0.1117  1.5998 -1.8514
30575SOL    HW294358   1.332   2.319   1.300 -0.0817  2.0001  2.1409
30576SOL     OW94359   0.711   8.534   7.925 -0.4044  0.2750  0.2466
30576SOL    HW194360   0.710   8.468   7.855 -0.8911 -0.7875  1.2218
30576SOL    HW294361   0.676   8.488   8.002  0.5324  1.2827  1.3080
30577SOL     OW94362   5.157   5.086   1.452  0.3709 -0.1617  0.2764
30577SOL    HW194363   5.165   5.005   1.501  2.5252 -0.9352 -1.2217
30577SOL    HW294364   5.133   5.059   1.363  1.7007  0.7176 -0.3973
30578SOL     OW94365   4.723   1.214   6.826  0.2877  0.5003 -0.1225
30578SOL    HW194366   4.744   1.138   6.881 -0.6046  1.0016  0.9500
30578SOL    HW294367   4.656   1.183   6.766  0.1604  0.3611  0.0934
30579SOL     OW94368   2.554   6.003   1.061  0.0662  0.1052 -0.0167
30579SOL    HW194369   2.546   5.973   1.152 -1.0577  2.4621  0.7461
30579SOL    HW294370   2.551   5.922   1.009  0.9306 -1.3219  2.0110
30580SOL     OW94371   9.688   1.393   9.718  0.7665 -0.0648 -0.1008
30580SOL    HW194372   9.610   1.400   9.773  0.4314  0.1722 -0.6053
30580SOL    HW294373   9.760   1.417   9.776  0.1284  3.4359 -0.5658
30581SOL     OW94374   4.793   1.920   4.398 -0.2566  0.2647  0.5811
30581SOL    HW194375   4.857   1.905   4.328  0.5143 -0.7875  1.4695
30581SOL    HW294376   4.738   1.991   4.366 -0.3400 -0.6297 -1.3831
30582SOL     OW94377   8.660   3.186   6.886 -0.2832  0.9895 -0.0671
30582SOL    HW194378   8.576   3.176   6.930 -0.7816 -0.1490 -1.2345
30582SOL    HW294379   8.684   3.277   6.902 -1.7006  1.3238  0.3233
30583SOL     OW94380   4.980   6.556   6.840 -0.2614 -0.0136  0.6771
30583SOL    HW194381   4.964   6.552   6.935 -0.3073 -0.9235  0.6351
30583SOL    HW294382   5.038   6.483   6.822 -1.2749 -0.6342 -0.2013
30584SOL     OW94383  10.013   2.256   0.682 -0.0407 -0.4156 -0.1928
30584SOL    HW194384  10.044   2.196   0.614 -0.4602  0.2553 -0.9929
30584SOL    HW294385   9.974   2.199   0.748  0.0882 -1.0647 -0.6644
30585SOL     OW94386   3.427   8.373   7.546 -0.0642  0.1356 -0.1988
30585SOL    HW194387   3.348   8.354   7.495 -1.4870 -0.5683  2.0767
30585SOL    HW294388   3.452   8.461   7.520 -1.4832  0.2886 -1.1466
30586SOL     OW94389   2.147   9.320   9.180  0.0623  0.7274  0.3858
30586SOL    HW194390   2.056   9.333   9.207 -1.2160 -0.8048 -2.6289
30586SOL    HW294391   2.165   9.228   9.199 -1.1370 -0.6386 -3.8714
30587SOL     OW94392   3.479  10.137   1.138 -0.0285  0.1408  0.1495
30587SOL    HW194393   3.482  10.124   1.233 -0.4914  1.0639  0.3013
30587SOL    HW294394   3.494  10.231   1.126 -1.3095  0.2687 -0.6101
30588SOL     OW94395   4.150   2.862   3.235 -0.5470  0.4111 -0.0904
30588SOL    HW194396   4.141   2.956   3.221 -0.8516  0.6595  1.5959
30588SOL    HW294397   4.217   2.834   3.173 -0.7714  1.6469 -0.9155
30589SOL     OW94398   7.809   4.046   0.846 -0.3352  0.5134  0.1607
30589SOL    HW194399   7.793   4.111   0.914  1.3645  1.4530 -0.2671
30589SOL    HW294400   7.802   4.095   0.764  1.5970  0.3750 -0.1421
30590SOL     OW94401   7.334   8.446   7.611 -0.0063 -0.4307 -0.4249
30590SOL    HW194402   7.246   8.476   7.591 -0.2114  1.4984  2.7120
30590SOL    HW294403   7.379   8.447   7.527 -2.6133 -0.3258 -1.9280
30591SOL     OW94404   8.132   6.807   2.150  0.2722 -0.7148  0.4887
30591SOL    HW194405   8.216   6.848   2.171 -0.2709  0.8454 -0.2407
30591SOL    HW294406   8.070   6.845   2.212 -0.4608  0.4715 -0.9138
30592SOL     OW94407   3.120   1.137   9.422  0.6058  0.0048 -0.4078
30592SOL    HW194408   3.095   1.045   9.429 -1.0662  0.4558  0.0887
30592SOL    HW294409   3.141   1.149   9.330  3.1908 -1.3940 -0.0822
30593SOL     OW94410   1.499  10.232   7.060 -0.0200  0.1850  0.0053
30593SOL    HW194411   1.496  10.219   6.965 -1.0531  0.2863  0.0122
30593SOL    HW294412   1.496  10.144   7.096 -0.4223  0.1738 -0.0501
30594SOL     OW94413   5.412   6.569   8.953 -0.7833  0.2160 -0.1978
30594SOL    HW194414   5.455   6.652   8.973 -1.2831  0.3344  0.4116
30594SOL    HW294415   5.319   6.589   8.954 -0.8952 -0.2470 -0.5623
30595SOL     OW94416   4.057   9.853   9.854 -0.3884  0.1494  1.0989
30595SOL    HW194417   4.112   9.931   9.867  0.8584 -0.3177 -1.0362
30595SOL    HW294418   4.032   9.827   9.943  0.4381  2.0717  1.9573
30596SOL     OW94419   2.370   8.135   6.666 -0.1658 -0.1649 -0.0398
30596SOL    HW194420   2.410   8.065   6.615  0.9413 -0.4939  1.2338
30596SOL    HW294421   2.438   8.163   6.728 -1.5204  0.0391  1.4282
30597SOL     OW94422   5.938   9.031   3.353 -0.0245 -0.2560  0.5945
30597SOL    HW194423   5.873   8.968   3.384 -0.7661  0.1862 -0.0276
30597SOL    HW294424   5.911   9.115   3.392  0.7517 -0.2469  1.1314
30598SOL     OW94425   3.789   8.511   9.041 -0.0040  0.3889  0.0653
30598SOL    HW194426   3.819   8.421   9.047  1.1706  0.6558 -1.2936
30598SOL    HW294427   3.722   8.509   8.973 -1.9361  0.1179  1.8629
30599SOL     OW94428  10.256   4.200  10.149  0.2606  0.0597  0.1231
30599SOL    HW194429  10.235   4.292  10.133 -0.4636 -0.1482 -0.1875
30599SOL    HW294430  10.326   4.180  10.087  0.0106  0.2460 -0.2237
30600SOL     OW94431   0.263   7.633   6.360  0.1898 -0.0917 -0.0358
30600SOL    HW194432   0.183   7.592   6.392  0.6736 -1.0694 -0.0426
30600SOL    HW294433   0.266   7.611   6.267  0.2241  0.3629 -0.1468
30601SOL     OW94434   1.252   7.041   8.948  0.3596 -0.4235 -0.4692
30601SOL    HW194435   1.282   6.966   9.000 -0.0267  0.0518  0.4640
30601SOL    HW294436   1.172   7.069   8.991  1.6885  1.9767  0.6479
30602SOL     OW94437   5.299   0.812   3.974 -0.6417 -0.9992 -0.3783
30602SOL    HW194438   5.295   0.907   3.968 -1.7384 -0.9938  0.2319
30602SOL    HW294439   5.305   0.794   4.068 -3.1509 -1.5919 -0.2824
30603SOL     OW94440   9.538   9.796   7.529  0.0066 -0.1231 -0.7129
30603SOL    HW194441   9.625   9.772   7.496 -0.1201  0.7125 -1.7053
30603SOL    HW294442   9.555   9.853   7.603  0.3027 -0.1253 -0.7786
30604SOL     OW94443   5.041   0.396   1.112 -0.3518 -0.2400 -0.2490
30604SOL    HW194444   5.054   0.306   1.085 -1.1238 -1.2891  2.4725
30604SOL    HW294445   5.097   0.448   1.055  0.4269 -2.4793 -1.6032
30605SOL     OW94446   5.759   7.571   1.069 -0.2158 -0.2017 -0.0295
30605SOL    HW194447   5.715   7.641   1.118 -0.9642  0.6577 -1.8136
30605SOL    HW294448   5.832   7.545   1.125 -0.5222  1.2900  1.1514
30606SOL     OW94449   6.636   3.006   9.955  0.3494  0.3247 -0.0918
30606SOL    HW194450   6.561   3.009  10.014  0.9512  1.8020  0.6584
30606SOL    HW294451   6.660   2.913   9.950 -0.0005  0.1125  1.6475
30607SOL     OW94452   1.982   4.050   1.821  0.5179  0.2359 -0.1300
30607SOL    HW194453   1.974   4.135   1.779  2.3242  1.1867  1.3411
30607SOL    HW294454   2.059   4.057   1.878  0.3243 -2.1543  0.5630
30608SOL     OW94455   7.001   7.670   3.093 -0.6741  0.1776  0.1384
30608SOL    HW194456   6.954   7.638   3.017 -1.4614 -0.4918  0.8889
30608SOL    HW294457   6.950   7.640   3.168  1.1616 -0.9539  1.0049
30609SOL     OW94458   2.250   8.881   4.418  0.0176 -0.1080  0.4202
30609SOL    HW194459   2.279   8.818   4.352  1.1969  0.4717  0.3610
30609SOL    HW294460   2.331   8.910   4.460 -0.2875  2.6492 -0.6986
30610SOL     OW94461   0.649   0.435   9.750  0.0070  0.3507 -0.2938
30610SOL    HW194462   0.610   0.396   9.672  0.1997 -0.7922  0.1614
30610SOL    HW294463   0.592   0.406   9.822  1.3281 -0.8760  0.3093
30611SOL     OW94464   6.554  10.268   0.994 -0.2197 -0.4364  0.6120
30611SOL    HW194465   6.599  10.352   0.987 -0.5816 -0.3138 -0.4105
30611SOL    HW294466   6.475  10.278   0.941 -0.9757 -0.9723  1.6102
30612SOL     OW94467   2.416   1.842   7.457 -0.9018 -0.0185 -0.0707
30612SOL    HW194468   2.437   1.935   7.449 -0.3008 -0.1867 -0.5834
30612SOL    HW294469   2.332   1.832   7.411  0.0979 -0.0910 -2.0073
30613SOL     OW94470   0.217   5.401   3.253  0.1251  0.3766 -0.4717
30613SOL    HW194471   0.212   5.370   3.344  0.5943  1.2114 -0.1511
30613SOL    HW294472   0.310   5.413   3.237 -0.0737  2.6384 -0.2145
30614SOL     OW94473   7.538   0.402   0.081 -0.1696  0.0800 -0.1024
30614SOL    HW194474   7.619   0.444   0.053  0.8657 -1.6248  0.1891
30614SOL    HW294475   7.566   0.332   0.140 -1.8426 -0.6320 -0.0838
30615SOL     OW94476   8.699   4.372   7.102  0.1664  0.5329 -0.3378
30615SOL    HW194477   8.752   4.372   7.023 -0.2646 -0.6564 -0.6402
30615SOL    HW294478   8.645   4.293   7.096  2.3604 -1.4093  2.6605
30616SOL     OW94479   2.906   8.319   2.451 -0.1780  0.0182 -0.0616
30616SOL    HW194480   2.943   8.271   2.377 -2.1054 -1.2549 -0.2770
30616SOL    HW294481   2.884   8.405   2.417 -0.0101 -0.1725 -0.6557
30617SOL     OW94482   1.150   0.216   9.702 -0.4403 -0.8335  0.4437
30617SOL    HW194483   1.119   0.159   9.631 -0.6149 -2.0664  1.4569
30617SOL    HW294484   1.078   0.277   9.717 -0.1463 -0.1332 -0.8390
30618SOL     OW94485   9.781   9.051   5.076 -0.2824 -0.1673  0.2781
30618SOL    HW194486   9.734   8.970   5.091 -0.6197  0.2965  1.8415
30618SOL    HW294487   9.842   9.030   5.005 -0.4301 -1.7546  0.5825
30619SOL     OW94488   1.146   4.161   8.463  0.5059 -0.4307 -0.6833
30619SOL    HW194489   1.162   4.116   8.546 -0.7766  0.1425 -0.0914
30619SOL    HW294490   1.227   4.210   8.446  0.9376 -0.8922  0.0017
30620SOL     OW94491   3.511   3.484   4.420  0.4770  0.3760  0.0416
30620SOL    HW194492   3.435   3.489   4.479 -1.8323 -1.0332 -2.6019
30620SOL    HW294493   3.549   3.398   4.438 -0.1570 -0.0047 -0.3773
30621SOL     OW94494   0.228   1.947   9.914  0.3819  0.5549  0.7489
30621SOL    HW194495   0.206   1.887   9.986 -0.5958 -3.1491 -2.3013
30621SOL    HW294496   0.145   1.963   9.870  1.2073  1.3051 -0.5912
30622SOL     OW94497   1.059   8.622   6.079 -0.0364  0.4856 -0.2776
30622SOL    HW194498   1.082   8.715   6.075 -1.7962  1.0076  0.7272
30622SOL    HW294499   1.021   8.610   6.166 -0.4411 -1.0234 -0.6320
30623SOL     OW94500   7.845   4.996   7.036 -0.2633  0.2382  0.0811
30623SOL    HW194501   7.881   5.050   7.106 -0.1157  0.9083 -0.4998
30623SOL    HW294502   7.806   5.059   6.975 -0.6741 -0.3562 -0.2788
30624SOL     OW94503   9.436   5.950   7.982  0.8290 -0.1084  0.0272
30624SOL    HW194504   9.509   5.913   7.933  2.2573  0.9011  1.2922
30624SOL    HW294505   9.444   6.045   7.968 -0.5811 -0.0035 -0.2340
30625SOL     OW94506   9.275   2.144   0.102 -0.1804 -0.3205  0.5181
30625SOL    HW194507   9.320   2.060   0.088 -1.4064 -0.7703 -1.1067
30625SOL    HW294508   9.340   2.200   0.143  1.0231 -1.7413  0.6268
30626SOL     OW94509   5.896   2.086   8.055 -0.0300 -0.5414  0.2432
30626SOL    HW194510   5.800   2.094   8.054 -0.0223 -0.3842  0.5238
30626SOL    HW294511   5.927   2.174   8.077  0.0967 -1.0417  2.2832
30627SOL     OW94512   6.400   7.223   9.723 -0.0110 -0.2881  0.6147
30627SOL    HW194513   6.375   7.315   9.720  3.8585  0.9020 -0.0580
30627SOL    HW294514   6.391   7.192   9.633 -1.5567 -0.7136  0.8863
30628SOL     OW94515   0.114   2.881   1.474  0.1331  0.6792 -0.6434
30628SOL    HW194516   0.176   2.819   1.435 -0.2285 -0.4771  0.5627
30628SOL    HW294517   0.099   2.848   1.563 -3.0231  0.2812 -1.1994
30629SOL     OW94518   7.668   5.313   8.974  0.6305  0.0353 -0.3606
30629SOL    HW194519   7.764   5.317   8.969  0.6472 -0.0400 -0.1265
30629SOL    HW294520   7.649   5.221   8.989  0.6311  0.2931  1.4859
30630SOL     OW94521   0.128   1.615   7.071 -0.1383 -0.0388 -0.9734
30630SOL    HW194522   0.057   1.635   7.010 -0.2779 -2.2003 -1.6048
30630SOL    HW294523   0.086   1.610   7.156 -0.3154  0.9281 -0.9939
30631SOL     OW94524   0.768   6.900   0.283 -0.4112 -0.1413 -0.0256
30631SOL    HW194525   0.854   6.939   0.302 -0.9585  1.2888 -0.3438
30631SOL    HW294526   0.719   6.911   0.364 -0.3920 -0.6918  0.0610
30632SOL     OW94527   4.409   6.437   6.428 -0.5948  0.1515  0.6582
30632SOL    HW194528   4.336   6.498   6.429 -0.4241  0.4635 -1.3129
30632SOL    HW294529   4.369   6.351   6.435 -1.5305  0.1197 -2.9729
30633SOL     OW94530   6.672   7.280   7.021  0.6039  0.5600 -0.1585
30633SOL    HW194531   6.629   7.318   6.945 -0.0040  0.5876  0.1947
30633SOL    HW294532   6.745   7.339   7.040  0.3414  0.9305 -0.3007
30634SOL     OW94533   1.732   2.841   6.056 -0.4249  0.3981 -0.2392
30634SOL    HW194534   1.729   2.926   6.100 -0.2096  0.1035  0.3526
30634SOL    HW294535   1.726   2.862   5.963  0.2788  1.1014 -0.1297
30635SOL     OW94536   6.636   7.684   1.089 -0.0681  0.1107  0.3695
30635SOL    HW194537   6.678   7.618   1.034  2.0494  0.9290  0.9065
30635SOL    HW294538   6.637   7.764   1.035 -0.9772  0.1396  0.3879
30636SOL     OW94539   3.915   0.469   4.473  0.4591  0.0199  0.0327
30636SOL    HW194540   3.872   0.555   4.475  0.4581  0.0214 -0.0289
30636SOL    HW294541   3.976   0.471   4.547  1.1988  0.4712 -0.5670
30637SOL     OW94542   2.854   6.369  10.158  0.0637  0.2372  0.1292
30637SOL    HW194543   2.857   6.449  10.211  1.9166  2.2889 -2.7438
30637SOL    HW294544   2.839   6.299  10.221  0.1156  2.6427  3.0539
30638SOL     OW94545   2.478   4.437   1.788  0.3073  0.1601 -0.2840
30638SOL    HW194546   2.528   4.375   1.735  0.4568 -1.0599  1.2229
30638SOL    HW294547   2.540   4.468   1.853 -0.8811 -1.6576  1.8531
30639SOL     OW94548   4.603   2.415   8.794  0.4126 -0.1770 -0.5792
30639SOL    HW194549   4.652   2.342   8.757  1.1353  0.1428 -0.2768
30639SOL    HW294550   4.633   2.421   8.884  1.0107  1.0304 -0.8406
30640SOL     OW94551   2.040   5.569   3.715  0.7315  0.1844  0.2742
30640SOL    HW194552   2.041   5.607   3.803  2.1852 -0.4591  0.5556
30640SOL    HW294553   2.128   5.534   3.702  0.5284  0.1956 -1.4206
30641SOL     OW94554  10.099   8.269   2.721 -0.1102  0.0983 -0.1565
30641SOL    HW194555  10.024   8.256   2.663 -0.8297 -2.3332  1.1770
30641SOL    HW294556  10.098   8.363   2.740 -0.0712  0.9529 -3.6513
30642SOL     OW94557   6.634   2.303   7.364 -0.1050  0.3173 -0.3488
30642SOL    HW194558   6.580   2.232   7.330 -1.2797  0.3528  1.3255
30642SOL    HW294559   6.634   2.290   7.459 -0.2635  2.4876 -0.0094
30643SOL     OW94560   9.596   2.219   7.925 -0.1070  0.1007  0.3121
30643SOL    HW194561   9.683   2.183   7.944 -0.4706 -0.0937  1.7220
30643SOL    HW294562   9.586   2.292   7.986 -0.8092  0.3219 -0.0545
30644SOL     OW94563   7.292   1.932   1.094  0.0198  0.2733  0.0601
30644SOL    HW194564   7.369   1.987   1.080 -0.4624  0.8430 -0.4090
30644SOL    HW294565   7.251   1.966   1.174 -1.0051  1.4708 -0.9472
30645SOL     OW94566   1.082   9.214   5.843  0.0315  0.2939 -0.4676
30645SOL    HW194567   1.124   9.273   5.780  0.2537 -0.1062 -0.6980
30645SOL    HW294568   1.076   9.265   5.924  0.4729  0.5383 -0.5876
30646SOL     OW94569   8.633   9.484   1.980 -0.3644 -0.0271 -0.3802
30646SOL    HW194570   8.608   9.446   1.895  0.0731  1.9979 -1.4641
30646SOL    HW294571   8.572   9.556   1.993  1.6727  1.8779 -0.7124
30647SOL     OW94572   8.768   5.000   8.724  0.3301 -0.3573  0.0217
30647SOL    HW194573   8.682   5.042   8.720  0.9321  0.9279  0.1250
30647SOL    HW294574   8.754   4.913   8.687 -1.0167 -0.1745  0.0595
30648SOL     OW94575   9.771   8.947   6.029 -0.3156 -0.0996 -0.2118
30648SOL    HW194576   9.695   8.917   5.979 -0.4203  1.1823 -0.8710
30648SOL    HW294577   9.737   8.962   6.117 -0.5788 -0.5219 -0.2349
30649SOL     OW94578   5.273   5.663   1.455 -0.6504  0.6029 -0.2025
30649SOL    HW194579   5.316   5.745   1.479 -0.8118  0.6395 -0.0381
30649SOL    HW294580   5.293   5.603   1.527 -1.1834  0.7309  0.0615
30650SOL     OW94581   7.867   6.936   0.929 -0.5326  0.0485  0.3408
30650SOL    HW194582   7.782   6.957   0.891 -1.0808 -0.3893  1.2890
30650SOL    HW294583   7.924   6.920   0.854 -1.7613 -1.5081 -0.3248
30651SOL     OW94584   5.013   0.979   5.955  0.4678  0.4811  0.3463
30651SOL    HW194585   5.005   1.075   5.959  0.7275  0.4964  0.5707
30651SOL    HW294586   5.027   0.953   6.046  0.5687  0.2458  0.2643
30652SOL     OW94587   9.910   5.996   6.768  0.0855 -0.1863  0.3369
30652SOL    HW194588   9.874   6.085   6.766 -0.9924 -0.6070  0.7356
30652SOL    HW294589   9.949   5.985   6.681 -0.2219  0.4890  0.1028
30653SOL     OW94590   3.270   9.691   3.359  0.2293  0.3352 -0.5599
30653SOL    HW194591   3.347   9.694   3.416 -0.3893 -2.0937  0.5579
30653SOL    HW294592   3.296   9.633   3.288 -0.0017  0.9407 -1.1465
30654SOL     OW94593   7.466   4.076   8.977 -0.6348 -0.0558  0.3918
30654SOL    HW194594   7.474   4.056   8.883  0.2809  1.6694  0.0702
30654SOL    HW294595   7.525   4.013   9.019 -1.4809 -1.2310 -0.0971
30655SOL     OW94596   6.058   5.933   1.523 -0.3060 -0.1078 -0.5330
30655SOL    HW194597   6.000   5.954   1.596 -0.3567 -0.0734 -0.5834
30655SOL    HW294598   6.047   6.006   1.462  2.1392  1.5683  0.8690
30656SOL     OW94599   0.494   1.959   9.695  0.4713  0.5387  0.0423
30656SOL    HW194600   0.413   1.936   9.741  0.7887 -0.3239  0.1908
30656SOL    HW294601   0.476   1.935   9.604 -0.0222  1.8960 -0.2394
30657SOL     OW94602   0.515   1.374   4.513  0.0976 -0.6198 -0.5690
30657SOL    HW194603   0.527   1.427   4.434 -0.3049 -0.2944 -0.4216
30657SOL    HW294604   0.519   1.438   4.585 -0.1966 -0.8149 -0.3762
30658SOL     OW94605   8.457   5.038   4.574  0.0667  0.1421  0.0026
30658SOL    HW194606   8.374   5.080   4.596  1.0005  1.6963  0.7542
30658SOL    HW294607   8.450   4.951   4.614 -0.7541  0.6682  1.0810
30659SOL     OW94608   0.983  10.274   0.404 -0.0858 -0.0069 -0.1548
30659SOL    HW194609   1.061  10.226   0.378  0.3783 -0.0768  1.2852
30659SOL    HW294610   0.933  10.213   0.459 -0.3068  0.5850  0.3226
30660SOL     OW94611   1.039   6.316   4.704  0.0650  0.8099  0.1020
30660SOL    HW194612   1.096   6.348   4.635 -0.0793  2.0398  0.5401
30660SOL    HW294613   1.098   6.296   4.777  0.5455 -2.7057 -1.0282
30661SOL     OW94614   1.218   6.378   2.118  0.7429  0.6867 -0.1641
30661SOL    HW194615   1.290   6.435   2.091  1.1293 -0.7865 -2.4873
30661SOL    HW294616   1.170   6.360   2.038 -1.5736  0.6931  1.1499
30662SOL     OW94617   7.865   8.454   3.801  0.3761 -0.0330  0.2132
30662SOL    HW194618   7.798   8.469   3.868  1.2773 -0.5879  1.2749
30662SOL    HW294619   7.833   8.500   3.724 -1.5063 -0.7519  0.5117
30663SOL     OW94620   0.900   3.011   2.804  0.4008  0.4357 -0.5059
30663SOL    HW194621   0.812   3.038   2.828  0.6540  0.5397  0.3219
30663SOL    HW294622   0.922   3.065   2.728  0.3217  1.4634  0.1977
30664SOL     OW94623   2.527   2.393   5.555 -0.0332  0.0059 -0.3467
30664SOL    HW194624   2.510   2.417   5.464  0.7836 -0.8278 -0.7397
30664SOL    HW294625   2.441   2.370   5.590 -0.9262  3.5580  0.1414
30665SOL     OW94626   2.022   8.810  10.168  0.2832  0.2741 -0.4316
30665SOL    HW194627   2.074   8.882  10.133  2.3456 -0.6242  0.5924
30665SOL    HW294628   1.933   8.828  10.139  0.8366  2.8820 -0.7289
30666SOL     OW94629  10.228   7.466   9.329 -0.4020  0.1023  0.6605
30666SOL    HW194630  10.296   7.416   9.283 -1.1205  0.0602 -0.4025
30666SOL    HW294631  10.266   7.485   9.414  0.5691 -0.7513  0.4441
30667SOL     OW94632   1.259   9.813   6.519  0.1816  0.6909  0.3482
30667SOL    HW194633   1.233   9.752   6.589  0.6802 -0.4966 -0.4568
30667SOL    HW294634   1.245   9.900   6.556 -0.3077  0.0907  1.6404
30668SOL     OW94635   3.619   8.904   0.592 -0.7866 -0.6263  0.1176
30668SOL    HW194636   3.529   8.936   0.595 -0.2381  0.9537  0.3763
30668SOL    HW294637   3.632   8.859   0.676 -1.3015 -0.8018  0.1045
30669SOL     OW94638   8.558   6.956   4.138 -0.0384 -0.8237  1.0638
30669SOL    HW194639   8.485   7.014   4.158  0.3530  0.1165 -0.0985
30669SOL    HW294640   8.620   6.971   4.210  0.3869  0.8156  0.4035
30670SOL     OW94641   4.033   3.999   3.846  0.2518 -0.3258 -0.4702
30670SOL    HW194642   4.022   4.083   3.892  1.9586 -0.2751 -0.0626
30670SOL    HW294643   4.112   3.962   3.885  0.3848 -1.4138 -1.7282
30671SOL     OW94644   5.141   0.059   3.913 -0.3493  0.7136  0.0564
30671SOL    HW194645   5.135   0.121   3.840  0.4434 -1.3017 -1.8366
30671SOL    HW294646   5.057   0.013   3.911  0.2975 -0.4887 -0.7395
30672SOL     OW94647   5.319   5.142   8.380 -0.5003  0.5095  0.0567
30672SOL    HW194648   5.369   5.138   8.299 -1.0577 -0.9386 -0.2443
30672SOL    HW294649   5.261   5.217   8.369 -0.8299  0.1126 -1.0534
30673SOL     OW94650   0.133   8.791   0.457 -0.1458  0.3814  0.1111
30673SOL    HW194651   0.076   8.721   0.423  0.3528  0.0371 -0.0281
30673SOL    HW294652   0.145   8.769   0.549 -1.2641  1.1593  0.4655
30674SOL     OW94653   9.788   5.643   3.177 -0.5714 -0.0815 -0.1834
30674SOL    HW194654   9.846   5.614   3.108 -2.1457 -0.3990 -1.4425
30674SOL    HW294655   9.826   5.725   3.208  1.0734 -0.7868 -0.2332
30675SOL     OW94656   8.256   6.847   9.627  0.2710 -0.4170  0.0322
30675SOL    HW194657   8.249   6.762   9.585 -1.6023 -0.3538  0.1358
30675SOL    HW294658   8.310   6.832   9.705 -0.4197 -1.6125  0.2963
30676SOL     OW94659   7.142   2.662   9.345 -0.4158 -0.1704 -0.5978
30676SOL    HW194660   7.149   2.646   9.251  0.5199  1.5437 -0.8602
30676SOL    HW294661   7.106   2.580   9.380 -2.4599 -0.2607 -2.6261
30677SOL     OW94662   7.873   2.536   3.887 -0.2066 -0.1156  0.0527
30677SOL    HW194663   7.942   2.603   3.888 -0.2976  0.0700 -2.2146
30677SOL    HW294664   7.810   2.567   3.822 -0.8424 -1.8358 -0.2080
30678SOL     OW94665   1.901   2.266   7.463  0.4111  0.4271 -0.1309
30678SOL    HW194666   1.862   2.182   7.489  1.8832 -0.1519  0.2948
30678SOL    HW294667   1.970   2.281   7.528  2.2672  0.3956 -1.9937
30679SOL     OW94668   8.745   4.874   6.095 -0.2885  0.4549  0.4158
30679SOL    HW194669   8.837   4.849   6.086 -0.2641  0.2127  1.2639
30679SOL    HW294670   8.701   4.829   6.023  0.1317 -0.1103  0.5034
30680SOL     OW94671   2.103   5.242   7.209 -0.1684 -0.5515 -0.6198
30680SOL    HW194672   2.135   5.327   7.177  1.2402 -1.6033 -2.1896
30680SOL    HW294673   2.173   5.212   7.268 -0.1463 -1.0786 -0.9110
30681SOL     OW94674   6.987   1.836   6.774  0.1859  0.3318 -0.7414
30681SOL    HW194675   6.978   1.870   6.685 -0.5045 -1.7226 -1.5222
30681SOL    HW294676   6.982   1.913   6.830 -1.2115  1.5072 -2.3717
30682SOL     OW94677   5.815   3.507   4.567  0.0140  0.1340 -0.3786
30682SOL    HW194678   5.773   3.558   4.636 -1.6153  0.5765 -1.6378
30682SOL    HW294679   5.887   3.563   4.537 -0.4398  0.7687 -0.3079
30683SOL     OW94680  10.325   5.014   1.123 -0.5979 -0.2883 -0.0956
30683SOL    HW194681  10.239   5.055   1.127 -0.4070  0.2165 -0.9898
30683SOL    HW294682  10.325   4.967   1.040  0.6931  1.3618 -1.0832
30684SOL     OW94683   4.357   1.833   2.662  0.5496  0.3078  0.2678
30684SOL    HW194684   4.296   1.905   2.680 -1.6608 -1.5102  0.5220
30684SOL    HW294685   4.369   1.790   2.747 -1.8269 -2.2476 -0.5175
30685SOL     OW94686   8.708   1.692   9.029  0.4940  0.5502  0.6457
30685SOL    HW194687   8.633   1.715   8.974 -0.0444 -0.8369  0.7587
30685SOL    HW294688   8.686   1.725   9.115 -0.4059 -0.5622  0.8751
30686SOL     OW94689   5.860   2.239   2.637 -0.3113  0.3305  0.2456
30686SOL    HW194690   5.828   2.149   2.635  0.9487 -0.1257  0.0305
30686SOL    HW294691   5.843   2.272   2.549 -0.5693  0.2317  0.2578
30687SOL     OW94692   9.392   8.610   1.235  0.0066  0.3010  1.0422
30687SOL    HW194693   9.394   8.521   1.201  0.3737  0.0495  1.6857
30687SOL    HW294694   9.312   8.648   1.201  1.4932  0.8970 -2.0971
30688SOL     OW94695   0.987   2.882   4.696  0.1197  0.3481 -0.0742
30688SOL    HW194696   1.056   2.853   4.638 -0.6810 -2.3787  0.1903
30688SOL    HW294697   0.908   2.882   4.642  0.0987  2.6066 -0.1585
30689SOL     OW94698   4.051   0.961   5.984 -0.4344  0.6550  0.0167
30689SOL    HW194699   4.002   1.036   5.950 -2.1081  0.1309  1.1257
30689SOL    HW294700   4.062   0.980   6.077 -0.6905 -0.3462  0.2698
30690SOL     OW94701   8.270  10.342   3.024  0.0324 -0.3700 -0.3740
30690SOL    HW194702   8.365  10.336   3.037  0.1132  1.5595  0.2848
30690SOL    HW294703   8.240  10.398   3.095 -1.8314 -1.9560  0.1867
30691SOL     OW94704   6.092   6.579   5.573  0.4095  0.0105 -0.2736
30691SOL    HW194705   6.150   6.616   5.507  1.4179  0.3317  0.7688
30691SOL    HW294706   6.050   6.655   5.614  1.7695  0.0171  1.2160
30692SOL     OW94707   5.381   7.906   1.558  0.1746  0.2078 -0.2431
30692SOL    HW194708   5.422   7.851   1.492  0.3067 -0.6379  0.5274
30692SOL    HW294709   5.306   7.946   1.513  0.1756 -0.4650 -0.8575
30693SOL     OW94710   6.195   2.818   1.863 -0.1789  0.6595  0.1887
30693SOL    HW194711   6.245   2.768   1.928 -0.3266 -0.4462 -0.5137
30693SOL    HW294712   6.108   2.829   1.903  0.3015  1.7004  0.9854
30694SOL     OW94713   7.417   8.769   0.161 -0.4789  0.2490 -0.6363
30694SOL    HW194714   7.400   8.678   0.134  0.4495  0.3398 -1.5657
30694SOL    HW294715   7.500   8.791   0.120  0.7478  0.6104  1.8673
30695SOL     OW94716   3.000   5.137   1.323  0.3466  0.8251  0.5639
30695SOL    HW194717   3.046   5.096   1.249 -0.5277 -1.3514  1.1537
30695SOL    HW294718   3.062   5.131   1.396  0.0853  0.2340  0.7366
30696SOL     OW94719   4.188   4.089   0.573  0.0182  0.1331  0.2980
30696SOL    HW194720   4.167   4.118   0.662  1.6057  0.4127  0.6076
30696SOL    HW294721   4.161   4.161   0.517 -0.4626  0.1922  0.5975
30697SOL     OW94722   2.055   2.320   1.282  0.3933  0.2620  0.5044
30697SOL    HW194723   2.121   2.389   1.284 -0.4731  1.1362  0.2819
30697SOL    HW294724   2.068   2.277   1.197 -1.2938  2.5347 -1.0718
30698SOL     OW94725   0.094   1.658   9.608  0.2652  0.1324 -0.4251
30698SOL    HW194726   0.056   1.631   9.692 -0.6667  0.4330 -0.7382
30698SOL    HW294727   0.162   1.592   9.591 -0.4824 -0.7431 -0.1131
30699SOL     OW94728   7.947   1.205   4.241  0.2705 -0.1482 -0.2427
30699SOL    HW194729   8.022   1.250   4.202  0.9645  0.5972  1.8269
30699SOL    HW294730   7.934   1.128   4.186  2.5696 -0.3124 -0.6463
30700SOL     OW94731   1.272   4.561   0.632  0.1168 -0.5271 -0.3644
30700SOL    HW194732   1.360   4.570   0.595 -1.0662 -3.4851 -4.6265
30700SOL    HW294733   1.217   4.617   0.577 -0.8783  0.3933  1.4977
30701SOL     OW94734   3.209   6.326   1.284  0.4696  0.0216  0.0566
30701SOL    HW194735   3.169   6.411   1.267 -1.1621 -1.0339 -1.7899
30701SOL    HW294736   3.247   6.300   1.200 -1.7041 -2.3356 -0.3420
30702SOL     OW94737   1.017   9.227   8.632  1.0771  0.1469  0.8985
30702SOL    HW194738   0.975   9.254   8.713  1.2139  1.0445  0.6746
30702SOL    HW294739   0.956   9.255   8.563  1.0599 -0.4251  0.6731
30703SOL     OW94740   1.789   1.459   6.300  0.0726 -0.3056  0.2220
30703SOL    HW194741   1.882   1.442   6.287 -0.1362 -0.8110 -0.6994
30703SOL    HW294742   1.754   1.471   6.212 -0.5953  0.6530  0.6028
30704SOL     OW94743   4.283   0.877   2.632 -0.3704  0.1887  0.1116
30704SOL    HW194744   4.231   0.916   2.703 -0.4991 -0.0991  0.1784
30704SOL    HW294745   4.338   0.812   2.676 -1.0156 -0.5471 -0.1526
30705SOL     OW94746   4.914   6.072   0.815 -0.2838 -0.5089 -0.2651
30705SOL    HW194747   4.845   6.131   0.846 -0.2797 -0.4885 -0.2945
30705SOL    HW294748   4.901   5.992   0.866  0.3588 -0.1193  0.5209
30706SOL     OW94749  10.022   5.920   0.118 -0.5952  0.0277  0.1691
30706SOL    HW194750  10.043   5.865   0.194  0.9073 -1.4583 -1.2595
30706SOL    HW294751  10.001   6.005   0.156 -0.2328 -0.7567  2.2766
30707SOL     OW94752   0.004   5.121   8.521 -0.1068 -0.3202 -0.0851
30707SOL    HW194753  -0.063   5.107   8.587  0.1809 -0.1911  0.2363
30707SOL    HW294754   0.058   5.192   8.556 -0.0629 -0.1260 -0.5427
30708SOL     OW94755   4.060   8.213   5.061 -0.0009  0.0528 -0.3260
30708SOL    HW194756   4.035   8.172   5.144 -0.7742  2.0075  0.4730
30708SOL    HW294757   4.102   8.295   5.086  1.2896 -0.0936 -1.8507
30709SOL     OW94758   0.235   1.770   4.816 -0.6003  0.2097  0.3732
30709SOL    HW194759   0.244   1.799   4.725 -2.1665 -0.5146 -0.0581
30709SOL    HW294760   0.279   1.838   4.868 -0.0297  0.8400 -0.8958
30710SOL     OW94761   2.842   8.866   9.664  0.0941 -0.1289 -0.2208
30710SOL    HW194762   2.890   8.788   9.691 -0.4841 -0.4586 -0.1138
30710SOL    HW294763   2.813   8.905   9.747  2.1444  1.3729 -0.1492
30711SOL     OW94764  10.238   9.886   1.057 -0.7580  0.4481  0.6371
30711SOL    HW194765  10.192   9.968   1.041 -0.8748  0.4474  0.9596
30711SOL    HW294766  10.171   9.826   1.090 -0.9421 -0.1767 -0.8093
30712SOL     OW94767   3.620   7.601   9.590 -0.2171  0.1987  0.1281
30712SOL    HW194768   3.549   7.602   9.526 -0.7474  0.9121  0.7132
30712SOL    HW294769   3.608   7.682   9.640  0.1405 -0.3840  1.1815
30713SOL     OW94770   8.197  10.260   6.373  0.4418  0.6649  0.2952
30713SOL    HW194771   8.211  10.263   6.279  1.2328  0.9411  0.4196
30713SOL    HW294772   8.177  10.351   6.397 -0.0709  0.5403  0.3512
30714SOL     OW94773   5.345   0.912   7.166 -0.2797 -1.0236 -0.2691
30714SOL    HW194774   5.411   0.843   7.176 -0.1072 -0.6171  1.8636
30714SOL    HW294775   5.362   0.972   7.238 -0.7109  1.0619 -1.8328
30715SOL     OW94776   6.556   7.757   2.287 -0.4356 -0.1358 -0.1756
30715SOL    HW194777   6.564   7.702   2.209 -1.7291  0.1557 -0.5312
30715SOL    HW294778   6.542   7.845   2.253  0.8356  0.3033  0.3957
30716SOL     OW94779   6.998  10.084   4.093 -0.4923  0.0442  0.4894
30716SOL    HW194780   6.961  10.127   4.016  1.0567  0.7581  0.1029
30716SOL    HW294781   6.970  10.138   4.167  0.1735  0.8506  0.1570
30717SOL     OW94782   4.030   5.364   8.782 -0.0639  0.4428 -0.2667
30717SOL    HW194783   4.111   5.354   8.833 -1.4764 -1.5169  1.7640
30717SOL    HW294784   3.985   5.438   8.823 -0.7867 -0.5657  0.8019
30718SOL     OW94785   8.742   4.017   1.398  0.2525 -0.2913  0.7564
30718SOL    HW194786   8.835   4.015   1.424  0.1331  0.0624  1.2312
30718SOL    HW294787   8.702   3.946   1.448  0.7432 -2.1918 -1.4223
30719SOL     OW94788   5.418   6.404   9.171  0.0108  0.1276  0.3906
30719SOL    HW194789   5.390   6.438   9.086  0.2260  0.2204  0.3568
30719SOL    HW294790   5.477   6.332   9.149  0.6837  0.6574  0.4609
30720SOL     OW94791   8.363   5.301   6.301 -0.5785  0.1656  0.0016
30720SOL    HW194792   8.279   5.268   6.271 -0.6460 -1.0475  1.3799
30720SOL    HW294793   8.414   5.222   6.320  0.3079  0.8674  0.6540
30721SOL     OW94794   3.527   9.691   2.945  0.3875  0.0173 -0.7116
30721SOL    HW194795   3.517   9.680   2.851 -1.0571 -1.1987 -0.4542
30721SOL    HW294796   3.558   9.782   2.956  0.6370  0.1521 -2.3254
30722SOL     OW94797   9.247   5.445   6.427  0.0558  0.1117 -0.0095
30722SOL    HW194798   9.303   5.501   6.374  0.8143 -0.3185  0.3168
30722SOL    HW294799   9.232   5.367   6.372  0.5641 -0.1864  0.2675
30723SOL     OW94800   6.242   5.874   3.673 -0.4286 -0.0571 -0.0105
30723SOL    HW194801   6.159   5.894   3.629 -0.8542  0.3958  0.9688
30723SOL    HW294802   6.217   5.833   3.755  0.1888  2.3228  1.4568
30724SOL     OW94803   1.382   6.947   2.499 -0.2943 -0.0307  0.1934
30724SOL    HW194804   1.320   7.016   2.473  1.2316  0.5189 -2.3455
30724SOL    HW294805   1.465   6.973   2.458  0.7609 -2.5219  0.5679
30725SOL     OW94806   3.253   5.174   9.599 -0.1264 -0.2786 -0.0073
30725SOL    HW194807   3.170   5.141   9.632 -1.9311  1.3740 -2.4574
30725SOL    HW294808   3.277   5.113   9.529  0.2406 -0.2551  0.0990
30726SOL     OW94809   7.483   4.852   7.605 -0.2178 -0.0885  0.2923
30726SOL    HW194810   7.512   4.787   7.669  1.0557 -0.4049 -0.5757
30726SOL    HW294811   7.511   4.936   7.642 -0.9277 -0.1100  0.9070
30727SOL     OW94812   9.417   6.547   6.617 -0.6221  0.2753 -0.0223
30727SOL    HW194813   9.504   6.530   6.653 -1.0583 -0.0506  0.8843
30727SOL    HW294814   9.357   6.530   6.689 -1.4483  0.4361 -0.6621
30728SOL     OW94815   0.376   3.054   1.881  0.0399  0.4215  0.3848
30728SOL    HW194816   0.355   3.139   1.841 -0.2926  0.5040  0.7273
30728SOL    HW294817   0.414   3.003   1.810  0.0806  0.7987  0.1310
30729SOL     OW94818   7.911   5.474  10.233 -0.6356 -0.0476 -0.1537
30729SOL    HW194819   7.887   5.566  10.229  0.7946  0.3397 -0.5864
30729SOL    HW294820   7.830   5.427  10.215 -1.7500  1.0682  1.7048
30730SOL     OW94821   3.843   5.936   3.800  0.1111 -0.6097  0.1883
30730SOL    HW194822   3.851   5.927   3.705  2.1775 -1.7659  0.4199
30730SOL    HW294823   3.925   5.976   3.828 -0.5106 -0.1815  1.4817
30731SOL     OW94824   1.546  10.219   5.034  0.6144 -0.0974 -0.3801
30731SOL    HW194825   1.582  10.190   5.118  2.5535 -0.6754 -1.3538
30731SOL    HW294826   1.596  10.298   5.013  1.2114 -0.8002 -1.6818
30732SOL     OW94827   7.321   9.075   2.433 -0.0362  0.2287 -0.2765
30732SOL    HW194828   7.348   9.010   2.369 -0.2075  0.1907 -0.3101
30732SOL    HW294829   7.341   9.036   2.518  1.2940  0.7560 -0.3199
30733SOL     OW94830   1.323   7.642   9.196  0.8072 -0.0627  0.2353
30733SOL    HW194831   1.408   7.677   9.221  0.6067  2.1637 -1.7787
30733SOL    HW294832   1.337   7.547   9.187  3.8318  0.4577 -2.4717
30734SOL     OW94833   1.336   3.702   1.087  0.2086  0.0737 -0.3287
30734SOL    HW194834   1.423   3.720   1.124  0.5352 -1.7807 -0.0921
30734SOL    HW294835   1.276   3.721   1.159  0.4495  1.0198 -0.3724
30735SOL     OW94836   0.367   3.941   6.442 -0.8738  0.2426 -0.5209
30735SOL    HW194837   0.302   3.994   6.397 -1.9142 -1.5653 -1.2066
30735SOL    HW294838   0.331   3.853   6.444  0.0328 -0.1697  2.1013
30736SOL     OW94839   9.027   2.265   5.530  0.3243  0.2849 -0.3431
30736SOL    HW194840   9.012   2.357   5.510  0.6584  0.5469  0.5634
30736SOL    HW294841   8.940   2.227   5.538  0.1859  0.5670 -0.4994
30737SOL     OW94842   8.198   2.981   9.326 -0.7095  0.1368  0.4258
30737SOL    HW194843   8.128   2.922   9.297  1.4169 -1.4580 -1.8545
30737SOL    HW294844   8.220   3.032   9.248  3.1097 -2.0477 -0.1745
30738SOL     OW94845   5.839   3.039   2.479 -0.0140  0.1260  0.2579
30738SOL    HW194846   5.933   3.023   2.469 -0.1775 -2.5088  1.9574
30738SOL    HW294847   5.833   3.092   2.559 -0.0297 -2.1547  1.8538
30739SOL     OW94848   9.845   6.678   8.522 -0.1361 -0.2037 -0.6458
30739SOL    HW194849   9.857   6.588   8.552 -1.4508 -0.7386 -1.6147
30739SOL    HW294850   9.892   6.682   8.439  1.5841  0.6166  0.3072
30740SOL     OW94851   5.108  10.135   5.583  0.0437 -0.4311 -0.3922
30740SOL    HW194852   5.085  10.043   5.573 -0.7672 -0.0468 -3.2207
30740SOL    HW294853   5.144  10.159   5.497  1.0851  1.6647  0.5725
30741SOL     OW94854   1.893   5.823   2.652  0.2031  0.7547 -0.4135
30741SOL    HW194855   1.854   5.740   2.623  2.2138 -0.0242 -1.0975
30741SOL    HW294856   1.818   5.882   2.664 -1.1356 -0.4974 -2.0396
30742SOL     OW94857   6.031   7.616   4.509 -0.9815 -0.0173 -0.1918
30742SOL    HW194858   6.108   7.669   4.531 -1.1982 -0.6504  2.3355
30742SOL    HW294859   5.965   7.643   4.572 -1.6829 -1.9977 -0.0327
30743SOL     OW94860   1.640   2.672   7.596 -0.4041  0.2796 -0.0563
30743SOL    HW194861   1.694   2.684   7.518 -1.4174 -0.4603 -0.9062
30743SOL    HW294862   1.660   2.748   7.651  1.1900  0.2292 -0.5042
30744SOL     OW94863   5.212   3.958   7.520 -0.3168  0.3764  0.3663
30744SOL    HW194864   5.171   3.882   7.478  0.5668  0.0896 -0.0081
30744SOL    HW294865   5.161   4.033   7.489 -0.2646  0.0739 -0.4808
30745SOL     OW94866   8.425   8.791   6.914 -0.5687 -0.0059  0.0070
30745SOL    HW194867   8.358   8.857   6.898  0.8569  1.1361 -1.5401
30745SOL    HW294868   8.416   8.730   6.841  0.8673  0.8724 -0.9503
30746SOL     OW94869   6.634   3.619   5.169 -0.3245  0.4638  0.0170
30746SOL    HW194870   6.657   3.598   5.260  0.6418  1.0970 -0.0615
30746SOL    HW294871   6.581   3.545   5.140 -0.5661  0.2084  1.0661
30747SOL     OW94872   9.688   9.212   3.381  0.2970 -0.3844 -0.7756
30747SOL    HW194873   9.667   9.288   3.327  0.9596 -0.1536 -0.7117
30747SOL    HW294874   9.612   9.155   3.372 -0.5063  0.5725 -0.3022
30748SOL     OW94875  10.124   5.848   3.868 -0.0234 -0.0999 -0.1741
30748SOL    HW194876  10.182   5.799   3.810  0.2795  0.5865 -0.4650
30748SOL    HW294877  10.040   5.802   3.863 -0.4433  0.8249 -2.3645
30749SOL     OW94878   5.438   0.792   2.824 -0.6750 -0.0826 -0.2579
30749SOL    HW194879   5.384   0.803   2.746  0.4120  2.4789 -0.7698
30749SOL    HW294880   5.419   0.870   2.876 -0.1575 -0.9547  1.2887
30750SOL     OW94881   6.202   7.463   7.033  0.1271  0.9274 -0.2901
30750SOL    HW194882   6.107   7.467   7.045 -0.0146 -1.1533 -0.3385
30750SOL    HW294883   6.239   7.492   7.116 -0.4522  3.2602 -0.7537
30751SOL     OW94884   1.071   5.847   4.547  0.3666 -0.0071 -0.6016
30751SOL    HW194885   1.088   5.922   4.489 -1.8683  1.7108  0.8125
30751SOL    HW294886   1.014   5.790   4.496 -0.1098  0.5917 -0.7465
30752SOL     OW94887   5.025  10.076   3.000  0.1739 -0.2074 -0.3247
30752SOL    HW194888   4.997  10.111   2.916  1.6502  2.2307  0.1188
30752SOL    HW294889   4.950  10.023   3.029 -1.1737  0.5124 -2.2198
30753SOL     OW94890   4.624   4.356  10.339  0.5155  0.1749  1.0050
30753SOL    HW194891   4.688   4.409  10.387 -0.1717  0.8105  1.2400
30753SOL    HW294892   4.545   4.411  10.336 -0.0761 -0.6670  0.8845
30754SOL     OW94893   1.146   8.400   0.316  0.2427  0.5290 -0.1732
30754SOL    HW194894   1.233   8.438   0.329  0.0283  1.5685 -1.5676
30754SOL    HW294895   1.164   8.308   0.296  0.8776  0.2522  1.5331
30755SOL     OW94896   2.972   2.918   6.002 -0.5483  0.0275  0.2177
30755SOL    HW194897   2.895   2.869   6.030 -0.0867 -0.5389  0.5326
30755SOL    HW294898   3.017   2.941   6.083  0.4056 -0.9712  0.0050
30756SOL     OW94899   0.178   4.825   7.106 -0.3596  0.2840 -0.6198
30756SOL    HW194900   0.269   4.819   7.135 -0.9047 -0.6730  1.0518
30756SOL    HW294901   0.173   4.767   7.030  0.4700  0.5005 -0.8462
30757SOL     OW94902   1.953   4.318   1.163  0.4155  0.4792  0.4116
30757SOL    HW194903   2.027   4.375   1.181 -0.0515  0.7474  1.5851
30757SOL    HW294904   1.879   4.360   1.206 -0.4572  0.2888 -0.8596
30758SOL     OW94905   2.353   0.270   8.134 -0.7091  0.1585  0.3143
30758SOL    HW194906   2.413   0.201   8.105  0.0553 -0.0082  2.2005
30758SOL    HW294907   2.309   0.232   8.210 -0.9982  1.4000  0.7784
30759SOL     OW94908   0.496   0.872   6.164  0.2361 -0.0026 -0.6996
30759SOL    HW194909   0.506   0.896   6.256 -2.0294  0.2248 -0.4467
30759SOL    HW294910   0.525   0.781   6.159  2.6943  0.6788 -0.3186
30760SOL     OW94911   9.062   3.510   3.158 -0.5702  0.2423  0.5175
30760SOL    HW194912   9.024   3.496   3.071 -0.4640 -1.3032  0.6942
30760SOL    HW294913   9.014   3.450   3.215  0.3632  0.1565  1.2404
30761SOL     OW94914   3.320   2.636   2.627  0.0344  0.3629  0.3187
30761SOL    HW194915   3.237   2.682   2.614 -0.7625 -0.9257  0.6555
30761SOL    HW294916   3.346   2.658   2.717 -0.2193  0.3726  0.3914
30762SOL     OW94917   0.801   0.319   0.400 -0.2360 -0.1530 -0.0907
30762SOL    HW194918   0.762   0.356   0.320 -1.7305 -2.1127 -0.3353
30762SOL    HW294919   0.800   0.224   0.386  1.1572 -0.4614  1.5349
30763SOL     OW94920   8.426   5.309   2.745  0.2568 -0.2450 -0.3609
30763SOL    HW194921   8.354   5.367   2.768  1.9577  0.9040  2.7525
30763SOL    HW294922   8.407   5.228   2.792  0.2815 -0.4360 -0.6843
30764SOL     OW94923   4.154   5.118   8.253 -0.5723  0.1883  0.5727
30764SOL    HW194924   4.237   5.161   8.271 -0.1371 -0.6637  0.6117
30764SOL    HW294925   4.178   5.033   8.216 -1.4126  0.7239 -1.3219
30765SOL     OW94926   3.016   5.668   2.045  0.1113 -0.9366 -0.0206
30765SOL    HW194927   3.104   5.648   2.076  0.2456 -0.4006 -0.0409
30765SOL    HW294928   3.006   5.762   2.061  0.1450 -0.6610 -1.4764
30766SOL     OW94929   2.594   2.612   1.377  0.2913 -0.1497 -0.1977
30766SOL    HW194930   2.646   2.541   1.416 -1.2457  0.4171  3.3388
30766SOL    HW294931   2.637   2.692   1.407  0.5292  0.4415 -2.0049
30767SOL     OW94932   7.706   8.479   2.349  0.7420  0.9071  0.2921
30767SOL    HW194933   7.706   8.414   2.279 -0.6244  0.6287  0.5230
30767SOL    HW294934   7.615   8.509   2.355  1.0189  1.6291  1.2985
30768SOL     OW94935   9.553   5.858   2.031 -0.2612  0.5276  0.0423
30768SOL    HW194936   9.564   5.886   1.940 -0.0554  1.0444  0.2225
30768SOL    HW294937   9.618   5.789   2.043 -0.6799  0.0479 -0.3675
30769SOL     OW94938   1.856   6.216   3.760  0.1061 -0.2086  0.3479
30769SOL    HW194939   1.878   6.309   3.750  0.2105 -0.2266  0.4040
30769SOL    HW294940   1.913   6.171   3.698 -0.2405 -0.1999  0.0223
30770SOL     OW94941   3.765   9.811   0.718  0.3145  0.1534  0.0003
30770SOL    HW194942   3.767   9.725   0.760  0.0079  1.1081  2.0900
30770SOL    HW294943   3.679   9.814   0.676  0.1469 -0.3927  0.2849
30771SOL     OW94944   6.141  10.142   3.391 -0.3706 -0.2079  0.2576
30771SOL    HW194945   6.138  10.169   3.299 -1.7161 -2.1210 -0.3155
30771SOL    HW294946   6.077  10.199   3.434  0.5710  0.9875  0.1404
30772SOL     OW94947   2.945   3.832   3.124  0.1757  0.1474  0.0840
30772SOL    HW194948   3.022   3.838   3.181  0.7705 -0.0697 -0.6816
30772SOL    HW294949   2.924   3.923   3.103  2.0049  0.1598 -2.0207
30773SOL     OW94950   4.735   6.368   8.235 -0.1491 -0.4016 -0.5345
30773SOL    HW194951   4.753   6.299   8.171  1.1250  0.4311 -1.1180
30773SOL    HW294952   4.773   6.336   8.316 -0.0489 -0.6212 -0.6671
30774SOL     OW94953   3.351   9.745   6.281 -0.2169  0.0885 -0.1570
30774SOL    HW194954   3.318   9.675   6.225  0.8735 -0.7882  0.2845
30774SOL    HW294955   3.272   9.788   6.314 -1.0204 -2.6260  1.7299
30775SOL     OW94956   0.833   6.930   1.278 -0.0380  0.2849  0.3282
30775SOL    HW194957   0.823   6.916   1.184  0.1112 -0.5842  0.4291
30775SOL    HW294958   0.797   7.017   1.294 -0.6697  0.1693 -0.4294
30776SOL     OW94959   9.999   0.259   8.574 -0.0647  0.5268 -0.5134
30776SOL    HW194960  10.086   0.251   8.536  0.0859  1.1107 -0.3052
30776SOL    HW294961   9.992   0.351   8.598  1.0580 -0.2349  3.6138
30777SOL     OW94962   5.470   2.294   4.606  0.0647 -0.1398  0.0709
30777SOL    HW194963   5.460   2.350   4.529 -1.2349  1.5564  1.3879
30777SOL    HW294964   5.394   2.235   4.602 -2.3623  2.5640  1.9948
30778SOL     OW94965   4.895   2.734   9.886 -0.0731 -0.0148  0.1554
30778SOL    HW194966   4.975   2.767   9.845 -0.6924 -0.5835 -1.6113
30778SOL    HW294967   4.828   2.741   9.818 -1.2908 -0.5112  1.2578
30779SOL     OW94968   6.484   2.014   7.467 -0.3591 -0.0729  0.2417
30779SOL    HW194969   6.564   2.031   7.516 -0.9949 -1.6287  1.9464
30779SOL    HW294970   6.467   1.921   7.481 -3.5934  0.6016  1.7380
30780SOL     OW94971   8.172   7.863   4.417  0.3681 -0.1928  0.0134
30780SOL    HW194972   8.251   7.809   4.406 -0.5657 -1.3965 -1.1225
30780SOL    HW294973   8.171   7.885   4.510 -0.0478 -3.5960  0.9515
30781SOL     OW94974   3.079   0.065   4.769 -0.1325 -0.3921  0.2475
30781SOL    HW194975   3.005   0.087   4.826  0.1676 -1.2766  0.9914
30781SOL    HW294976   3.112  -0.018   4.803  0.3779 -0.6771 -0.9051
30782SOL     OW94977   0.297   7.899   6.359  0.8441  0.4498  0.6563
30782SOL    HW194978   0.372   7.914   6.302 -1.1212 -0.7817 -2.5054
30782SOL    HW294979   0.282   7.805   6.356 -1.4431  0.7572  0.2415
30783SOL     OW94980   0.743   0.079   6.827  0.2996 -0.6782  0.5174
30783SOL    HW194981   0.734  -0.010   6.863  0.0222 -0.7675  0.2381
30783SOL    HW294982   0.655   0.099   6.794  0.0977  0.0993  1.4885
30784SOL     OW94983   2.725   5.638   4.737 -0.5055  0.2577  0.2570
30784SOL    HW194984   2.632   5.641   4.715 -0.8799 -0.5600  1.5955
30784SOL    HW294985   2.730   5.576   4.810  0.6645  2.3733  2.0954
30785SOL     OW94986   6.512   3.097   7.760 -0.4857  0.4159  0.4054
30785SOL    HW194987   6.563   3.036   7.814 -1.0318 -1.5111 -1.1290
30785SOL    HW294988   6.423   3.061   7.760 -1.0104  1.6491  0.0413
30786SOL     OW94989   0.323   4.561   9.050 -0.2149  0.2967  0.8493
30786SOL    HW194990   0.326   4.627   8.981  1.3199 -1.9845 -1.4585
30786SOL    HW294991   0.413   4.528   9.056 -1.1100 -2.3563  1.0480
30787SOL     OW94992   4.225   2.010   5.281  0.1658 -0.0545 -0.2391
30787SOL    HW194993   4.159   2.052   5.226 -1.7795 -1.8929  0.5423
30787SOL    HW294994   4.261   2.082   5.333  1.1271  1.5088 -2.8604
30788SOL     OW94995   8.780   5.679   5.083  0.0525  0.3143  0.0785
30788SOL    HW194996   8.814   5.698   4.995 -1.0361 -1.2851 -0.7358
30788SOL    HW294997   8.766   5.584   5.083 -0.2068  0.3247  1.9123
30789SOL     OW94998   7.010   4.605   3.997 -0.1348 -0.2531 -0.1970
30789SOL    HW194999   7.024   4.700   3.993 -3.1631  0.3555  1.1446
30789SOL    HW295000   6.952   4.586   3.923  0.8235 -1.2107 -0.7417
30790SOL     OW95001   0.532   8.647   0.304 -0.0432 -0.2646 -0.7161
30790SOL    HW195002   0.471   8.718   0.290  0.3948  0.2282 -0.1822
30790SOL    HW295003   0.482   8.568   0.285 -1.1048  0.0746  0.4985
30791SOL     OW95004   4.573   7.016   6.474  0.4079 -0.4733 -0.0063
30791SOL    HW195005   4.564   6.960   6.397  0.3071  0.7319 -0.8944
30791SOL    HW295006   4.666   7.010   6.496  0.9929  1.0862 -1.7621
30792SOL     OW95007   9.682   3.913   9.809 -0.1348 -0.0990 -0.1204
30792SOL    HW195008   9.641   3.997   9.788  0.2667  0.3467  0.8482
30792SOL    HW295009   9.775   3.927   9.791 -0.0526 -0.3024  0.1406
30793SOL     OW95010   9.074   7.158   5.968 -0.4661 -0.1085  0.3835
30793SOL    HW195011   9.040   7.219   5.902 -1.6901 -0.1422  0.9528
30793SOL    HW295012   8.996   7.125   6.012  0.2637 -1.0551  1.0045
30794SOL     OW95013   4.027   5.411   6.060  0.3029  0.3425 -0.1752
30794SOL    HW195014   3.932   5.424   6.066  0.1446 -0.8259  0.2373
30794SOL    HW295015   4.057   5.478   5.999 -0.6330  1.3957  0.4860
30795SOL     OW95016   9.684   4.248   4.133  0.2935  0.6359 -0.0409
30795SOL    HW195017   9.665   4.196   4.055 -1.5159 -0.1170  0.8282
30795SOL    HW295018   9.681   4.339   4.104 -2.4095  0.4703 -0.5209
30796SOL     OW95019   3.162   8.855   1.031  0.8701  0.8781  0.4270
30796SOL    HW195020   3.213   8.871   0.952  2.7695 -0.3452  1.3507
30796SOL    HW295021   3.175   8.763   1.050 -1.9502  0.4196  0.5873
30797SOL     OW95022   7.253   8.340   0.768 -0.1249  0.2684  0.6678
30797SOL    HW195023   7.347   8.335   0.782 -0.0064  0.4057 -0.0278
30797SOL    HW295024   7.225   8.417   0.819  0.1625  0.3305  0.7327
30798SOL     OW95025   2.269   6.131   3.617 -0.3781 -0.2207  0.6031
30798SOL    HW195026   2.182   6.136   3.576 -1.2488 -1.6680  2.1278
30798SOL    HW295027   2.313   6.212   3.591 -1.2948 -0.4755 -2.1147
30799SOL     OW95028   2.491   1.709   8.482  0.5892  0.6947 -0.4659
30799SOL    HW195029   2.529   1.625   8.457 -0.0784  0.4950 -0.8405
30799SOL    HW295030   2.491   1.760   8.401 -0.4185  0.5002 -0.5971
30800SOL     OW95031   1.017   0.163   4.508 -0.0737  0.0993 -0.1027
30800SOL    HW195032   0.968   0.128   4.583 -1.7204  0.8263 -0.7834
30800SOL    HW295033   1.024   0.257   4.527  1.5282 -0.0601  0.2070
30801SOL     OW95034   5.001   7.064   5.124 -0.2748 -0.5901 -0.4305
30801SOL    HW195035   5.042   7.116   5.193 -0.7447  1.0650 -1.3201
30801SOL    HW295036   4.918   7.110   5.106 -1.8203 -2.9331  0.2520
30802SOL     OW95037   6.417   0.378   3.255  0.1939  0.1808  0.1386
30802SOL    HW195038   6.359   0.411   3.324  2.2089  0.5177  1.7494
30802SOL    HW295039   6.496   0.430   3.263  1.2802 -1.2100 -1.0425
30803SOL     OW95040   8.406   4.519   1.997  0.1211  0.0223 -0.1245
30803SOL    HW195041   8.483   4.549   2.045  1.9202 -0.2045 -2.6505
30803SOL    HW295042   8.415   4.423   1.996 -1.4219 -0.1907  1.3567
30804SOL     OW95043   2.054  10.039   5.586  0.4917  0.4036  0.1245
30804SOL    HW195044   2.016  10.069   5.504  0.7699  1.1580  0.2669
30804SOL    HW295045   1.996  10.073   5.654 -0.9184 -1.9336  0.2035
30805SOL     OW95046   2.892   1.971   9.369 -0.2848  0.3774  0.8605
30805SOL    HW195047   2.957   1.943   9.305  0.5694  0.3887  1.6899
30805SOL    HW295048   2.837   1.894   9.384 -0.4995  0.3823  0.1168
30806SOL     OW95049   7.586   7.259   3.076  0.0373  0.3367  0.0684
30806SOL    HW195050   7.670   7.213   3.067 -0.1804  0.0089 -0.3280
30806SOL    HW295051   7.526   7.209   3.021  0.2220  2.1191 -1.8807
30807SOL     OW95052   7.228   4.937   2.119  0.1279  0.1825 -0.4261
30807SOL    HW195053   7.296   4.882   2.082 -0.7939 -0.1523 -1.6790
30807SOL    HW295054   7.176   4.879   2.174 -0.3611 -0.0348 -1.1064
30808SOL     OW95055   1.856   4.897   1.796 -0.0643 -0.5428 -0.3854
30808SOL    HW195056   1.906   4.978   1.788 -0.2492 -0.3834  0.0730
30808SOL    HW295057   1.922   4.829   1.809  0.0450 -0.3671 -0.0217
30809SOL     OW95058   7.470   7.220   0.145 -0.0643 -0.0433  0.2565
30809SOL    HW195059   7.548   7.261   0.183  0.1257  0.3261 -0.5005
30809SOL    HW295060   7.429   7.173   0.218  0.3192  0.5847  0.8867
30810SOL     OW95061   1.147   8.151   1.990 -0.0539 -0.4044 -0.2435
30810SOL    HW195062   1.200   8.084   2.032  0.2554  0.4412  0.7403
30810SOL    HW295063   1.154   8.131   1.896 -1.1914 -2.6309  0.0718
30811SOL     OW95064   9.452   1.936   0.109  0.3881  0.1897 -0.2468
30811SOL    HW195065   9.453   1.928   0.204  0.8420  0.6009 -0.2170
30811SOL    HW295066   9.435   1.847   0.078 -0.7324  0.2288  0.2340
30812SOL     OW95067   6.964   4.840   8.245 -0.7416 -0.0878 -0.2305
30812SOL    HW195068   6.933   4.918   8.200  0.1820 -0.1529 -1.0035
30812SOL    HW295069   6.991   4.870   8.331 -2.1791  0.1023  0.1770
30813SOL     OW95070  10.221   8.896   7.311  0.5181  0.7952  0.0093
30813SOL    HW195071  10.212   8.991   7.311  0.1417  0.8423  2.6432
30813SOL    HW295072  10.303   8.879   7.356 -0.5420 -0.1086  1.7204
30814SOL     OW95073  10.176   2.946   7.203  0.0486  0.3981  0.0324
30814SOL    HW195074  10.203   3.031   7.237 -0.5535 -0.0235  1.6492
30814SOL    HW295075  10.243   2.924   7.138  1.1200  1.3691  0.7696
30815SOL     OW95076   8.765   3.210   1.982  0.2224  0.5613  0.2129
30815SOL    HW195077   8.750   3.269   2.055 -0.9476 -1.3523  1.6128
30815SOL    HW295078   8.689   3.220   1.925  0.5989  1.2265 -0.1930
30816SOL     OW95079   3.309   7.545   5.048  0.3380 -0.3401 -0.2662
30816SOL    HW195080   3.238   7.608   5.038  0.5897  0.0960  0.5384
30816SOL    HW295081   3.275   7.463   5.013  0.2326  0.3881 -1.9199
30817SOL     OW95082   4.178   8.516   3.097  0.2475 -0.6531 -0.7295
30817SOL    HW195083   4.272   8.502   3.086  0.2120 -1.5407 -0.0310
30817SOL    HW295084   4.162   8.602   3.058  1.2322 -0.7691 -1.4295
30818SOL     OW95085   9.391   5.874   0.905 -0.1275  0.4409  0.9602
30818SOL    HW195086   9.412   5.937   0.836 -0.3746  0.6217  1.0499
30818SOL    HW295087   9.467   5.817   0.908  0.1471  0.7986  0.9498
30819SOL     OW95088   7.124   3.855   4.317 -0.2254  0.3850 -0.0214
30819SOL    HW195089   7.101   3.946   4.300 -0.7013  0.3329  0.3285
30819SOL    HW295090   7.185   3.832   4.247  1.2770  1.5072  0.8509
30820SOL     OW95091   4.614   3.083   9.309 -0.4786  0.4065  0.4797
30820SOL    HW195092   4.648   3.137   9.381 -1.3026  0.7873  0.6031
30820SOL    HW295093   4.598   3.146   9.238 -3.5889  0.8162  1.3612
30821SOL     OW95094   4.326   3.835   1.706  0.0215 -0.6473 -0.4657
30821SOL    HW195095   4.418   3.847   1.730  0.0702  0.3723 -1.1053
30821SOL    HW295096   4.295   3.923   1.687 -1.0821 -0.9905 -0.3160
30822SOL     OW95097   3.498   5.256   4.996  0.4510  0.1795 -0.6405
30822SOL    HW195098   3.461   5.343   5.013 -0.8246 -0.3058 -0.7871
30822SOL    HW295099   3.500   5.213   5.081  1.4316  0.4656 -0.5073
30823SOL     OW95100  10.189   6.869   9.215 -0.4823 -0.4093  0.4342
30823SOL    HW195101  10.101   6.832   9.214 -0.6983 -0.0866  2.6678
30823SOL    HW295102  10.245   6.795   9.238 -0.4593 -0.1431  1.2478
30824SOL     OW95103   3.197   2.904  10.198 -0.6209 -0.1490 -0.1533
30824SOL    HW195104   3.274   2.920  10.252 -1.6255 -1.3957  1.7195
30824SOL    HW295105   3.136   2.857  10.254 -2.7906  0.7869 -1.5590
30825SOL     OW95106   1.570   1.314   4.331 -0.1250  0.6693 -0.2098
30825SOL    HW195107   1.544   1.383   4.271 -1.8715  1.2996  1.1781
30825SOL    HW295108   1.493   1.299   4.385  0.2322 -2.3149 -0.3748
30826SOL     OW95109   3.149   6.477   8.263  0.0997  0.1926 -0.1458
30826SOL    HW195110   3.187   6.544   8.206  1.3646 -0.7743 -0.4750
30826SOL    HW295111   3.134   6.403   8.205 -2.0362  0.4174  0.0497
30827SOL     OW95112   6.716  10.114   7.334  0.6550  0.5259 -0.3570
30827SOL    HW195113   6.794  10.062   7.315 -0.3520 -2.3121  2.3513
30827SOL    HW295114   6.667  10.115   7.252  1.3443 -1.7812 -0.8769
30828SOL     OW95115   8.409   8.287   9.927  0.2108  0.5071  0.5544
30828SOL    HW195116   8.393   8.348   9.855  1.1141  1.5841  1.2264
30828SOL    HW295117   8.322   8.266   9.961 -0.2231  0.0882 -0.7315
30829SOL     OW95118   7.663   0.032   4.873 -0.3492 -0.4423  0.1326
30829SOL    HW195119   7.584   0.017   4.924 -0.2198 -0.5592  0.2966
30829SOL    HW295120   7.730  -0.022   4.914 -0.0520  0.0513  0.3112
30830SOL     OW95121   0.545   8.702   4.695 -0.5140  0.8420 -0.2619
30830SOL    HW195122   0.536   8.636   4.626 -0.2333 -0.6017  1.0188
30830SOL    HW295123   0.547   8.785   4.649 -1.3196 -0.0116 -1.9154
30831SOL     OW95124   3.419   2.382   2.644  0.3668  0.3212 -0.0934
30831SOL    HW195125   3.502   2.401   2.687  0.2228  1.0500 -0.1148
30831SOL    HW295126   3.399   2.463   2.596 -1.8773  1.3711  2.3674
30832SOL     OW95127   7.887   6.209   3.872  0.1878 -0.2313 -0.5530
30832SOL    HW195128   7.801   6.216   3.913 -0.5346  0.2212 -2.1143
30832SOL    HW295129   7.920   6.299   3.870  0.6221 -0.3736 -0.1651
30833SOL     OW95130   1.780   1.287   0.473 -0.1462 -0.6939 -0.0218
30833SOL    HW195131   1.697   1.245   0.450 -0.5274 -0.1335  0.2922
30833SOL    HW295132   1.770   1.310   0.566 -0.4546  1.2043 -0.4843
30834SOL     OW95133   3.450   9.408   3.370 -0.1899  0.2883  0.2003
30834SOL    HW195134   3.532   9.457   3.364  0.2233 -0.5333 -1.1592
30834SOL    HW295135   3.430   9.384   3.280 -1.1967 -0.7115  0.6784
30835SOL     OW95136   2.495   6.237  10.175  0.4283  0.1688  0.1428
30835SOL    HW195137   2.459   6.299  10.111  0.6200 -0.3145 -0.4493
30835SOL    HW295138   2.426   6.228  10.241 -1.9236 -2.9358 -2.4174
30836SOL     OW95139   2.569   8.434   2.964 -0.0452 -0.0875 -0.1093
30836SOL    HW195140   2.518   8.356   2.942 -0.3144  0.3968 -1.3091
30836SOL    HW295141   2.530   8.503   2.910  1.6158  0.3781 -0.7816
30837SOL     OW95142   2.298   2.325   5.708  0.1224  0.4811  0.4382
30837SOL    HW195143   2.353   2.316   5.786 -0.4582 -1.1125  0.7154
30837SOL    HW295144   2.233   2.391   5.732 -0.7085 -0.7335  1.7612
30838SOL     OW95145   9.286   6.352   3.763 -0.3928 -0.3132 -0.1282
30838SOL    HW195146   9.321   6.274   3.718  0.2885  0.1878 -0.4895
30838SOL    HW295147   9.193   6.333   3.775 -0.2228 -1.2198 -0.1419
30839SOL     OW95148   6.125   1.356   7.888 -0.1783  0.1794  0.1247
30839SOL    HW195149   6.177   1.281   7.918  1.5530  0.4929 -1.8775
30839SOL    HW295150   6.072   1.380   7.964  1.6129 -1.0157  1.8482
30840SOL     OW95151   9.777   6.479  10.227  0.3482  0.1481 -0.3615
30840SOL    HW195152   9.871   6.460  10.227  0.3533  0.1744 -0.2255
30840SOL    HW295153   9.767   6.552  10.165  0.3242 -0.3250 -0.9287
30841SOL     OW95154   5.855   5.971   4.591 -0.3524  0.2738  0.4571
30841SOL    HW195155   5.833   5.979   4.684 -1.0945  1.7639  0.1914
30841SOL    HW295156   5.850   6.061   4.558  0.7234 -0.1177 -0.8549
30842SOL     OW95157   1.594   2.579   3.763 -0.2331 -0.6325 -0.3160
30842SOL    HW195158   1.505   2.562   3.735 -0.4618  0.8703 -0.5362
30842SOL    HW295159   1.638   2.615   3.686 -0.2571  1.3894  0.5586
30843SOL     OW95160   8.669   4.648   6.934 -0.2320 -0.0680  0.0649
30843SOL    HW195161   8.657   4.568   6.882 -0.2084  1.1574 -1.9231
30843SOL    HW295162   8.582   4.666   6.970 -0.1571 -1.1535  0.8467
30844SOL     OW95163   4.530   3.853   3.074  0.1955 -0.0308 -0.1798
30844SOL    HW195164   4.587   3.926   3.050  1.0319 -0.3995  0.6555
30844SOL    HW295165   4.557   3.781   3.016  1.9894 -0.8196  1.5445
30845SOL     OW95166   1.424   4.670   2.173  0.0029 -0.4675 -0.1051
30845SOL    HW195167   1.513   4.652   2.141 -0.5878 -1.2133 -1.4078
30845SOL    HW295168   1.407   4.599   2.235  0.5065 -0.0204  0.5526
30846SOL     OW95169   7.472   0.189   6.657  0.0926 -0.3433 -0.0737
30846SOL    HW195170   7.457   0.260   6.719  1.1072 -0.6023  0.4868
30846SOL    HW295171   7.497   0.233   6.575  0.8059 -0.0435  0.2971
30847SOL     OW95172   8.271   3.514   5.818  0.1616  0.4586 -0.5246
30847SOL    HW195173   8.259   3.530   5.912  1.8920  0.8719 -0.3478
30847SOL    HW295174   8.255   3.600   5.777 -0.6068  0.2751 -0.6226
30848SOL     OW95175   1.415   6.249   8.564 -0.6228  0.6607 -0.0943
30848SOL    HW195176   1.440   6.207   8.481 -1.9533  1.5107 -0.9776
30848SOL    HW295177   1.320   6.234   8.570 -0.3779 -0.3887  1.8897
30849SOL     OW95178   8.889   7.292   3.338 -0.1611 -0.6594  0.2735
30849SOL    HW195179   8.937   7.360   3.290 -0.2901  0.2323  1.3605
30849SOL    HW295180   8.895   7.215   3.282  1.2479 -0.1570 -0.3251
30850SOL     OW95181   4.487   1.985   5.569  0.0532 -0.8303  0.0850
30850SOL    HW195182   4.500   1.891   5.585  0.6026 -0.8795 -0.6274
30850SOL    HW295183   4.462   1.990   5.477 -0.2265 -0.2941  0.1876
30851SOL     OW95184   7.922   4.225   6.067  0.6972 -0.0190  0.2177
30851SOL    HW195185   7.889   4.216   5.978 -0.1545  1.7964  0.3272
30851SOL    HW295186   7.845   4.247   6.119  1.6841  2.1082  0.8476
30852SOL     OW95187   3.611   4.506   3.937 -0.3765  0.4270  0.8320
30852SOL    HW195188   3.682   4.498   4.000 -0.4306  0.9486  0.9654
30852SOL    HW295189   3.538   4.543   3.987 -0.6892  0.0474  0.6610
30853SOL     OW95190   6.503   2.514   0.837 -0.3245  0.5170 -0.3324
30853SOL    HW195191   6.445   2.491   0.764 -0.5221  0.2056 -0.0852
30853SOL    HW295192   6.449   2.570   0.893  0.1034  1.4669 -0.8480
30854SOL     OW95193   0.815   9.864   2.392 -0.0233  0.4845  0.0114
30854SOL    HW195194   0.802   9.938   2.333  0.7361 -0.4089 -1.3229
30854SOL    HW295195   0.826   9.789   2.334  0.1463 -0.5316  1.3142
30855SOL     OW95196   8.286   4.938   7.199  0.8856  0.0561 -0.2380
30855SOL    HW195197   8.219   4.881   7.161  0.9858 -1.1917  1.3530
30855SOL    HW295198   8.342   4.962   7.125  0.6996 -1.7579 -1.0131
30856SOL     OW95199  10.258   0.646   7.100 -0.3055 -0.0745  0.8075
30856SOL    HW195200  10.260   0.557   7.066 -0.6668  0.1570  0.1792
30856SOL    HW295201  10.269   0.635   7.195 -0.8666 -0.8164  0.7939
30857SOL     OW95202  10.208   7.280   6.161 -0.1492 -0.3380  0.4245
30857SOL    HW195203  10.226   7.263   6.068 -0.6555  1.9230 -0.1483
30857SOL    HW295204  10.294   7.295   6.200 -0.0907  1.4662 -0.3228
30858SOL     OW95205   2.595   2.920   0.089  0.6742  0.1044 -0.3142
30858SOL    HW195206   2.502   2.941   0.083  0.1624 -0.8385  2.7050
30858SOL    HW295207   2.599   2.825   0.073  1.1642  0.1753 -0.6325
30859SOL     OW95208   6.064   0.587   3.168  0.0583  0.3452  0.4775
30859SOL    HW195209   6.020   0.614   3.088 -0.0787 -0.0246  0.4267
30859SOL    HW295210   6.085   0.669   3.213  0.0509  0.5504  0.1105
30860SOL     OW95211   8.939   5.022   7.851 -0.8428 -0.2393 -0.2621
30860SOL    HW195212   8.949   4.930   7.877  1.9978 -0.2996 -1.2866
30860SOL    HW295213   8.963   5.024   7.759 -1.4569  1.4626 -0.4131
30861SOL     OW95214   8.253   0.909   2.124  0.2164 -0.0145  0.5502
30861SOL    HW195215   8.168   0.915   2.166 -0.1125  0.9513 -0.2265
30861SOL    HW295216   8.258   0.819   2.091 -1.5601  0.5662 -1.5457
30862SOL     OW95217   1.949   7.581   9.438  0.0436 -0.4441 -0.0881
30862SOL    HW195218   1.995   7.562   9.356  2.8849 -0.0452  1.2883
30862SOL    HW295219   1.936   7.676   9.436 -1.1612 -0.5954 -0.6292
30863SOL     OW95220   2.626   5.208   3.173  0.4524  0.3980  0.5889
30863SOL    HW195221   2.619   5.298   3.205 -1.4633  0.7585 -0.6360
30863SOL    HW295222   2.676   5.216   3.092 -0.8352  0.6067 -0.2172
30864SOL     OW95223   1.507   8.804   9.448  0.4141 -0.1085  0.2974
30864SOL    HW195224   1.480   8.782   9.359 -1.2726  0.8568  0.5300
30864SOL    HW295225   1.490   8.725   9.499 -2.4359  0.5354  0.4903
30865SOL     OW95226   0.902   3.587   5.709  0.5542  0.6895 -0.1406
30865SOL    HW195227   0.968   3.647   5.744  1.6797  0.3347 -1.5441
30865SOL    HW295228   0.951   3.527   5.654 -0.9259  0.3024 -1.1023
30866SOL     OW95229   9.547  10.127   1.548 -0.2463  0.2744  0.3167
30866SOL    HW195230   9.588  10.064   1.489  0.3342 -0.4681  1.4791
30866SOL    HW295231   9.457  10.136   1.516  0.0830 -0.0222 -0.7273
30867SOL     OW95232   0.229   0.053   6.862 -0.5130  0.2140  0.5765
30867SOL    HW195233   0.167  -0.010   6.824  1.4290 -1.1526 -0.4664
30867SOL    HW295234   0.266   0.007   6.938  2.5270 -0.9514 -1.4229
30868SOL     OW95235   3.178   8.724   2.153  0.1066  0.6715  0.2179
30868SOL    HW195236   3.094   8.717   2.108 -0.8525  0.2068  1.9761
30868SOL    HW295237   3.228   8.787   2.101 -0.4802 -0.6746 -2.0902
30869SOL     OW95238   5.566   1.670   7.100  0.1866 -0.0219  0.1311
30869SOL    HW195239   5.571   1.613   7.023  1.9172  2.7820 -2.0237
30869SOL    HW295240   5.483   1.717   7.089  0.6256  0.6709 -0.2778
30870SOL     OW95241   3.840   3.437   9.475  0.1367 -0.0200 -0.3972
30870SOL    HW195242   3.911   3.456   9.536 -1.0202 -0.1161  1.0231
30870SOL    HW295243   3.781   3.512   9.482 -0.5981 -0.5753 -0.5144
30871SOL     OW95244   8.084   4.496   6.910 -0.4521 -0.0287 -0.0144
30871SOL    HW195245   8.091   4.487   7.006 -0.9988  0.0877  0.0375
30871SOL    HW295246   8.106   4.409   6.877  1.0591  0.2646  0.1427
30872SOL     OW95247   0.648   4.081   0.223 -0.0426  0.2724  0.0831
30872SOL    HW195248   0.666   4.084   0.317 -1.4780  0.6370  0.3661
30872SOL    HW295249   0.711   4.018   0.189  0.5258  0.1643  1.2801
30873SOL     OW95250   6.944   0.771   2.315  0.2359  0.5418  0.8819
30873SOL    HW195251   6.866   0.757   2.261 -0.4940  0.1503  2.0041
30873SOL    HW295252   6.933   0.859   2.351  0.2921  0.4749  1.0649
30874SOL     OW95253   8.106   0.620   8.781  0.6192 -0.4035  0.1061
30874SOL    HW195254   8.192   0.592   8.814  0.5448 -2.2831 -1.1449
30874SOL    HW295255   8.126   0.690   8.719  1.3200 -1.0978 -0.4802
30875SOL     OW95256   8.180   5.998   0.404  0.2602  0.7738  0.0007
30875SOL    HW195257   8.210   6.079   0.364 -1.6739  0.6259 -1.9242
30875SOL    HW295258   8.085   5.998   0.390 -0.0151 -1.0034  1.5070
30876SOL     OW95259   3.978   6.969   3.334 -0.5120 -0.0566  0.2523
30876SOL    HW195260   3.965   6.875   3.323  1.8395 -0.6054  1.4595
30876SOL    HW295261   4.061   6.987   3.289 -0.3733  1.2025  0.9751
30877SOL     OW95262   3.911   7.657   1.803 -0.5052  0.0510 -0.1719
30877SOL    HW195263   3.939   7.689   1.889 -0.4498 -0.7564  0.1148
30877SOL    HW295264   3.832   7.708   1.784 -1.1879 -0.5777  0.8911
30878SOL     OW95265   7.308   7.972   8.318  0.0604 -0.3679  0.0154
30878SOL    HW195266   7.232   7.997   8.266  0.6379  2.5464  0.4169
30878SOL    HW295267   7.358   7.914   8.260 -1.1925 -0.2930 -1.1930
30879SOL     OW95268   3.471   7.332   1.660  0.2943  0.6022  0.7842
30879SOL    HW195269   3.381   7.353   1.635  0.2483  0.2255  0.6258
30879SOL    HW295270   3.525   7.389   1.606  0.1360  1.2486  1.2990
30880SOL     OW95271   1.950   8.765   7.628  0.0091 -0.5183  0.6421
30880SOL    HW195272   1.972   8.854   7.653 -0.2660 -0.3217  0.1938
30880SOL    HW295273   2.010   8.744   7.557 -0.8639 -0.1719 -0.2236
30881SOL     OW95274   1.628  10.124   2.232 -0.2995  0.2259 -0.1222
30881SOL    HW195275   1.705  10.178   2.249 -0.5070  0.2733  0.7452
30881SOL    HW295276   1.595  10.101   2.320 -0.3735 -1.0892 -0.4782
30882SOL     OW95277  10.321   7.984   5.265  0.4528  0.2989  0.1082
30882SOL    HW195278  10.321   7.897   5.224  0.2530 -0.0826  0.8906
30882SOL    HW295279  10.413   8.012   5.262  0.4761  0.1738 -0.3836
30883SOL     OW95280   3.268   6.687   8.134  0.5202 -0.2322  0.2581
30883SOL    HW195281   3.358   6.718   8.150  0.3242  0.0847  0.7858
30883SOL    HW295282   3.219   6.767   8.113  0.6131 -0.5523 -1.2993
30884SOL     OW95283   9.311   9.774   4.597 -0.3483  0.3122  0.0575
30884SOL    HW195284   9.375   9.834   4.635 -0.4242 -0.8537  2.1973
30884SOL    HW295285   9.236   9.777   4.656 -0.0873 -2.3374  0.6588
30885SOL     OW95286   2.194   9.139   8.592  0.5363  0.1542  0.9283
30885SOL    HW195287   2.175   9.048   8.615 -1.8076  0.2449 -0.2908
30885SOL    HW295288   2.168   9.189   8.669 -1.9482  0.0286  0.2689
30886SOL     OW95289   6.138   0.673   9.648  0.1490 -0.3051  0.1969
30886SOL    HW195290   6.076   0.600   9.646  0.8985 -0.9241 -1.0243
30886SOL    HW295291   6.115   0.727   9.572  0.2648  0.1814  0.5013
30887SOL     OW95292   0.102   6.602   5.820 -0.5208 -0.6271 -0.4736
30887SOL    HW195293   0.081   6.688   5.856  3.0256  1.2269 -2.2155
30887SOL    HW295294   0.114   6.618   5.726  1.6028 -2.6372 -0.6477
30888SOL     OW95295   1.027   3.196   6.610 -0.5280  0.1078 -0.1114
30888SOL    HW195296   0.979   3.264   6.658 -1.2461  2.2115 -3.4231
30888SOL    HW295297   1.117   3.203   6.641 -0.7690  2.0010  0.2895
30889SOL     OW95298   3.360   9.945  10.086  0.0483 -0.1201 -0.2198
30889SOL    HW195299   3.373   9.851  10.075 -2.2032 -0.3766 -1.3452
30889SOL    HW295300   3.323   9.974  10.003 -3.1606  0.9256  1.3822
30890SOL     OW95301   3.684   0.668   6.736 -0.2753  0.1878 -0.0959
30890SOL    HW195302   3.643   0.679   6.650 -1.4728 -1.9927  0.1364
30890SOL    HW295303   3.777   0.681   6.720 -0.7145  2.6555 -1.1316
30891SOL     OW95304   1.154   4.192   5.149  0.1093  0.2795  0.7219
30891SOL    HW195305   1.137   4.142   5.229  1.0886 -1.6510 -0.2053
30891SOL    HW295306   1.248   4.183   5.134 -0.3577 -1.3505 -1.8245
30892SOL     OW95307   1.720   3.110   7.318  0.1201  0.0206 -0.0381
30892SOL    HW195308   1.759   3.185   7.364  0.5733 -0.1098 -0.2003
30892SOL    HW295309   1.627   3.115   7.338 -0.3461  2.2978 -2.3708
30893SOL     OW95310   9.630   3.333   5.876 -0.4956 -0.0046 -0.1454
30893SOL    HW195311   9.649   3.361   5.966  0.9157  1.3645 -0.8447
30893SOL    HW295312   9.716   3.321   5.835 -1.0848  1.6074 -1.9797
30894SOL     OW95313   3.903   6.660   5.243 -0.1053  0.2694  0.4136
30894SOL    HW195314   3.987   6.614   5.237 -0.0735  0.5295 -1.6075
30894SOL    HW295315   3.867   6.656   5.155 -1.9359  0.7379  1.0988
30895SOL     OW95316   3.045   1.886   8.538 -0.6399 -0.1549 -0.5102
30895SOL    HW195317   2.958   1.904   8.575 -1.0108  0.5232 -1.6600
30895SOL    HW295318   3.094   1.846   8.610 -2.3109 -1.7972 -0.2081
30896SOL     OW95319   4.679   2.882   4.466 -0.5172 -0.3527 -0.4112
30896SOL    HW195320   4.623   2.813   4.503  0.3336 -0.8194  0.0354
30896SOL    HW295321   4.711   2.845   4.384 -0.5655 -0.2313 -0.4853
30897SOL     OW95322   2.517   9.303   4.803 -0.0048  1.0363 -0.2898
30897SOL    HW195323   2.443   9.363   4.810 -0.8159 -0.0697  1.4174
30897SOL    HW295324   2.566   9.315   4.884  0.8668  0.7280 -0.7599
30898SOL     OW95325   9.426   2.500   3.253 -0.0472 -0.2130 -0.1788
30898SOL    HW195326   9.377   2.418   3.260  1.1385 -0.8433  1.3003
30898SOL    HW295327   9.376   2.563   3.306 -0.1024 -0.4141  0.0071
30899SOL     OW95328   3.607   9.017   4.751 -0.3195  0.7421 -0.5301
30899SOL    HW195329   3.674   9.038   4.686  0.0499  1.7908  0.1632
30899SOL    HW295330   3.657   8.994   4.830 -0.7682 -0.1929 -0.5002
30900SOL     OW95331   2.537   0.313   0.990  0.2414  0.1203  0.1860
30900SOL    HW195332   2.483   0.237   1.011  0.6301  0.0447  0.9178
30900SOL    HW295333   2.585   0.332   1.070  0.3645  0.9622 -0.0788
30901SOL     OW95334   9.199   5.235   9.536 -0.4531 -0.0980 -0.2911
30901SOL    HW195335   9.258   5.305   9.566  1.0783 -0.8821 -1.3424
30901SOL    HW295336   9.180   5.258   9.445 -5.4232  2.5154  1.0226
30902SOL     OW95337   8.568   3.863   3.344 -0.0028  1.0297 -0.5812
30902SOL    HW195338   8.529   3.879   3.258 -0.9691  0.1903 -0.3290
30902SOL    HW295339   8.509   3.908   3.405 -0.6897 -0.3770 -0.1762
30903SOL     OW95340   7.521   0.307   7.988  0.1977 -0.5476 -0.3133
30903SOL    HW195341   7.616   0.302   7.993  0.1596 -0.7057  0.4017
30903SOL    HW295342   7.504   0.390   7.944  0.6988 -2.0829 -3.6918
30904SOL     OW95343   7.223   5.554  10.298  0.2904  0.6646 -0.1759
30904SOL    HW195344   7.262   5.593  10.219 -1.7188  0.6059 -1.2490
30904SOL    HW295345   7.254   5.464  10.298  1.3363  1.0027 -0.1566
30905SOL     OW95346   1.987   5.890   9.009 -0.2400  0.3074 -0.1406
30905SOL    HW195347   1.919   5.956   9.008  0.3185  0.9727  1.3977
30905SOL    HW295348   1.940   5.807   9.020 -0.8167  0.8480  2.0332
30906SOL     OW95349   8.574   1.759   5.234  0.2896 -0.8054 -0.3476
30906SOL    HW195350   8.550   1.673   5.199 -0.8326  0.0258 -1.7092
30906SOL    HW295351   8.593   1.812   5.157 -1.4413  0.8525  0.2930
30907SOL     OW95352   2.795   6.807   1.621 -0.6348 -0.1036  0.1461
30907SOL    HW195353   2.865   6.802   1.686 -0.3860  0.5975 -0.0566
30907SOL    HW295354   2.714   6.805   1.672 -0.5169 -2.1199  0.3126
30908SOL     OW95355   1.062  10.106   0.957  0.4559  0.1485  0.6291
30908SOL    HW195356   1.013  10.099   0.876  2.0032  0.6776 -0.3949
30908SOL    HW295357   1.111  10.024   0.963  2.1579  1.0276 -0.2645
30909SOL     OW95358   3.122   9.590   1.670  0.2203  0.0890  0.0890
30909SOL    HW195359   3.181   9.592   1.594  0.9818  0.8361  0.6829
30909SOL    HW295360   3.060   9.520   1.650  2.0891 -1.6594  0.0116
30910SOL     OW95361   5.084   1.060   2.384  0.0130  0.0878 -0.2401
30910SOL    HW195362   5.059   1.063   2.477  1.4869 -0.4216  0.2041
30910SOL    HW295363   5.078   0.967   2.361 -1.7302  0.3759 -1.0916
30911SOL     OW95364   3.804   6.058   8.387  0.2342 -0.5779  0.2573
30911SOL    HW195365   3.849   6.114   8.450  0.8896 -0.0401 -0.6738
30911SOL    HW295366   3.714   6.091   8.386  0.7305  0.7893 -0.6380
30912SOL     OW95367   2.394   0.504   0.810  0.1228  0.1934 -0.7174
30912SOL    HW195368   2.425   0.431   0.864  2.8217  1.2806 -0.6536
30912SOL    HW295369   2.371   0.572   0.873 -0.4434  0.1165 -0.8380
30913SOL     OW95370   1.949   1.483   0.020 -0.1167  0.0558  0.1172
30913SOL    HW195371   1.949   1.393  -0.011  0.1105  0.7972 -2.2410
30913SOL    HW295372   1.858   1.512   0.011 -0.0671  0.2616  0.2599
30914SOL     OW95373   3.857   6.968   3.650  0.0173  0.1325 -0.0193
30914SOL    HW195374   3.896   6.929   3.728 -0.2102  0.2735  0.1667
30914SOL    HW295375   3.763   6.948   3.658  0.2622 -1.9608 -1.4540
30915SOL     OW95376   1.984   3.519   7.289  0.3601  0.0782 -0.2950
30915SOL    HW195377   2.048   3.574   7.334 -0.0449 -0.4434  0.9623
30915SOL    HW295378   2.032   3.440   7.266  0.3184 -0.0596  0.0971
30916SOL     OW95379   9.651   8.637   1.764  0.3689 -0.0635 -0.5641
30916SOL    HW195380   9.740   8.663   1.743  0.1313  1.0300 -0.2858
30916SOL    HW295381   9.620   8.591   1.686  1.0504 -0.1296 -0.7995
30917SOL     OW95382   9.437   4.850   8.500  0.6473 -0.1774 -0.0671
30917SOL    HW195383   9.458   4.836   8.592 -0.3294  1.6948  0.5129
30917SOL    HW295384   9.367   4.787   8.481 -0.9004  1.0434  1.2501
30918SOL     OW95385   6.575   5.936   0.263 -0.0881 -0.8702 -0.7582
30918SOL    HW195386   6.524   5.993   0.320  1.2764 -1.0823  0.7435
30918SOL    HW295387   6.564   5.849   0.300  1.7636 -0.8447 -0.0663
30919SOL     OW95388   2.771   2.078   4.400  0.8307  0.4547 -0.1021
30919SOL    HW195389   2.705   2.010   4.415  1.2656 -0.0222 -0.3434
30919SOL    HW295390   2.747   2.148   4.461 -0.6549  0.8359 -1.0768
30920SOL     OW95391   4.654   5.873   1.092 -0.0944 -0.3493 -0.3487
30920SOL    HW195392   4.735   5.864   1.142 -0.1635 -1.3080 -0.3974
30920SOL    HW295393   4.630   5.965   1.102  0.5137 -0.2653  0.4101
30921SOL     OW95394   4.914   1.203   9.349 -0.4400  0.4080  0.8238
30921SOL    HW195395   4.969   1.140   9.303  0.0883 -0.1446  2.1636
30921SOL    HW295396   4.828   1.195   9.307 -0.4421 -1.3663  1.0860
30922SOL     OW95397   0.839   4.905   2.386  0.2525 -0.2644 -0.3683
30922SOL    HW195398   0.814   4.928   2.475 -1.0303 -3.4307  0.2437
30922SOL    HW295399   0.768   4.939   2.331  1.2842  2.1212 -0.3353
30923SOL     OW95400   3.042   6.384   4.674  0.3268 -0.0479 -0.2255
30923SOL    HW195401   3.113   6.320   4.677  1.2707  0.9676  0.0941
30923SOL    HW295402   2.984   6.353   4.605  0.8849 -1.1116 -0.2396
30924SOL     OW95403   7.577   7.789   7.104 -0.9014 -0.2599 -0.3841
30924SOL    HW195404   7.618   7.704   7.117  0.1637  0.2813 -0.1039
30924SOL    HW295405   7.642   7.852   7.134 -1.8199  0.6436 -0.2314
30925SOL     OW95406   4.433   5.688   2.140  0.2066  0.0452  0.2164
30925SOL    HW195407   4.454   5.777   2.168  0.4311 -0.3309  1.3163
30925SOL    HW295408   4.386   5.699   2.057 -0.4917  1.2351  0.7356
30926SOL     OW95409   2.400   5.827   6.940  0.0343 -0.3371  0.1948
30926SOL    HW195410   2.483   5.848   6.982 -1.0697  0.6538  2.0312
30926SOL    HW295411   2.392   5.732   6.949  0.6040 -0.3415  0.7276
30927SOL     OW95412   2.795   1.564   7.292  0.1693 -0.3086  0.5315
30927SOL    HW195413   2.808   1.497   7.225  3.3095  0.1753  0.4929
30927SOL    HW295414   2.760   1.639   7.245  0.9520 -0.4470 -0.2941
30928SOL     OW95415   8.502   9.265   6.808 -0.1746 -0.3351 -0.2049
30928SOL    HW195416   8.556   9.189   6.829  0.0331  0.2525  1.5486
30928SOL    HW295417   8.565   9.334   6.786 -0.1807  0.1740  1.2368
30929SOL     OW95418   2.444   7.653   2.622  0.3735 -0.0120 -0.3460
30929SOL    HW195419   2.352   7.679   2.611  0.2957 -0.3865 -0.6130
30929SOL    HW295420   2.441   7.558   2.631  0.5776  0.1193  1.4646
30930SOL     OW95421   5.600   1.749   2.304  0.3180 -0.0135 -0.2287
30930SOL    HW195422   5.550   1.801   2.367  1.9512  0.0178  1.1196
30930SOL    HW295423   5.550   1.668   2.295 -0.5096  0.4283  0.2566
30931SOL     OW95424   4.107   8.735  10.320 -0.3195  0.8110 -0.1697
30931SOL    HW195425   4.024   8.688  10.328 -1.2394  2.6728  3.5392
30931SOL    HW295426   4.161   8.679  10.265 -2.9394 -2.0574 -0.1053
30932SOL     OW95427   2.151   5.331   1.306  0.0099  0.1105 -0.2173
30932SOL    HW195428   2.222   5.317   1.244  0.5541 -1.4519  0.7026
30932SOL    HW295429   2.194   5.364   1.385 -0.1017 -1.6905  0.6578
30933SOL     OW95430   0.097   7.623   9.772 -0.1559  0.4811  0.2711
30933SOL    HW195431   0.145   7.567   9.833  1.6057 -0.5711 -1.9520
30933SOL    HW295432   0.111   7.712   9.805  0.9022 -0.0435  1.3003
30934SOL     OW95433   7.815   4.649   6.274  0.1458 -0.2024  1.0517
30934SOL    HW195434   7.878   4.597   6.224 -0.6084 -1.8998  1.7800
30934SOL    HW295435   7.740   4.658   6.215  0.7169  1.1478  0.4796
30935SOL     OW95436   2.574   2.819   4.206  0.3028 -0.3859 -0.2086
30935SOL    HW195437   2.493   2.836   4.158  0.6007 -1.1950 -1.0251
30935SOL    HW295438   2.625   2.763   4.148  0.5092 -1.7224  1.1997
30936SOL     OW95439   8.582   9.006   0.768 -0.8829  0.0773 -0.0535
30936SOL    HW195440   8.532   8.954   0.832 -0.6649 -0.6133 -0.4306
30936SOL    HW295441   8.541   8.985   0.684 -0.5633  0.2362 -0.2501
30937SOL     OW95442   3.947   9.802   8.855 -0.2337  0.8974  0.3146
30937SOL    HW195443   4.020   9.807   8.917  0.2158  0.9998 -0.2131
30937SOL    HW295444   3.970   9.729   8.798 -1.4362 -0.2649  1.2572
30938SOL     OW95445   3.426   3.762   1.650  0.4899  0.1029 -0.2289
30938SOL    HW195446   3.469   3.782   1.567 -1.3206  5.5145 -0.2185
30938SOL    HW295447   3.333   3.756   1.627  0.2906 -4.1706  0.8030
30939SOL     OW95448   6.282   8.872   4.585 -0.0598 -0.7870 -0.0398
30939SOL    HW195449   6.213   8.863   4.651 -0.8155  0.6657 -0.5958
30939SOL    HW295450   6.311   8.782   4.570 -0.1817 -1.2059  1.9167
30940SOL     OW95451   1.050   7.078   9.421 -0.0807 -0.0566 -0.1781
30940SOL    HW195452   1.037   7.003   9.480 -0.2016 -0.0829 -0.2366
30940SOL    HW295453   0.976   7.072   9.360  0.3510 -0.3547 -0.6797
30941SOL     OW95454   8.058   7.146   2.366  0.3537 -0.7841 -0.2702
30941SOL    HW195455   7.975   7.101   2.351 -0.7118  1.1456 -0.5165
30941SOL    HW295456   8.108   7.133   2.286 -2.3999  3.4026 -3.1000
30942SOL     OW95457   3.281   3.682   6.571  0.7505 -0.2157  0.3358
30942SOL    HW195458   3.277   3.775   6.552  2.2727 -0.0147  0.9140
30942SOL    HW295459   3.340   3.646   6.505  0.0963 -0.8003  0.0563
30943SOL     OW95460  10.325   9.442   0.568  0.0801  0.0670 -0.1564
30943SOL    HW195461  10.247   9.436   0.622 -0.1181 -1.3142 -0.5629
30943SOL    HW295462  10.398   9.446   0.630 -0.1447 -1.4288  0.2279
30944SOL     OW95463   1.601   3.312   7.080  0.5026 -0.1778  0.3648
30944SOL    HW195464   1.510   3.322   7.055  0.3912  0.0047  0.8415
30944SOL    HW295465   1.623   3.392   7.127  1.8057  1.1813 -2.3607
30945SOL     OW95466   8.735   3.363   8.544  0.2733  0.1693  0.7311
30945SOL    HW195467   8.718   3.326   8.457 -2.5266 -0.3170  1.3872
30945SOL    HW295468   8.743   3.457   8.529  1.6682 -0.0742 -0.2432
30946SOL     OW95469   5.299   9.052   1.736 -0.6326 -0.2184 -0.1876
30946SOL    HW195470   5.335   9.060   1.824  0.0093  0.1146 -0.4699
30946SOL    HW295471   5.212   9.092   1.742 -0.6841 -0.4056  0.3453
30947SOL     OW95472   3.890   0.206   2.201  0.6250  0.9815  0.1080
30947SOL    HW195473   3.896   0.206   2.296  1.3534  1.9666  0.0758
30947SOL    HW295474   3.981   0.206   2.172  0.4402 -0.7929 -0.6151
30948SOL     OW95475   3.244  10.005   4.062  0.3998 -0.2590  0.4564
30948SOL    HW195476   3.220  10.008   4.154  1.2926  1.3609  0.6589
30948SOL    HW295477   3.335   9.975   4.062  0.6605  0.5101  0.1646
30949SOL     OW95478   5.742   8.883   7.269  0.5388  0.4019 -0.1997
30949SOL    HW195479   5.762   8.907   7.360 -0.2088 -1.3865  0.4700
30949SOL    HW295480   5.650   8.907   7.258  0.1679 -0.8476  0.0544
30950SOL     OW95481   8.473   8.852   1.242 -0.1914 -0.4351  0.3925
30950SOL    HW195482   8.513   8.939   1.242  2.0122 -1.3598  1.6876
30950SOL    HW295483   8.470   8.826   1.334 -1.0431 -1.6463  0.0537
30951SOL     OW95484   3.619   6.917   5.338 -0.4293 -0.3588 -0.4034
30951SOL    HW195485   3.627   7.007   5.368 -0.8420  0.0204 -1.3891
30951SOL    HW295486   3.562   6.922   5.261  1.2799 -1.1580 -1.7973
30952SOL     OW95487   1.061   9.957   4.828  0.3566  0.9447 -0.3349
30952SOL    HW195488   1.070  10.044   4.789 -0.5400  0.1892 -2.3633
30952SOL    HW295489   0.970   9.953   4.857  0.7912  1.1854  1.1468
30953SOL     OW95490   8.144   5.627   3.486  0.6382  0.0342  0.1925
30953SOL    HW195491   8.229   5.600   3.520  0.5898 -0.8320 -0.3678
30953SOL    HW295492   8.131   5.715   3.522  0.9268 -0.5474  1.8121
30954SOL     OW95493   6.472   8.255   5.071  0.2399  0.1163  0.5348
30954SOL    HW195494   6.529   8.326   5.042 -0.9718  0.0479 -2.3523
30954SOL    HW295495   6.507   8.177   5.030  0.8748 -0.8364  2.7465
30955SOL     OW95496   7.231   2.055  10.224  0.4061 -0.3166 -0.1702
30955SOL    HW195497   7.289   2.084  10.153 -0.1910  0.9716 -0.1571
30955SOL    HW295498   7.168   2.126  10.234  1.0407  0.0151  2.2942
30956SOL     OW95499   0.669   7.451   1.387 -0.3604 -0.7188 -0.5514
30956SOL    HW195500   0.713   7.370   1.363  0.8111 -0.1117 -0.5750
30956SOL    HW295501   0.579   7.440   1.359  0.3243 -1.0944 -2.7424
30957SOL     OW95502   0.876   3.935   3.779  0.2195 -0.2561  0.0580
30957SOL    HW195503   0.872   4.026   3.807 -1.5667  0.2712 -1.6653
30957SOL    HW295504   0.934   3.893   3.843  0.6286  1.9334  1.2423
30958SOL     OW95505   3.446   3.024   2.586  0.1137  0.0634  0.1173
30958SOL    HW195506   3.467   2.941   2.543 -1.8220 -0.3924 -0.0588
30958SOL    HW295507   3.391   3.071   2.524  0.6511  1.2125  0.4790
30959SOL     OW95508   6.745   4.868   1.367 -0.4032  0.6971  0.1349
30959SOL    HW195509   6.780   4.801   1.427  2.1352  1.1243 -0.7902
30959SOL    HW295510   6.804   4.942   1.376 -0.7348  1.2705 -1.9337
30960SOL     OW95511   6.738   5.640   0.164  0.5695 -0.0377 -0.3638
30960SOL    HW195512   6.791   5.582   0.110  0.6498  0.1340 -0.4692
30960SOL    HW295513   6.788   5.650   0.245  0.4859 -0.2320 -0.2870
30961SOL     OW95514   6.810   0.845   0.511 -0.4247 -0.3099  0.0714
30961SOL    HW195515   6.797   0.922   0.456 -0.7009  0.4936  1.2391
30961SOL    HW295516   6.724   0.824   0.546 -0.1975 -0.6076  0.4681
30962SOL     OW95517   5.373   7.710   1.758 -0.1924 -0.5396 -0.2945
30962SOL    HW195518   5.447   7.656   1.730  2.4779  1.6442  1.9178
30962SOL    HW295519   5.371   7.782   1.696 -1.9984 -1.6391 -1.6255
30963SOL     OW95520   1.024   1.860   7.544 -0.2817 -0.2165 -0.4246
30963SOL    HW195521   1.075   1.892   7.470 -2.1951 -1.9676 -2.7026
30963SOL    HW295522   0.996   1.773   7.517 -1.8435 -0.5676  2.0146
30964SOL     OW95523   1.555   4.705   3.179  0.2568  0.3456  0.3614
30964SOL    HW195524   1.508   4.775   3.133 -0.7010 -1.5643 -1.8199
30964SOL    HW295525   1.631   4.688   3.124  2.1471  1.5998  2.4547
30965SOL     OW95526   0.368   2.306   1.697  0.6149  0.2131  0.3852
30965SOL    HW195527   0.350   2.282   1.606 -0.3627 -0.4189  0.7282
30965SOL    HW295528   0.435   2.375   1.692  0.2288  0.5082 -0.8223
30966SOL     OW95529   8.441   9.938   3.254 -0.0626 -0.1748  0.0904
30966SOL    HW195530   8.494  10.015   3.278  0.3880 -0.6249  0.5703
30966SOL    HW295531   8.384   9.925   3.330 -1.3892  0.7398 -0.7183
30967SOL     OW95532   1.622   4.023   4.370  0.1892  0.4919 -0.1663
30967SOL    HW195533   1.542   3.972   4.354  0.8991 -0.8075  0.2533
30967SOL    HW295534   1.634   4.075   4.291 -1.1661  0.8517 -0.1587
30968SOL     OW95535   2.103   7.179   0.528 -0.5182  0.4322 -0.5739
30968SOL    HW195536   2.113   7.265   0.568 -1.6837 -0.1730  1.1706
30968SOL    HW295537   2.008   7.169   0.514 -0.8182 -1.5975  1.9764
30969SOL     OW95538   6.258   0.339   6.766 -0.4671  0.8534  0.4385
30969SOL    HW195539   6.275   0.428   6.734  0.8441  0.4118 -0.1287
30969SOL    HW295540   6.282   0.342   6.858 -0.4007  1.0797  0.4154
30970SOL     OW95541   7.646  10.042  10.094 -0.3571 -0.0005 -0.6119
30970SOL    HW195542   7.720  10.083  10.050 -0.6276  0.2918 -0.8005
30970SOL    HW295543   7.583  10.113  10.107  0.3363  0.2730  1.6492
30971SOL     OW95544   3.967   3.252   0.341 -0.9316 -0.3497  0.3220
30971SOL    HW195545   3.938   3.177   0.289  0.4361  0.2658 -1.4027
30971SOL    HW295546   4.014   3.212   0.415 -1.7921 -1.2007  0.4400
30972SOL     OW95547   6.080   0.102   2.703 -0.1931  0.1354  0.1573
30972SOL    HW195548   6.110   0.015   2.728 -0.7337  0.1017  0.7021
30972SOL    HW295549   6.038   0.090   2.618  0.2213 -0.0379 -0.0217
30973SOL     OW95550   2.097   5.848   5.982 -0.0818  0.4519 -0.6469
30973SOL    HW195551   2.075   5.757   6.004 -0.3953  0.1966 -1.9067
30973SOL    HW295552   2.149   5.879   6.055 -0.2585 -0.6431 -0.0391
30974SOL     OW95553   6.434   9.469   2.467 -0.0288 -0.1787 -0.1211
30974SOL    HW195554   6.499   9.442   2.401 -1.0585  0.3306 -1.3941
30974SOL    HW295555   6.385   9.389   2.485 -0.9250  0.0462 -1.3932
30975SOL     OW95556   8.386   0.919   9.955 -0.0631 -0.0496 -0.0489
30975SOL    HW195557   8.443   0.844   9.935  1.3916  0.7292  0.9911
30975SOL    HW295558   8.303   0.897   9.913  0.7493 -1.5964 -0.9599
30976SOL     OW95559   7.517   2.423   9.698  0.0927 -0.2012  0.3694
30976SOL    HW195560   7.506   2.505   9.649  0.5189 -0.1818  0.3020
30976SOL    HW295561   7.558   2.450   9.780 -1.6608 -0.0775  1.2535
30977SOL     OW95562   6.533   5.223   4.805 -0.1948  0.0133  0.0601
30977SOL    HW195563   6.620   5.197   4.835 -0.4397 -1.7334 -0.6447
30977SOL    HW295564   6.489   5.255   4.883  0.9931  0.7368  0.4663
30978SOL     OW95565   2.650   9.696   8.504 -0.2977 -0.5890  0.5943
30978SOL    HW195566   2.739   9.717   8.533  0.1697 -1.2907 -0.2685
30978SOL    HW295567   2.615   9.640   8.572 -0.4109  0.4003  1.3726
30979SOL     OW95568   5.917   1.630   2.886 -0.1621 -0.7226  0.8921
30979SOL    HW195569   5.878   1.702   2.837  2.1294  0.0962  0.1140
30979SOL    HW295570   5.894   1.551   2.837 -2.0669 -0.4783  1.3411
30980SOL     OW95571   0.415   8.742   8.196  0.3578  0.3684  0.5130
30980SOL    HW195572   0.371   8.746   8.281  0.9112  0.0699  0.8180
30980SOL    HW295573   0.388   8.659   8.159  1.1685 -0.1177  0.9864
30981SOL     OW95574   0.117   1.879   2.406  0.0452  0.1804 -0.1671
30981SOL    HW195575   0.163   1.945   2.354 -1.0888  1.0065 -0.1707
30981SOL    HW295576   0.068   1.827   2.342 -0.3369  0.3779 -0.0421
30982SOL     OW95577   2.491   4.541   9.519 -0.0282  0.0431 -0.0999
30982SOL    HW195578   2.425   4.608   9.535  0.3817  0.3115  0.4806
30982SOL    HW295579   2.494   4.490   9.600  0.2706 -0.1486 -0.2307
30983SOL     OW95580   7.490   8.574   6.645  0.0579  0.1637  0.3600
30983SOL    HW195581   7.475   8.606   6.556  2.0824 -1.6875 -0.7374
30983SOL    HW295582   7.403   8.566   6.683 -1.0605 -0.9247 -2.1921
30984SOL     OW95583   9.731   3.007   6.721  0.0761  0.2123 -0.1356
30984SOL    HW195584   9.728   3.075   6.653 -1.6568 -1.3113 -1.7143
30984SOL    HW295585   9.700   2.928   6.676 -0.0562 -1.1290  2.1851
30985SOL     OW95586  10.263   1.819   4.582  0.4230  0.0128 -0.1373
30985SOL    HW195587  10.333   1.879   4.558  0.2519 -0.0326 -0.7702
30985SOL    HW295588  10.183   1.864   4.554  0.1764  0.1730  0.8009
30986SOL     OW95589   5.512   9.902   2.063 -0.0831 -0.0272 -0.8038
30986SOL    HW195590   5.488   9.815   2.096  0.3725 -0.3124 -1.2185
30986SOL    HW295591   5.554   9.885   1.979  3.0965  0.2887  0.5779
30987SOL     OW95592   2.994   8.796   6.651  0.1956 -0.5733  0.2306
30987SOL    HW195593   3.019   8.704   6.657  1.8871 -0.0370  2.8053
30987SOL    HW295594   3.072   8.844   6.676 -0.1915  1.7096 -2.4026
30988SOL     OW95595   4.273   1.000   3.872  0.4593 -0.0315 -0.4184
30988SOL    HW195596   4.196   1.025   3.820  0.4425  2.0049  0.4920
30988SOL    HW295597   4.345   1.051   3.836  0.9902 -0.5105 -0.0611
30989SOL     OW95598   9.026   1.632   9.511 -0.4403 -0.0903 -0.2601
30989SOL    HW195599   9.085   1.665   9.443  0.2477 -1.6405 -0.4447
30989SOL    HW295600   8.997   1.711   9.557  0.8446  0.7968 -0.9068
30990SOL     OW95601   8.711   9.741   4.155 -0.0357 -0.0638 -0.2284
30990SOL    HW195602   8.791   9.791   4.167  0.9518 -1.8507  1.0071
30990SOL    HW295603   8.677   9.728   4.243 -0.0323 -1.8674 -0.4450
30991SOL     OW95604   4.336   3.673   4.427  0.1552 -0.1033  0.1104
30991SOL    HW195605   4.427   3.656   4.449  0.3848  2.1181  1.1713
30991SOL    HW295606   4.308   3.741   4.489 -2.5632 -1.4519  0.5148
30992SOL     OW95607   0.805   3.598   9.510  0.0414 -0.7043  0.6480
30992SOL    HW195608   0.775   3.612   9.600  0.6349  1.1111  0.5980
30992SOL    HW295609   0.725   3.586   9.459 -0.4826  1.1489  0.9747
30993SOL     OW95610   1.553   8.769   8.694 -0.5393 -0.1090  0.0062
30993SOL    HW195611   1.615   8.842   8.696 -1.5587  0.7706  0.4066
30993SOL    HW295612   1.488   8.791   8.760 -1.4390 -0.8689 -0.6016
30994SOL     OW95613   9.130   1.759   0.855 -0.7454  0.0699  0.7335
30994SOL    HW195614   9.117   1.787   0.946  0.9121  0.9352  0.7442
30994SOL    HW295615   9.083   1.676   0.848  1.0191 -1.2438  3.0886
30995SOL     OW95616   6.882   0.797   8.517  0.3280 -0.6068 -0.4578
30995SOL    HW195617   6.944   0.791   8.445 -0.0311  0.5417 -0.8943
30995SOL    HW295618   6.931   0.771   8.595  1.2935  0.0697 -0.8274
30996SOL     OW95619   9.347   9.931   9.434 -0.0185  0.2395  0.0034
30996SOL    HW195620   9.341   9.847   9.389 -0.7790 -0.2242  0.9409
30996SOL    HW295621   9.269   9.979   9.407  0.0813  0.3916 -0.0169
30997SOL     OW95622   2.925   4.190   2.400 -0.0222  0.1446 -0.4186
30997SOL    HW195623   2.853   4.127   2.393  0.5797 -0.6412  0.2292
30997SOL    HW295624   2.917   4.244   2.322 -1.3125  0.0783 -0.3617
30998SOL     OW95625   5.580   6.786   1.058  0.5486  0.4158  0.1753
30998SOL    HW195626   5.563   6.709   1.003  1.0650  0.8603 -0.6239
30998SOL    HW295627   5.508   6.787   1.121  0.1221 -0.2923 -0.2934
30999SOL     OW95628   0.893   8.248   0.676 -0.8422 -0.6702 -0.7422
30999SOL    HW195629   0.915   8.155   0.676 -0.1823 -0.5188 -0.6881
30999SOL    HW295630   0.835   8.258   0.752 -1.9487 -1.2567 -1.4788
31000SOL     OW95631   8.889   4.505   0.278  0.2183  0.3156 -0.1464
31000SOL    HW195632   8.823   4.514   0.346  1.3312  2.9124  0.6837
31000SOL    HW295633   8.956   4.447   0.316 -1.8519 -3.2265 -1.3728
31001SOL     OW95634   6.392   1.270   4.293 -0.2031 -0.4711 -0.2902
31001SOL    HW195635   6.477   1.305   4.321 -0.9285 -0.2617  1.8951
31001SOL    HW295636   6.393   1.178   4.321 -0.6949 -0.4651 -0.2390
31002SOL     OW95637   4.888   7.400   9.125 -0.2304  0.1725  0.0642
31002SOL    HW195638   4.888   7.447   9.209  1.2899  2.0793 -0.9302
31002SOL    HW295639   4.938   7.320   9.143  0.0368  0.5361  0.9816
31003SOL     OW95640   1.495   8.983   2.255  0.0103 -0.2763 -0.1913
31003SOL    HW195641   1.566   9.039   2.223 -0.8326  0.8422 -0.1762
31003SOL    HW295642   1.540   8.910   2.298  1.1477  0.3077 -0.3316
31004SOL     OW95643   9.628   9.534   6.772  0.0058  0.2138 -0.7710
31004SOL    HW195644   9.688   9.609   6.767  0.1047  0.1008 -1.3808
31004SOL    HW295645   9.663   9.481   6.843 -0.4827  1.0974  0.1608
31005SOL     OW95646   2.608   6.810   1.822  0.0084  0.3298 -0.3139
31005SOL    HW195647   2.549   6.789   1.894 -0.9824 -0.2920 -1.2790
31005SOL    HW295648   2.596   6.905   1.809 -1.3491  0.1048 -0.9496
31006SOL     OW95649   0.063   1.651  10.221  0.2961 -0.0989  0.7728
31006SOL    HW195650   0.149   1.621  10.192 -0.1509 -0.8461  0.1906
31006SOL    HW295651   0.061   1.744  10.199  1.7893  0.5020  2.8113
31007SOL     OW95652   2.299  10.299   2.454 -0.3200  0.6162  0.2953
31007SOL    HW195653   2.257  10.215   2.470 -0.3293  0.6973  0.7156
31007SOL    HW295654   2.381  10.277   2.409 -0.5678  0.4211 -0.0631
31008SOL     OW95655   0.821   2.178   8.767  0.1343 -0.0508  0.0001
31008SOL    HW195656   0.838   2.186   8.861  0.4122  0.5503 -0.1001
31008SOL    HW295657   0.740   2.228   8.753  0.6466  0.7375 -0.2435
31009SOL     OW95658   4.602   5.025   9.490  0.4584 -0.0568 -0.4619
31009SOL    HW195659   4.660   5.045   9.563 -1.0082 -2.4945  1.5648
31009SOL    HW295660   4.587   5.109   9.447  3.7479  0.9826  0.1573
31010SOL     OW95661   6.105   9.874   4.102 -0.3923  0.3447  0.1113
31010SOL    HW195662   6.102   9.877   4.006 -0.2630  1.7245  0.1339
31010SOL    HW295663   6.068   9.958   4.130 -1.9011 -0.6685  1.3208
31011SOL     OW95664   9.470   5.358   1.152  0.4507  0.0845  0.2135
31011SOL    HW195665   9.481   5.367   1.057 -2.2038  0.0570 -0.1769
31011SOL    HW295666   9.460   5.447   1.184 -0.2163  0.0164  0.2113
31012SOL     OW95667   9.460   6.041   9.418  0.0473  0.2526  0.2514
31012SOL    HW195668   9.471   6.012   9.328 -0.2321 -1.8408  0.8296
31012SOL    HW295669   9.369   6.018   9.440  0.4127 -0.2273  1.3548
31013SOL     OW95670   0.866   1.126   7.527 -0.2969 -0.4082 -0.2780
31013SOL    HW195671   0.841   1.049   7.476  4.0009 -1.9812 -0.4120
31013SOL    HW295672   0.837   1.201   7.474 -0.3438 -1.9560 -2.5719
31014SOL     OW95673   0.597   6.783   8.673  0.6962 -0.7414  0.4720
31014SOL    HW195674   0.618   6.695   8.642  1.4285 -0.2660 -0.4444
31014SOL    HW295675   0.505   6.796   8.648  1.0694 -0.6306 -0.9518
31015SOL     OW95676   0.647   5.652   0.120  0.2376  0.0411 -0.1031
31015SOL    HW195677   0.723   5.652   0.061 -0.3714 -0.9558 -0.9409
31015SOL    HW295678   0.661   5.725   0.179  1.7127  0.0426 -0.4291
31016SOL     OW95679   4.577   4.321   2.522  0.5218  0.0770 -0.7110
31016SOL    HW195680   4.518   4.374   2.468 -0.5199 -0.6632 -0.3192
31016SOL    HW295681   4.525   4.245   2.548  1.5233 -0.3931 -0.0121
31017SOL     OW95682   6.940   1.196   1.112  0.1078  0.1406  0.0782
31017SOL    HW195683   6.851   1.199   1.076  0.0265 -1.0638  0.1564
31017SOL    HW295684   6.979   1.279   1.085 -1.5605  1.4499  1.4579
31018SOL     OW95685   8.257   2.037   4.005  0.1596 -0.4746 -0.0848
31018SOL    HW195686   8.223   2.125   4.021 -0.6716 -0.0139 -3.5165
31018SOL    HW295687   8.244   1.990   4.087  0.5493  2.5175  1.8447
31019SOL     OW95688   7.073   5.579   4.014 -0.2594 -0.1141 -0.2590
31019SOL    HW195689   6.993   5.589   4.065  0.1106 -0.5171  0.4021
31019SOL    HW295690   7.132   5.529   4.070 -0.0057 -0.9539 -1.2448
31020SOL     OW95691   8.570   9.649   0.793  0.1797  0.0062  0.2712
31020SOL    HW195692   8.569   9.725   0.734 -2.8038 -0.9095 -1.0543
31020SOL    HW295693   8.491   9.659   0.846 -0.1661 -2.0416  0.2041
31021SOL     OW95694   7.350   8.931   0.990  0.1886  0.2121 -0.5594
31021SOL    HW195695   7.435   8.894   1.015 -0.2473  0.7550  1.8975
31021SOL    HW295696   7.296   8.855   0.969  0.7848 -0.2357 -0.4983
31022SOL     OW95697   3.566   2.277   9.485 -0.0239 -0.0675 -0.0337
31022SOL    HW195698   3.501   2.207   9.473 -1.0712  0.4722  2.1137
31022SOL    HW295699   3.545   2.341   9.416 -1.4086 -0.1738  0.2579
31023SOL     OW95700   6.853   7.229   0.414  0.0088  0.4977 -0.3705
31023SOL    HW195701   6.847   7.180   0.497 -0.2689 -0.7045 -1.0746
31023SOL    HW295702   6.946   7.248   0.405  0.2237 -0.5065 -0.4054
31024SOL     OW95703   8.902   6.364   7.380 -0.2170 -0.1173  0.5230
31024SOL    HW195704   8.963   6.298   7.348 -0.5249 -0.5954  0.9168
31024SOL    HW295705   8.905   6.433   7.314  0.8459 -0.0729  0.6033
31025SOL     OW95706   2.975   5.846   2.396  0.0374  0.2969 -0.2545
31025SOL    HW195707   2.970   5.759   2.437 -2.7358  0.9247  0.9663
31025SOL    HW295708   3.001   5.904   2.467 -2.0407  0.9822  0.0186
31026SOL     OW95709   4.972   9.697   2.546  0.1650 -0.4207 -0.0897
31026SOL    HW195710   4.950   9.608   2.573  0.5717 -0.3924  0.3586
31026SOL    HW295711   5.046   9.721   2.602 -1.6172  1.1936  1.7019
31027SOL     OW95712   8.877   9.187   0.340 -0.1174  0.3478  0.3532
31027SOL    HW195713   8.879   9.227   0.253  3.1628  0.0249  0.1702
31027SOL    HW295714   8.814   9.240   0.389  0.7483  2.9447 -1.1379
31028SOL     OW95715   0.665   4.410   9.348 -0.3733  0.6357  0.1486
31028SOL    HW195716   0.667   4.423   9.253  1.4564 -2.0502 -0.2846
31028SOL    HW295717   0.616   4.329   9.360 -0.6991  1.0139  1.5453
31029SOL     OW95718   0.992   3.994   2.179 -0.1953  0.1857  0.1578
31029SOL    HW195719   0.960   3.913   2.140 -0.2160  1.3432 -2.4365
31029SOL    HW295720   0.919   4.055   2.173 -0.0900  0.5136  1.8067
31030SOL     OW95721   1.633   0.070   9.347  0.3498 -0.0395 -0.2187
31030SOL    HW195722   1.679   0.112   9.420  0.4754  0.4564 -0.5780
31030SOL    HW295723   1.703   0.033   9.293  0.1799 -2.5338  1.1444
31031SOL     OW95724   4.984   4.763   3.776 -0.4945  0.1817 -0.2606
31031SOL    HW195725   4.983   4.732   3.685 -0.0647  1.8347 -0.8748
31031SOL    HW295726   4.894   4.791   3.793 -0.5866 -0.1748 -0.1584
31032SOL     OW95727   1.037   2.694   2.447 -0.0036 -0.1747 -0.0295
31032SOL    HW195728   0.948   2.701   2.412 -0.0087 -1.7473 -0.4088
31032SOL    HW295729   1.083   2.641   2.382  2.3710  3.7640 -1.9346
31033SOL     OW95730   4.216   9.866   4.800  0.4292 -0.0509  0.0805
31033SOL    HW195731   4.167   9.902   4.873  0.0052 -0.2442 -0.1058
31033SOL    HW295732   4.151   9.818   4.748  0.4384  1.2598 -1.1928
31034SOL     OW95733   5.153   8.633   2.899  0.3630  0.2000 -0.5030
31034SOL    HW195734   5.204   8.674   2.830  1.8347 -2.1622 -0.9464
31034SOL    HW295735   5.215   8.575   2.943 -0.9610  0.3456  1.7157
31035SOL     OW95736   1.905   9.116   8.814 -0.1428  0.4230 -0.6232
31035SOL    HW195737   1.936   9.096   8.902  0.2028  1.0185 -0.6051
31035SOL    HW295738   1.968   9.179   8.779 -0.6357  0.6981 -1.0491
31036SOL     OW95739   9.770   0.960   8.423 -0.3843 -0.1633  0.3013
31036SOL    HW195740   9.774   0.946   8.517 -0.8597 -1.1358  0.1843
31036SOL    HW295741   9.850   1.008   8.402  1.5500 -3.0113  0.6807
31037SOL     OW95742   0.641   6.241   0.603  0.5309 -0.1327 -0.5044
31037SOL    HW195743   0.657   6.276   0.515  0.2325 -0.9483 -0.8925
31037SOL    HW295744   0.720   6.191   0.623 -0.3704 -1.9602 -1.3277
31038SOL     OW95745   3.108   3.656   8.075  0.1738 -0.2804  0.5257
31038SOL    HW195746   3.075   3.718   8.140 -0.7846 -0.1681 -0.0324
31038SOL    HW295747   3.032   3.638   8.020  1.2293  0.5592 -1.2931
31039SOL     OW95748   8.363   5.990   3.215 -0.3187  0.3829  0.5288
31039SOL    HW195749   8.420   5.922   3.179 -0.3993  1.3952 -1.6654
31039SOL    HW295750   8.277   5.973   3.176 -0.5885  1.1233  0.7746
31040SOL     OW95751  10.022   9.782   9.005  0.1220 -0.4333 -0.2041
31040SOL    HW195752  10.087   9.759   8.938  1.5963  3.1251 -0.2294
31040SOL    HW295753   9.947   9.726   8.986  1.2719 -1.0598 -3.5430
31041SOL     OW95754   2.920   1.627   5.352  0.1305  0.2704  0.1904
31041SOL    HW195755   2.876   1.675   5.423 -1.1333  0.2099 -0.5221
31041SOL    HW295756   2.850   1.605   5.292  1.1712  0.1963 -1.0270
31042SOL     OW95757   4.179   5.801   3.669  0.2415 -0.1387  0.2324
31042SOL    HW195758   4.236   5.725   3.660  1.0806  0.4044  0.7359
31042SOL    HW295759   4.114   5.774   3.734 -0.6045 -1.0514 -0.9559
31043SOL     OW95760   1.072   4.769   2.572 -0.1734 -0.1105 -0.1633
31043SOL    HW195761   1.010   4.807   2.511 -1.5812  0.8041  1.7264
31043SOL    HW295762   1.105   4.843   2.623  1.7833 -0.7083 -0.4808
31044SOL     OW95763   3.441   1.332   9.173  0.3024 -0.5025 -0.6579
31044SOL    HW195764   3.517   1.363   9.125  0.5907  0.0041  0.1036
31044SOL    HW295765   3.413   1.407   9.226  0.0759 -1.0696  0.0491
31045SOL     OW95766   1.046   1.734   2.777 -0.0998  0.1564  0.0129
31045SOL    HW195767   1.014   1.793   2.708  1.9229  0.5187 -0.6654
31045SOL    HW295768   1.006   1.769   2.857  1.2346  2.6952 -0.3242
31046SOL     OW95769   4.100   6.744   2.421 -0.4943 -0.0806  0.5456
31046SOL    HW195770   4.143   6.827   2.440  0.0927 -0.5643  1.3774
31046SOL    HW295771   4.090   6.702   2.507 -0.7141 -0.8999  0.1271
31047SOL     OW95772   5.078   3.009   1.024  0.0843  0.8686 -0.2291
31047SOL    HW195773   5.036   3.024   1.108 -1.3872  1.4828 -1.0421
31047SOL    HW295774   5.010   2.968   0.970  0.8299  0.9881 -1.2843
31048SOL     OW95775   9.299   1.638   9.350 -0.0082  0.2218  0.1193
31048SOL    HW195776   9.362   1.698   9.391  1.6425 -0.7657 -0.8233
31048SOL    HW295777   9.304   1.660   9.257 -1.7098  0.6554  0.0999
31049SOL     OW95778   8.091   5.787   9.378  0.2211  0.7955 -0.1666
31049SOL    HW195779   8.109   5.779   9.284 -0.4992 -2.3975 -0.1584
31049SOL    HW295780   8.012   5.840   9.383  1.4821  2.8858 -1.1428
31050SOL     OW95781   9.485   7.525   7.729  0.9274 -0.3746  0.3403
31050SOL    HW195782   9.541   7.454   7.697  0.7031 -0.4049  0.0161
31050SOL    HW295783   9.396   7.491   7.724  0.6262  0.5705 -1.6059
31051SOL     OW95784   0.423   1.030   0.994  0.1731 -0.1841 -0.1121
31051SOL    HW195785   0.471   1.098   0.945  0.4705  1.0252  1.7470
31051SOL    HW295786   0.366   0.989   0.928 -0.8186  2.5854 -1.1415
31052SOL     OW95787   2.416   6.635   9.742 -0.0052  0.3833 -0.8968
31052SOL    HW195788   2.360   6.709   9.766  0.0914 -0.1012  1.0263
31052SOL    HW295789   2.505   6.669   9.750  0.1620 -0.4566  2.4350
31053SOL     OW95790   6.261   1.133   2.498 -0.8419 -0.1273  0.5095
31053SOL    HW195791   6.185   1.182   2.467 -0.9491 -1.1229 -0.8624
31053SOL    HW295792   6.275   1.165   2.588 -1.9036  1.1974  0.2385
31054SOL     OW95793   3.106  10.115   0.357  0.0605 -0.0651  0.6400
31054SOL    HW195794   3.018  10.153   0.362  0.3406  0.3774  2.8205
31054SOL    HW295795   3.101  10.056   0.281 -0.7062  3.3920 -2.2544
31055SOL     OW95796   3.184   1.190   2.918  0.0480 -0.1481  0.8162
31055SOL    HW195797   3.121   1.215   2.850 -0.6381  0.1029  1.5291
31055SOL    HW295798   3.243   1.128   2.875  0.6688  1.2779 -0.4928
31056SOL     OW95799   7.107   4.101   0.870 -0.5310  0.5157  0.0329
31056SOL    HW195800   7.060   4.176   0.832  0.2704 -0.2169 -2.6594
31056SOL    HW295801   7.046   4.064   0.933 -1.7239  2.2657 -0.0070
31057SOL     OW95802   2.966   0.711   7.575  0.6640 -0.1975  0.2059
31057SOL    HW195803   3.041   0.732   7.518 -0.2616  1.0462 -0.6233
31057SOL    HW295804   2.931   0.629   7.539 -0.5545  1.1075 -1.8025
31058SOL     OW95805   6.823   7.125   2.307 -0.8162  0.0772 -0.6364
31058SOL    HW195806   6.739   7.106   2.350 -0.5671  0.8146  0.2004
31058SOL    HW295807   6.860   7.039   2.287 -0.1831 -0.3806  2.1176
31059SOL     OW95808   1.074   0.742   9.298 -0.1577 -0.1787  0.1053
31059SOL    HW195809   1.166   0.744   9.327  0.5036  0.2398 -1.8449
31059SOL    HW295810   1.056   0.832   9.269 -1.1077 -0.3219  0.2201
31060SOL     OW95811  10.070   2.885   5.116  0.1038  0.5626  0.5486
31060SOL    HW195812  10.071   2.797   5.078 -0.3999  0.0726  1.6271
31060SOL    HW295813  10.152   2.892   5.164  0.7745  1.2105 -0.6390
31061SOL     OW95814   3.067   0.864   9.435  0.1107  0.5525  0.1269
31061SOL    HW195815   3.016   0.853   9.354 -0.3280 -3.1139  0.7046
31061SOL    HW295816   3.004   0.845   9.505  1.5657 -1.4476  0.9892
31062SOL     OW95817   5.454   9.253   1.470 -0.0892 -0.1699  0.1987
31062SOL    HW195818   5.516   9.316   1.504 -0.6350  1.4993 -1.7146
31062SOL    HW295819   5.372   9.273   1.515 -0.0543 -0.0820  0.2229
31063SOL     OW95820   7.515   8.150   4.522 -0.3492 -0.0187  0.4798
31063SOL    HW195821   7.604   8.145   4.486 -0.2544  2.7562  0.1033
31063SOL    HW295822   7.459   8.167   4.446 -1.0720 -0.6220  0.8625
31064SOL     OW95823   8.031   7.830   3.304  0.2923  0.0080  0.2594
31064SOL    HW195824   7.942   7.807   3.331 -0.5042  1.3273 -1.0768
31064SOL    HW295825   8.068   7.750   3.268 -1.6189  0.1560 -2.3200
31065SOL     OW95826   4.187   9.985   0.833  0.5221  0.0198 -1.1540
31065SOL    HW195827   4.125  10.030   0.776 -0.4464 -0.9582 -0.9007
31065SOL    HW295828   4.201   9.899   0.791 -1.1202 -1.1965  0.6287
31066SOL     OW95829   4.458   7.571   4.017 -0.0509  0.1953  0.4534
31066SOL    HW195830   4.460   7.606   3.928  0.1952  3.9756  1.7806
31066SOL    HW295831   4.366   7.570   4.041 -0.1043 -0.6891  0.2651
31067SOL     OW95832   1.963   2.678   9.353 -0.2275 -0.0096 -0.3932
31067SOL    HW195833   1.929   2.595   9.387 -0.9903  0.8614  1.0982
31067SOL    HW295834   2.001   2.656   9.268  0.3362 -2.0301  0.3335
31068SOL     OW95835  10.010   5.698   1.996  0.3337 -0.1789 -0.2249
31068SOL    HW195836   9.915   5.711   2.005 -0.0186 -2.3005 -0.2839
31068SOL    HW295837  10.027   5.710   1.903 -0.0826 -0.8440 -0.3948
31069SOL     OW95838   5.757   9.600   7.502 -0.4329  0.2503 -0.4298
31069SOL    HW195839   5.773   9.570   7.591 -0.5314  0.6580 -0.2724
31069SOL    HW295840   5.792   9.530   7.446  0.4615  0.4094 -0.0830
31070SOL     OW95841   5.081   7.333   0.872  0.6445  0.6048  0.3264
31070SOL    HW195842   5.117   7.251   0.906 -0.1027  0.0919 -0.0950
31070SOL    HW295843   5.076   7.390   0.948 -0.9665 -0.5156  1.1115
31071SOL     OW95844   4.262   7.217   2.354 -0.0546 -0.7113 -0.2031
31071SOL    HW195845   4.245   7.269   2.275 -0.1043  0.8101  0.7582
31071SOL    HW295846   4.357   7.215   2.362 -0.0590  0.3977  0.4451
31072SOL     OW95847   7.046   2.215   9.647 -0.1656 -0.5500 -0.2421
31072SOL    HW195848   7.014   2.294   9.690  0.3282  0.1189 -1.0929
31072SOL    HW295849   7.132   2.199   9.686  1.3447  1.3763 -2.5102
31073SOL     OW95850   2.603   7.068   0.831  0.2784  0.1479  0.8780
31073SOL    HW195851   2.658   7.122   0.775 -0.7612  0.9576  0.5913
31073SOL    HW295852   2.644   6.982   0.829  1.5228  0.7229  0.6937
31074SOL     OW95853  10.226   0.049   6.585 -0.5407 -0.1908  0.4150
31074SOL    HW195854  10.262   0.022   6.500  1.1104 -1.1347  1.3462
31074SOL    HW295855  10.252   0.140   6.595 -2.1057  0.4128 -0.7439
31075SOL     OW95856   1.240   4.592   5.260  0.1849  0.0360  0.1825
31075SOL    HW195857   1.298   4.600   5.185  0.6479 -1.1823  0.3902
31075SOL    HW295858   1.163   4.644   5.236  0.1230 -0.6870 -1.3488
31076SOL     OW95859   5.382   3.908  10.075  0.5540  0.1513 -0.2036
31076SOL    HW195860   5.300   3.929  10.119  1.3122  0.1550  1.2753
31076SOL    HW295861   5.398   3.983  10.018 -0.1775  0.4085 -0.0860
31077SOL     OW95862  10.207   2.577   9.755 -0.8518  0.2694 -0.3073
31077SOL    HW195863  10.144   2.639   9.792 -1.0185  0.3580 -0.7315
31077SOL    HW295864  10.289   2.625   9.751 -0.9123  0.3687 -0.3652
31078SOL     OW95865   5.827   2.985   5.900 -0.5189 -0.5670 -0.0481
31078SOL    HW195866   5.847   2.899   5.935 -3.1286 -1.1604  0.1881
31078SOL    HW295867   5.774   2.968   5.822  0.7635  0.8235 -1.2974
31079SOL     OW95868   6.762   6.066   9.886  0.0045 -0.0487 -0.2737
31079SOL    HW195869   6.741   5.973   9.892 -0.8216  0.2095  1.1920
31079SOL    HW295870   6.719   6.095   9.806 -0.0543 -0.8353 -0.5371
31080SOL     OW95871   5.865   0.056   6.928  0.3017 -0.5778 -0.2805
31080SOL    HW195872   5.929   0.053   6.999  1.8959 -1.6604 -1.6879
31080SOL    HW295873   5.885  -0.021   6.875 -2.3794 -1.1023 -0.6402
31081SOL     OW95874   6.939   3.864   2.178  0.0105 -0.2724  0.1030
31081SOL    HW195875   6.977   3.781   2.207  0.5843  0.0777  0.4078
31081SOL    HW295876   6.865   3.878   2.237  1.6174  0.7970  2.0081
31082SOL     OW95877   2.012   2.329   5.601 -0.3137  0.3846 -0.0397
31082SOL    HW195878   1.975   2.342   5.688  0.5484  1.5140  0.1985
31082SOL    HW295879   2.002   2.414   5.558 -0.4776 -0.0783 -0.9420
31083SOL     OW95880   1.618   0.438   8.776 -0.5652 -0.1254 -0.1807
31083SOL    HW195881   1.568   0.403   8.850  0.8394 -0.5329  0.6065
31083SOL    HW295882   1.642   0.527   8.804  2.2523 -1.1633  1.1065
31084SOL     OW95883   4.737   0.958   3.645  0.3493 -0.4478 -0.0488
31084SOL    HW195884   4.747   0.907   3.725  0.2115  0.0461  0.2925
31084SOL    HW295885   4.704   1.043   3.675  4.0267  1.1978 -0.1098
31085SOL     OW95886   5.790   8.315   1.882 -0.3505 -0.1852  0.0055
31085SOL    HW195887   5.716   8.261   1.909 -1.4548  1.4337  0.4278
31085SOL    HW295888   5.776   8.332   1.789 -0.2760 -0.2486 -0.0169
31086SOL     OW95889   7.042   6.421   2.056  0.1482 -0.5234 -0.2081
31086SOL    HW195890   6.999   6.382   1.980  0.0010  0.4214 -0.6141
31086SOL    HW295891   7.134   6.430   2.029  0.1991 -0.6501 -0.0822
31087SOL     OW95892   3.817   0.159   9.884  0.1661 -0.2932  0.2649
31087SOL    HW195893   3.727   0.127   9.894 -0.2490  1.3877  3.0676
31087SOL    HW295894   3.871   0.098   9.933  0.3848 -0.4985 -0.2182
31088SOL     OW95895   1.954   0.525   1.076  0.2532  0.1346 -0.4181
31088SOL    HW195896   1.887   0.592   1.063  0.9144  0.9639  0.2804
31088SOL    HW295897   2.008   0.529   0.997  0.2693  0.4130 -0.3934
31089SOL     OW95898   0.664   1.044   1.400 -0.1494  0.0381 -0.3329
31089SOL    HW195899   0.699   1.124   1.361  2.6188 -2.3255 -3.2029
31089SOL    HW295900   0.629   0.994   1.327  0.5553 -2.4429  0.9166
31090SOL     OW95901   9.451   8.798   2.781  0.2647 -0.2083 -0.2745
31090SOL    HW195902   9.528   8.847   2.809  2.1616 -1.8223 -2.2798
31090SOL    HW295903   9.442   8.817   2.687  1.1067 -3.4883 -1.1736
31091SOL     OW95904   9.180   9.967   6.526 -0.5251  0.1690  0.3443
31091SOL    HW195905   9.173   9.955   6.620 -0.3197  1.0364  0.4836
31091SOL    HW295906   9.250  10.032   6.516  1.8115 -2.2797 -0.5544
31092SOL     OW95907   6.128   5.065   1.641 -0.2362 -0.2352 -0.7926
31092SOL    HW195908   6.129   5.159   1.620  0.9333  0.2035  0.9925
31092SOL    HW295909   6.050   5.054   1.696 -0.0347 -0.1750 -0.4918
31093SOL     OW95910   8.399   7.729   3.030 -0.1724 -0.1540 -0.0908
31093SOL    HW195911   8.308   7.712   3.051 -0.0544  0.0353  0.6143
31093SOL    HW295912   8.431   7.648   2.992 -0.3885 -0.5369  0.5321
31094SOL     OW95913   8.774   5.083   3.854 -0.0931 -0.5364  0.2350
31094SOL    HW195914   8.799   5.171   3.826  0.7958 -1.7168 -3.1553
31094SOL    HW295915   8.803   5.078   3.945 -0.7182  2.8107  0.7768
31095SOL     OW95916   7.245   8.737   3.197  0.5225  0.0494 -0.1546
31095SOL    HW195917   7.326   8.788   3.198 -0.1046  1.0771 -0.4134
31095SOL    HW295918   7.239   8.704   3.107  0.0279  1.0184 -0.4866
31096SOL     OW95919   5.726   4.023   7.626 -0.3769 -0.2663 -0.2186
31096SOL    HW195920   5.725   4.104   7.575 -0.1732  0.8039  1.3906
31096SOL    HW295921   5.819   4.006   7.642 -0.3917 -1.1025 -0.9495
31097SOL     OW95922   4.004   1.550   9.285  0.0098  0.1138 -0.1140
31097SOL    HW195923   3.909   1.551   9.278  0.0267 -1.5987 -1.0042
31097SOL    HW295924   4.034   1.610   9.216 -0.4150  3.1267  2.1231
31098SOL     OW95925   7.104   2.312   6.225 -0.1764  0.0887  0.0557
31098SOL    HW195926   7.068   2.230   6.191  0.9831 -0.7281  0.7345
31098SOL    HW295927   7.126   2.363   6.147 -0.1772 -0.5785 -0.3893
31099SOL     OW95928   3.690   1.908   0.821  0.8393  0.7539  0.1187
31099SOL    HW195929   3.671   1.937   0.731 -0.0627 -0.1073  0.0164
31099SOL    HW295930   3.735   1.983   0.861  1.9848  0.8522 -1.2808
31100SOL     OW95931   3.963   4.465   1.333  0.0717 -0.0854 -0.1395
31100SOL    HW195932   3.952   4.459   1.428  0.4868 -0.7452 -0.1248
31100SOL    HW295933   3.909   4.540   1.307 -0.2239 -0.0385  0.5851
31101SOL     OW95934   4.166   5.352   0.593 -0.3985 -0.5190 -0.5205
31101SOL    HW195935   4.113   5.405   0.653 -0.8889  0.3393 -1.6765
31101SOL    HW295936   4.179   5.407   0.516  3.6658  0.0277  0.3052
31102SOL     OW95937   0.936   8.107   9.035  0.0263 -0.0641  0.0201
31102SOL    HW195938   0.982   8.032   8.998  1.2237  1.7364 -2.3789
31102SOL    HW295939   0.872   8.131   8.967  0.6640  1.9287  0.0828
31103SOL     OW95940   4.114   2.861   8.887  0.2300 -0.4535  0.3025
31103SOL    HW195941   4.105   2.817   8.802  0.1435 -0.5971  0.3864
31103SOL    HW295942   4.025   2.882   8.913  0.4038  2.7761 -1.3019
31104SOL     OW95943   2.191   8.275   2.066  0.2811  0.1022  0.1317
31104SOL    HW195944   2.227   8.326   1.993  0.5923  0.1035  0.2844
31104SOL    HW295945   2.097   8.295   2.064  0.3298  0.3270 -0.0909
31105SOL     OW95946   6.622   4.937   1.124  0.3359  0.3240  0.1015
31105SOL    HW195947   6.683   4.907   1.191  1.9761 -0.0794 -1.4988
31105SOL    HW295948   6.667   4.920   1.041  0.0221  4.1616 -1.0557
31106SOL     OW95949   7.262   7.134   3.565 -0.0994 -0.3391  0.9324
31106SOL    HW195950   7.284   7.089   3.484  0.0426 -1.3773  1.5199
31106SOL    HW295951   7.271   7.227   3.545 -0.6037 -0.5595 -0.3806
31107SOL     OW95952   3.627   8.643   4.759  0.4862  0.0900  0.0095
31107SOL    HW195953   3.697   8.581   4.739  0.1256 -0.3562  0.1136
31107SOL    HW295954   3.593   8.668   4.673  1.7369  1.4430 -0.1157
31108SOL     OW95955   0.864   5.578  10.307 -0.1273  0.2118  0.5380
31108SOL    HW195956   0.890   5.523  10.233 -0.8726  1.3069 -0.6060
31108SOL    HW295957   0.896   5.533  10.384 -2.5569 -2.9662 -0.0991
31109SOL     OW95958   7.255   3.766   2.872  0.2386  0.4015  0.2379
31109SOL    HW195959   7.168   3.777   2.833  1.1066 -2.1117 -2.7438
31109SOL    HW295960   7.237   3.736   2.961 -1.9816 -0.4772 -0.4374
31110SOL     OW95961  10.142   6.395   4.233  0.0584 -0.0666  0.7520
31110SOL    HW195962  10.229   6.365   4.207  0.2337  0.7139  0.4162
31110SOL    HW295963  10.099   6.317   4.270  0.5724 -0.6672  0.0871
31111SOL     OW95964   1.948   2.405   2.914  0.2647 -0.2691 -0.4633
31111SOL    HW195965   1.875   2.343   2.916 -0.2689  0.3454 -0.4676
31111SOL    HW295966   1.916   2.481   2.962  1.4340 -0.5410  0.8187
31112SOL     OW95967   1.956   2.507   6.103 -0.1664 -0.3014  0.3016
31112SOL    HW195968   1.973   2.553   6.021 -0.3663 -2.7871 -1.2628
31112SOL    HW295969   2.022   2.437   6.105 -1.1483 -1.2507  1.4465
31113SOL     OW95970   7.897   8.804   0.465  0.4226  0.0024 -0.2062
31113SOL    HW195971   7.828   8.870   0.452 -0.4392 -0.1467  2.9060
31113SOL    HW295972   7.883   8.742   0.394 -1.6360  0.8222 -0.6102
31114SOL     OW95973   4.996   4.205   0.430 -0.2293 -0.1748  0.2965
31114SOL    HW195974   5.007   4.113   0.456  0.8304 -0.4279 -0.9588
31114SOL    HW295975   4.927   4.203   0.364 -1.2019  0.1487  1.2649
31115SOL     OW95976   3.710  10.277   0.258 -0.7309 -0.5082  1.0919
31115SOL    HW195977   3.760  10.297   0.178  0.4194 -0.6020  1.7673
31115SOL    HW295978   3.631  10.233   0.226 -1.4895  1.6248 -0.1603
31116SOL     OW95979   7.073   7.844   7.803 -0.2410 -0.4069 -0.0288
31116SOL    HW195980   7.000   7.901   7.825  0.4105 -0.2300  1.8300
31116SOL    HW295981   7.141   7.902   7.769 -0.8632 -0.5542 -1.6134
31117SOL     OW95982   9.726  10.305   7.889  0.0247 -0.8023 -0.5209
31117SOL    HW195983   9.705  10.316   7.797  1.1116  1.2457 -0.5944
31117SOL    HW295984   9.815  10.271   7.890  0.3346 -0.0119 -0.2544
31118SOL     OW95985   3.368   4.648   4.931  0.0987 -0.7217  0.3225
31118SOL    HW195986   3.403   4.676   5.016 -1.6335  0.0048  0.8533
31118SOL    HW295987   3.411   4.704   4.868  0.2847 -0.2092  0.8938
31119SOL     OW95988   9.596   2.250  10.111 -0.3873  0.6628  0.0545
31119SOL    HW195989   9.542   2.318  10.150  0.5930  0.9551  0.9554
31119SOL    HW295990   9.683   2.289  10.104 -0.3925  0.4444 -1.9915
31120SOL     OW95991   3.130   2.000   7.747  0.5954 -0.4179 -0.5100
31120SOL    HW195992   3.168   1.917   7.777  1.1452 -0.2830 -0.8063
31120SOL    HW295993   3.205   2.060   7.746 -0.2389  0.8250  2.2817
31121SOL     OW95994   0.648   0.245   2.464  0.3144 -0.2308  0.1344
31121SOL    HW195995   0.625   0.173   2.404  1.4631  0.1398 -0.7924
31121SOL    HW295996   0.567   0.296   2.471  0.0707 -0.4382 -0.8971
31122SOL     OW95997   2.319   8.957   0.904  0.0868  0.3310 -0.2752
31122SOL    HW195998   2.315   8.892   0.974  0.7361 -0.2239 -0.7264
31122SOL    HW295999   2.412   8.979   0.898  0.5762 -1.8623 -2.8764
31123SOL     OW96000   9.483   4.594   5.128 -0.3853  0.2036 -0.0417
31123SOL    HW196001   9.487   4.511   5.080  0.0298  0.6757 -0.8644
31123SOL    HW296002   9.391   4.604   5.151 -0.5704 -0.1244 -0.6098
31124SOL     OW96003   9.302   8.706   1.786  0.0721 -0.2850 -0.1568
31124SOL    HW196004   9.325   8.613   1.786  0.8279 -0.1634  2.3233
31124SOL    HW296005   9.215   8.709   1.747 -0.7756 -2.3059  1.3859
31125SOL     OW96006   8.422   1.159   0.299 -0.4218 -0.6446 -0.4012
31125SOL    HW196007   8.476   1.237   0.295  0.3014 -1.1883 -2.2723
31125SOL    HW296008   8.380   1.163   0.386 -0.0589  1.5427 -0.2682
31126SOL     OW96009   6.390   3.457   4.837 -0.3750 -0.7162  0.4054
31126SOL    HW196010   6.451   3.454   4.911  1.6794  0.2717 -1.1390
31126SOL    HW296011   6.406   3.374   4.791  0.8594  0.1066 -0.7284
31127SOL     OW96012   4.740   8.143   2.874  0.4151 -0.4088 -0.2785
31127SOL    HW196013   4.720   8.115   2.784 -1.0583 -0.4102  0.0373
31127SOL    HW296014   4.769   8.063   2.917  1.4825 -0.3415 -0.8319
31128SOL     OW96015   0.599   0.634   6.794  0.0211  0.0445 -0.1348
31128SOL    HW196016   0.598   0.708   6.854 -0.7203  0.1617 -0.2829
31128SOL    HW296017   0.533   0.655   6.728  0.1903 -0.4931 -0.4849
31129SOL     OW96018   1.955   2.849   2.237 -0.1902 -0.6711 -0.1588
31129SOL    HW196019   2.007   2.859   2.158  0.3911 -1.5664  0.0943
31129SOL    HW296020   1.894   2.923   2.235  0.9507  0.2927 -0.5547
31130SOL     OW96021   4.850   1.657   9.930  0.0814  0.0582  0.3109
31130SOL    HW196022   4.939   1.686   9.950  0.1748 -0.1437  0.1938
31130SOL    HW296023   4.848   1.652   9.834  0.3379 -1.1577  0.3521
31131SOL     OW96024   4.285   2.969   3.814  0.7553  0.1436  0.0396
31131SOL    HW196025   4.293   2.984   3.908  1.0478  0.2223  0.0024
31131SOL    HW296026   4.370   2.933   3.788  0.9226  0.7947 -0.3238
31132SOL     OW96027   0.734   3.523   1.616  0.2037  0.2802 -0.0614
31132SOL    HW196028   0.655   3.572   1.638 -0.6618 -1.2637  0.4822
31132SOL    HW296029   0.708   3.468   1.541  0.8415 -0.0454 -0.0514
31133SOL     OW96030   5.185   1.450   7.026 -0.1150  0.0716 -0.6503
31133SOL    HW196031   5.107   1.395   7.020 -0.0617 -0.0867  0.0206
31133SOL    HW296032   5.191   1.473   7.119  2.0927 -2.0888 -0.1359
31134SOL     OW96033   9.374   3.775   3.428 -0.2811  0.1039  0.3429
31134SOL    HW196034   9.436   3.752   3.358  0.7150  0.3140  1.1228
31134SOL    HW296035   9.412   3.854   3.468 -1.4952  0.7174  0.3220
31135SOL     OW96036   3.701   6.769   0.942  0.1299  0.0497 -0.3646
31135SOL    HW196037   3.684   6.740   0.853 -0.4876 -0.5213 -0.0738
31135SOL    HW296038   3.744   6.854   0.932  0.9364 -0.4474 -1.2109
31136SOL     OW96039   3.899   9.259  10.017 -0.2794  0.0241 -0.0082
31136SOL    HW196040   3.805   9.246  10.010 -0.5022  1.8769 -1.1452
31136SOL    HW296041   3.937   9.173   9.997 -1.7064 -1.2460  2.3941
31137SOL     OW96042   5.448   0.252   5.403  0.2910  0.3165  0.0879
31137SOL    HW196043   5.495   0.170   5.419 -0.0686  0.1434  0.2733
31137SOL    HW296044   5.369   0.245   5.457  0.3729  0.8859  0.2808
31138SOL     OW96045   9.979   5.127   0.395  0.1966  0.2102  0.1431
31138SOL    HW196046   9.979   5.118   0.300  1.8915  2.8704 -0.1998
31138SOL    HW296047   9.939   5.212   0.411  1.3560  0.4874  1.7014
31139SOL     OW96048  10.025   8.837   6.013  0.4841  0.0050 -0.2596
31139SOL    HW196049   9.935   8.865   5.997 -0.0664 -1.2428  0.4650
31139SOL    HW296050  10.067   8.839   5.927 -0.0785  1.0774 -0.5271
31140SOL     OW96051   4.126   9.574   7.329 -0.3023 -0.0546  0.0171
31140SOL    HW196052   4.110   9.603   7.419  0.9660  1.1567 -0.1076
31140SOL    HW296053   4.221   9.560   7.325 -0.6595 -3.2394 -0.2837
31141SOL     OW96054   0.259   3.152   7.176  0.0791 -0.6433 -0.3995
31141SOL    HW196055   0.246   3.058   7.190 -0.2491 -0.5157  0.1919
31141SOL    HW296056   0.173   3.191   7.193  0.4125 -0.1507  0.1628
31142SOL     OW96057   3.531   4.939   8.133 -0.2084 -0.1354 -0.2028
31142SOL    HW196058   3.626   4.928   8.140 -0.1994 -0.0009 -0.0994
31142SOL    HW296059   3.500   4.860   8.088 -0.0132 -0.0538 -0.4859
31143SOL     OW96060   8.917   1.869   5.328 -0.0428 -0.2820 -0.2126
31143SOL    HW196061   8.825   1.892   5.318 -0.0897 -0.5527 -0.4002
31143SOL    HW296062   8.964   1.946   5.295 -0.2003 -0.1583 -0.1492
31144SOL     OW96063   5.567   7.718   4.388  0.3880 -0.1428  0.1797
31144SOL    HW196064   5.621   7.749   4.460  1.7340  0.2370 -0.9390
31144SOL    HW296065   5.562   7.793   4.328 -2.1159  0.1201  0.6260
31145SOL     OW96066   9.978   0.283   8.968  0.4886 -0.3656 -0.1345
31145SOL    HW196067   9.926   0.281   8.887  0.0641 -0.6542  0.1462
31145SOL    HW296068   9.919   0.252   9.036  0.4515  1.0131  0.5118
31146SOL     OW96069   7.949   3.210   6.410 -0.0615 -0.0779 -0.0405
31146SOL    HW196070   7.882   3.212   6.341  0.2635  1.6014 -0.3667
31146SOL    HW296071   8.013   3.276   6.382  0.6970 -0.2336  1.2721
31147SOL     OW96072   6.362   1.951   6.749 -0.2271 -0.3095 -0.2530
31147SOL    HW196073   6.328   2.039   6.764 -0.4140 -0.4539  0.1990
31147SOL    HW296074   6.449   1.952   6.788  0.3645  0.0978 -1.5201
31148SOL     OW96075   6.675   4.008   0.536 -0.1846 -0.0664  0.2377
31148SOL    HW196076   6.651   4.040   0.449 -0.8104 -0.4292  0.2703
31148SOL    HW296077   6.595   3.968   0.570  0.0428  0.1149  1.0025
31149SOL     OW96078   8.296   2.940   6.823 -0.2588 -0.2213  0.3446
31149SOL    HW196079   8.310   3.014   6.764  0.3556  0.2230  1.0315
31149SOL    HW296080   8.207   2.910   6.803  0.6088 -1.3918 -2.2259
31150SOL     OW96081   9.538   3.793   2.117 -0.4059  0.2109 -0.1413
31150SOL    HW196082   9.546   3.886   2.138  0.4301 -0.2031  1.4865
31150SOL    HW296083   9.552   3.748   2.200  0.4098 -1.4250 -1.1210
31151SOL     OW96084  10.237  10.043   6.976  0.1731 -0.0745 -0.2205
31151SOL    HW196085  10.253  10.014   6.886 -1.3686 -0.5102 -0.3903
31151SOL    HW296086  10.277   9.975   7.030  1.7480  0.5574 -0.5409
31152SOL     OW96087   1.721   6.367   1.511 -0.5466  0.4288  0.3175
31152SOL    HW196088   1.748   6.278   1.490 -2.2303  0.0297 -0.2790
31152SOL    HW296089   1.750   6.380   1.601 -0.1385 -0.6634  0.3575
31153SOL     OW96090   9.568   0.106   2.915 -0.4576 -0.0061  0.4110
31153SOL    HW196091   9.514   0.043   2.866  0.4504 -1.3072  1.0063
31153SOL    HW296092   9.511   0.136   2.986 -0.3298 -1.6925  1.2921
31154SOL     OW96093   7.718   4.379   9.517 -0.5402 -0.3867 -0.4572
31154SOL    HW196094   7.642   4.349   9.467 -0.2852  0.8903 -1.6515
31154SOL    HW296095   7.731   4.310   9.583 -0.5010 -2.5121 -2.5182
31155SOL     OW96096   2.892   1.881   5.965 -0.7602  0.1990  0.3316
31155SOL    HW196097   2.906   1.787   5.958  1.9581  0.6208 -1.1231
31155SOL    HW296098   2.858   1.906   5.878  1.4688  0.9214 -0.3920
31156SOL     OW96099   5.731   9.152   0.444 -0.2581  0.4863 -0.3859
31156SOL    HW196100   5.699   9.195   0.523  0.5261  0.0726  0.1722
31156SOL    HW296101   5.815   9.114   0.470 -1.4917 -2.5359 -0.4455
31157SOL     OW96102   4.254   9.722   6.400 -0.4516 -0.2994 -0.1050
31157SOL    HW196103   4.304   9.656   6.448  0.8494  1.9577  1.8398
31157SOL    HW296104   4.165   9.686   6.397  0.3582 -2.4915  0.1227
31158SOL     OW96105   2.892   2.597   2.207  0.1070  0.2567 -0.4326
31158SOL    HW196106   2.857   2.668   2.261  1.6560  0.5142  0.2889
31158SOL    HW296107   2.980   2.627   2.183 -0.4657  0.0993 -3.0303
31159SOL     OW96108   1.711   5.904  10.120  0.4586 -0.0241 -0.3238
31159SOL    HW196109   1.781   5.952  10.076  0.3370  0.0867 -0.3971
31159SOL    HW296110   1.636   5.911  10.061  0.0741  0.7763  0.2492
31160SOL     OW96111   9.345   3.523   0.550  0.5188 -0.0304  0.0309
31160SOL    HW196112   9.427   3.565   0.577 -0.8289  2.4453  0.5982
31160SOL    HW296113   9.331   3.453   0.615  1.1092  0.9397  1.2416
31161SOL     OW96114   5.877   2.765   9.089  0.1020 -0.5892  0.4617
31161SOL    HW196115   5.864   2.764   8.994 -0.2118  1.7519  0.4254
31161SOL    HW296116   5.832   2.686   9.120 -2.2531  0.0299 -1.0896
31162SOL     OW96117   4.569   0.691  10.102  0.3776 -0.5167  0.2522
31162SOL    HW196118   4.530   0.711  10.016 -0.2573  0.8856  0.8366
31162SOL    HW296119   4.663   0.688  10.085  0.2337 -0.6606 -0.5785
31163SOL     OW96120   4.930   4.253  10.219  0.3732  0.0720  0.2721
31163SOL    HW196121   4.869   4.181  10.235 -0.3673  0.3469 -1.1971
31163SOL    HW296122   4.942   4.294  10.305 -0.7188 -0.6090  0.7649
31164SOL     OW96123   2.310   5.994   8.072  0.0082 -0.1796 -0.4227
31164SOL    HW196124   2.359   6.057   8.123  1.5044 -1.0229 -0.7565
31164SOL    HW296125   2.221   5.999   8.107  0.3463  1.2697  0.3151
31165SOL     OW96126   2.842   9.415   4.234 -0.4562  0.3379 -0.0542
31165SOL    HW196127   2.855   9.329   4.195 -0.3521  1.0135 -1.5545
31165SOL    HW296128   2.756   9.410   4.276 -1.0118 -0.1183 -1.2080
31166SOL     OW96129   2.779   7.731   5.020  0.2360 -0.3103 -0.1973
31166SOL    HW196130   2.749   7.736   4.930 -0.8046 -0.4742  0.1201
31166SOL    HW296131   2.837   7.806   5.031 -2.1048  1.6063 -0.1286
31167SOL     OW96132   8.313   6.335   9.070  0.7167 -0.2041 -0.3256
31167SOL    HW196133   8.320   6.394   8.995  0.0024  0.3606  0.0397
31167SOL    HW296134   8.404   6.321   9.097  0.9311  0.2560 -0.7888
31168SOL     OW96135   5.835   4.429   6.824  0.5759 -0.2997 -0.6302
31168SOL    HW196136   5.762   4.374   6.796  2.7808 -3.0176 -1.4279
31168SOL    HW296137   5.793   4.504   6.867 -2.6776 -1.0532 -2.1624
31169SOL     OW96138   2.151   1.288   4.650  0.5465  0.0489  0.0727
31169SOL    HW196139   2.130   1.340   4.572 -0.3734 -1.2803 -0.6147
31169SOL    HW296140   2.221   1.337   4.693  1.1054  0.8169 -1.6010
31170SOL     OW96141   5.539   8.860   2.820  0.4896  0.5800 -0.3150
31170SOL    HW196142   5.564   8.789   2.761  0.0114 -0.7435  1.0179
31170SOL    HW296143   5.610   8.865   2.884 -0.2891  0.1180  0.6056
31171SOL     OW96144   7.320   6.680   4.455 -0.2930  0.3065  0.7996
31171SOL    HW196145   7.309   6.648   4.365 -1.3078  1.1547  0.6116
31171SOL    HW296146   7.239   6.726   4.474  0.7015  1.8781  1.4405
31172SOL     OW96147   0.780   5.930   5.031  0.2089 -0.0893 -0.1219
31172SOL    HW196148   0.841   5.982   4.979 -0.5833  0.6626 -0.3301
31172SOL    HW296149   0.698   5.934   4.981 -1.1783  2.3201  2.1082
31173SOL     OW96150   2.372   4.835   1.132 -0.4923  0.1534 -0.1438
31173SOL    HW196151   2.284   4.851   1.096 -1.4041 -0.5312  1.6441
31173SOL    HW296152   2.363   4.856   1.225  1.3668  0.4301  0.0073
31174SOL     OW96153   5.469  10.163   7.738  0.1884 -0.3859  0.1496
31174SOL    HW196154   5.418  10.082   7.738 -0.8798  0.2600 -1.1139
31174SOL    HW296155   5.557  10.135   7.763 -0.0527 -2.0245 -0.6750
31175SOL     OW96156   5.881   8.232   7.980 -0.0873 -0.1450 -0.0231
31175SOL    HW196157   5.953   8.170   7.984  0.1898  0.1844  0.2078
31175SOL    HW296158   5.821   8.196   7.915 -1.7410 -2.5502  2.6265
31176SOL     OW96159   1.795   9.281   4.788  0.3453 -0.0287 -0.1699
31176SOL    HW196160   1.757   9.281   4.700 -1.5552 -1.4986  0.5887
31176SOL    HW296161   1.864   9.215   4.785  0.6363  0.2886 -0.6710
31177SOL     OW96162   2.857   6.309   8.482  0.4648 -0.0703 -0.3657
31177SOL    HW196163   2.933   6.254   8.503 -1.1543 -1.9012  1.0514
31177SOL    HW296164   2.871   6.390   8.532  1.1463 -0.6878  0.4788
31178SOL     OW96165   0.228   3.564   5.084  0.1084  0.1642  0.2043
31178SOL    HW196166   0.189   3.488   5.042  0.8228 -0.9299  1.4025
31178SOL    HW296167   0.263   3.530   5.167  0.8712  1.7029  0.5640
31179SOL     OW96168   9.762   4.146   0.018 -0.0334  0.5092  0.0746
31179SOL    HW196169   9.698   4.166   0.087 -0.1778 -0.3403  0.1987
31179SOL    HW296170   9.815   4.226   0.011  0.6359  0.2739  1.8860
31180SOL     OW96171   1.553   4.032   5.991 -0.2191 -0.2576 -0.2320
31180SOL    HW196172   1.631   4.081   5.963 -0.1368 -0.8450 -1.0726
31180SOL    HW296173   1.480   4.079   5.951 -0.2039 -0.3597 -0.3801
31181SOL     OW96174   4.971   7.232   2.723  0.6823 -0.0930  0.3107
31181SOL    HW196175   5.004   7.149   2.756  1.1708 -0.1816 -0.3862
31181SOL    HW296176   5.023   7.250   2.644  0.6708  0.9294  0.5132
31182SOL     OW96177   3.695   5.050  10.258  0.0963  0.0986 -0.1967
31182SOL    HW196178   3.678   4.957  10.272 -1.0022  0.3196 -0.0277
31182SOL    HW296179   3.619   5.095  10.294  1.2359  1.1596  1.0184
31183SOL     OW96180   8.991   4.741  10.232  0.4113  0.2758  0.0032
31183SOL    HW196181   8.957   4.808  10.291 -0.5445  0.9356 -1.2603
31183SOL    HW296182   8.948   4.660  10.261 -0.5517  0.7102 -0.1738
31184SOL     OW96183   2.974   0.814   1.491 -0.0274 -0.2257  0.0713
31184SOL    HW196184   2.882   0.835   1.506  0.1986  0.8198  0.0308
31184SOL    HW296185   3.009   0.797   1.578 -0.4893 -1.6740  0.0021
31185SOL     OW96186   4.587   0.844  10.333  0.6536  0.0029 -0.4880
31185SOL    HW196187   4.674   0.815  10.362  1.0808  0.4088 -1.3334
31185SOL    HW296188   4.574   0.801  10.249  0.2924  0.4253 -0.6537
31186SOL     OW96189   8.029   4.862   3.177  0.0548 -0.1791  0.2028
31186SOL    HW196190   7.935   4.861   3.195  0.2121  0.3819  1.1444
31186SOL    HW296191   8.069   4.860   3.264  0.9234 -0.9481 -0.2069
31187SOL     OW96192   7.597   5.721   3.999 -0.0042  0.0544 -0.4535
31187SOL    HW196193   7.612   5.814   4.018 -1.2365  0.0337  0.7765
31187SOL    HW296194   7.567   5.684   4.082  0.1767 -1.3863 -1.0022
31188SOL     OW96195   0.076   0.234   1.676  0.6936 -0.3082  0.6178
31188SOL    HW196196   0.089   0.246   1.770 -0.9752 -1.8658  1.1036
31188SOL    HW296197   0.076   0.139   1.663  1.1504 -0.1267 -1.0114
31189SOL     OW96198  10.059   3.654   4.514  0.1644  0.3318 -0.2264
31189SOL    HW196199  10.110   3.602   4.576 -0.0664  0.7428  0.3149
31189SOL    HW296200  10.040   3.594   4.443  0.0508 -0.2748  0.3091
31190SOL     OW96201   1.000   6.896   3.279  0.6078 -0.1435 -0.2457
31190SOL    HW196202   1.041   6.848   3.351 -0.0922 -0.0897  0.1865
31190SOL    HW296203   1.052   6.870   3.202  2.4010  1.0460  0.4859
31191SOL     OW96204   2.076   5.811   9.674  0.4044 -0.2991 -0.3731
31191SOL    HW196205   2.141   5.873   9.709  1.0378 -1.9998  1.6768
31191SOL    HW296206   2.056   5.754   9.748 -3.2875 -0.0291 -1.0094
31192SOL     OW96207   0.895   3.906   4.915 -0.1111 -0.5016  0.6600
31192SOL    HW196208   0.868   3.920   5.006 -0.9342 -1.5954  0.6027
31192SOL    HW296209   0.958   3.834   4.920 -1.3356 -1.6333  0.2186
31193SOL     OW96210  10.022   1.271   0.877 -0.0668 -0.2286 -0.2052
31193SOL    HW196211   9.968   1.232   0.946  0.1760  1.6277  1.1112
31193SOL    HW296212   9.986   1.235   0.796 -0.7822 -1.9816  0.8258
31194SOL     OW96213   2.135   0.855   6.682 -1.0186  0.7281 -0.2074
31194SOL    HW196214   2.100   0.944   6.689 -0.1601  1.3614 -2.8943
31194SOL    HW296215   2.212   0.856   6.738 -0.0493  2.2783 -1.4572
31195SOL     OW96216   1.899   5.586   8.323 -0.2112 -0.0327 -0.4602
31195SOL    HW196217   1.921   5.678   8.332 -0.6554  0.1270 -0.9621
31195SOL    HW296218   1.865   5.561   8.409  0.0407  0.2347 -0.2832
31196SOL     OW96219   1.805   6.492   4.352 -0.0161 -0.4931 -0.1090
31196SOL    HW196220   1.884   6.439   4.342  1.1645  1.2397 -0.4109
31196SOL    HW296221   1.810   6.526   4.441  0.6949  1.2728 -0.7827
31197SOL     OW96222   6.164   6.151  10.032 -0.4594  0.2777  0.8035
31197SOL    HW196223   6.109   6.200  10.093 -0.4657  1.1345  0.1220
31197SOL    HW296224   6.160   6.060  10.064 -1.8518  0.4069  1.0683
31198SOL     OW96225   1.659   9.618   2.684 -0.3077 -0.0332  0.2751
31198SOL    HW196226   1.729   9.677   2.655 -0.4918  0.7615  1.4091
31198SOL    HW296227   1.594   9.675   2.724 -0.7941 -0.9424  0.8181
31199SOL     OW96228   1.814   1.740   7.621 -0.3687  0.0885 -0.0424
31199SOL    HW196229   1.768   1.663   7.653 -0.5880 -0.1732 -0.9467
31199SOL    HW296230   1.907   1.719   7.629 -0.4268 -0.2260 -0.1848
31200SOL     OW96231   2.567   5.281   1.601 -0.2235 -0.0067  0.3746
31200SOL    HW196232   2.537   5.366   1.570  0.8478  0.9809  1.9226
31200SOL    HW296233   2.636   5.256   1.540 -1.6960 -0.6429 -1.1189
31201SOL     OW96234   9.440   9.600   3.287 -0.4971 -0.0976 -0.0949
31201SOL    HW196235   9.509   9.631   3.229  1.3205  1.1498  2.5361
31201SOL    HW296236   9.392   9.679   3.313  0.2973 -0.2085  1.9219
31202SOL     OW96237   9.072   7.563   3.581 -0.9385  0.1448  0.3305
31202SOL    HW196238   9.058   7.531   3.670 -3.8205 -0.1704 -0.1284
31202SOL    HW296239   8.990   7.607   3.559  0.5135  2.1839 -1.4063
31203SOL     OW96240   1.915   1.858   4.730 -0.3118 -0.1737 -0.3056
31203SOL    HW196241   1.988   1.796   4.725  1.0423  1.3442 -0.3839
31203SOL    HW296242   1.905   1.889   4.640 -3.0314 -2.4151 -0.9301
31204SOL     OW96243   8.901   7.398   0.264 -0.2645  0.7224 -0.6424
31204SOL    HW196244   8.812   7.418   0.234 -0.8968  0.1964  0.7867
31204SOL    HW296245   8.902   7.303   0.276  0.7888  0.6036 -1.4792
31205SOL     OW96246   4.724   0.421   1.755  0.0160  0.4149 -0.2517
31205SOL    HW196247   4.799   0.456   1.803 -0.7947  1.0235  0.6182
31205SOL    HW296248   4.754   0.416   1.664  2.0735 -2.1316  0.4662
31206SOL     OW96249   7.192   9.743   3.144  0.0241 -0.1267  0.0449
31206SOL    HW196250   7.176   9.759   3.237 -0.5183  0.8877 -0.2065
31206SOL    HW296251   7.105   9.732   3.106  0.2475 -0.6772 -0.3303
31207SOL     OW96252   4.302   4.118   3.117  0.0096  0.3432  0.5928
31207SOL    HW196253   4.387   4.162   3.110  0.2014 -0.0499  0.4248
31207SOL    HW296254   4.309   4.042   3.060 -0.5581  0.4630  0.3517
31208SOL     OW96255   8.363   6.515   1.446 -0.3669  0.2714 -1.0336
31208SOL    HW196256   8.371   6.429   1.487  1.5915  0.4979 -0.8513
31208SOL    HW296257   8.315   6.568   1.510  0.4350 -0.0826 -0.1057
31209SOL     OW96258   1.879   7.168   1.270  0.1820 -0.4042  0.1613
31209SOL    HW196259   1.915   7.081   1.292  1.9050  0.2283  0.0097
31209SOL    HW296260   1.792   7.149   1.234  1.1296 -2.2200 -1.3729
31210SOL     OW96261   9.859   1.868   1.818 -0.1831 -0.2625  0.4848
31210SOL    HW196262   9.896   1.924   1.750 -0.8199 -0.6840 -0.2188
31210SOL    HW296263   9.877   1.915   1.899  1.2845 -0.1403  0.1072
31211SOL     OW96264   3.251   9.131   9.922 -0.2767 -0.2496 -0.2922
31211SOL    HW196265   3.191   9.206   9.920 -1.5265 -1.0829  1.8842
31211SOL    HW296266   3.304   9.146  10.001 -0.8382 -1.8418  0.4140
31212SOL     OW96267   4.521   3.729   7.167  0.0584  0.2410 -0.3858
31212SOL    HW196268   4.533   3.675   7.246  3.9631  0.5593 -0.5386
31212SOL    HW296269   4.553   3.673   7.096 -0.1300  1.1876 -1.2296
31213SOL     OW96270   9.378   1.405   7.639  0.4558 -0.2265  0.4541
31213SOL    HW196271   9.434   1.385   7.714  1.2136 -2.0927 -0.5346
31213SOL    HW296272   9.404   1.493   7.611  1.7910 -0.4323  0.9929
31214SOL     OW96273   7.911   3.968   3.470  0.5090  0.3296  0.4281
31214SOL    HW196274   7.889   3.964   3.377  2.0792  2.2980 -0.1021
31214SOL    HW296275   7.894   3.879   3.503  2.4147 -1.1933 -2.3286
31215SOL     OW96276   8.249   0.624   6.714 -0.4555  0.0490  0.8024
31215SOL    HW196277   8.267   0.552   6.775  0.3071  0.1565  0.7135
31215SOL    HW296278   8.279   0.592   6.629 -0.5292  0.3039  0.6790
31216SOL     OW96279   9.701   5.790   8.224  0.5441  0.5896 -0.0025
31216SOL    HW196280   9.641   5.770   8.151  0.8390  3.9955 -1.3349
31216SOL    HW296281   9.770   5.724   8.216 -1.6855 -1.9400  0.0987
31217SOL     OW96282   6.705  10.321   4.011 -0.4494  0.2171  0.3181
31217SOL    HW196283   6.693  10.355   4.100  1.2819 -0.7027  0.9461
31217SOL    HW296284   6.647  10.245   4.007 -0.1173 -0.0762  0.8709
31218SOL     OW96285   1.927   5.463   0.678  0.2879 -0.5308 -0.6483
31218SOL    HW196286   1.881   5.546   0.690  1.2669  0.0557 -0.8346
31218SOL    HW296287   1.939   5.430   0.767 -3.7660 -2.6171 -0.6444
31219SOL     OW96288   3.106   4.968   9.347 -0.7629 -0.3206  0.2861
31219SOL    HW196289   3.140   5.051   9.313 -1.3108  0.2443  1.0876
31219SOL    HW296290   3.172   4.939   9.410 -1.0378  0.0182  0.7369
31220SOL     OW96291   7.598   5.704   7.136  0.0073  0.2632  0.5351
31220SOL    HW196292   7.685   5.744   7.138 -0.7046  1.9199  0.2516
31220SOL    HW296293   7.589   5.661   7.221  1.4748 -0.8190  0.1759
31221SOL     OW96294   1.035   3.597   2.346  0.4645  0.4632  0.4716
31221SOL    HW196295   1.014   3.521   2.294  0.1136  0.8689  0.0137
31221SOL    HW296296   1.077   3.658   2.285 -1.5154  1.6546  0.2143
31222SOL     OW96297   7.091   6.842   4.380  0.4389  0.5752  0.4388
31222SOL    HW196298   7.119   6.783   4.309 -0.3295  1.0429 -0.2604
31222SOL    HW296299   7.117   6.929   4.350  1.3781  0.6323  1.3766
31223SOL     OW96300   3.415   5.699   4.469  0.0116  0.6474 -0.1988
31223SOL    HW196301   3.420   5.605   4.484  0.9159  0.9770  1.8422
31223SOL    HW296302   3.324   5.714   4.440  0.4774 -1.0718 -2.8808
31224SOL     OW96303   8.902   5.592   8.067 -0.6888 -0.0636 -0.2482
31224SOL    HW196304   8.943   5.594   7.980  0.3941 -2.7989  0.1039
31224SOL    HW296305   8.848   5.514   8.066  0.4183 -0.9322  1.9475
31225SOL     OW96306   2.771   8.682   3.347 -0.1134  0.0340  0.0252
31225SOL    HW196307   2.831   8.631   3.402 -0.0643  0.5715  0.4768
31225SOL    HW296308   2.742   8.620   3.280  1.1826 -0.1563 -0.3986
31226SOL     OW96309  10.068   8.681   4.130  0.1460 -0.4599 -0.0603
31226SOL    HW196310  10.008   8.711   4.061 -0.8040  0.3145  1.0614
31226SOL    HW296311  10.072   8.586   4.118 -0.0038 -0.3422 -1.1801
31227SOL     OW96312   0.167   0.683   4.755  0.6937 -0.0926 -0.6286
31227SOL    HW196313   0.190   0.594   4.779  0.6113 -0.0676 -0.4543
31227SOL    HW296314   0.083   0.699   4.799  0.1566 -0.3123 -1.5369
31228SOL     OW96315   7.843   1.451   4.211 -0.0839  0.2038 -0.3221
31228SOL    HW196316   7.754   1.464   4.242 -0.1885 -0.8711 -0.1586
31228SOL    HW296317   7.869   1.366   4.245  0.1729 -0.5557 -2.2878
31229SOL     OW96318   2.677   0.117   6.346 -0.4707  0.3421 -0.3990
31229SOL    HW196319   2.701   0.140   6.256 -0.7360 -0.3207 -0.6437
31229SOL    HW296320   2.692   0.022   6.351  2.8175  0.8006  1.2402
31230SOL     OW96321   2.211   8.407   6.678  0.7461 -0.1884  0.1937
31230SOL    HW196322   2.306   8.412   6.676  0.7646 -0.6175 -0.8908
31230SOL    HW296323   2.184   8.420   6.587 -0.3312  1.4349  0.6912
31231SOL     OW96324   8.861   6.035   3.191  0.0541  0.5056  0.2918
31231SOL    HW196325   8.921   5.965   3.215  1.1938  1.1694 -0.5133
31231SOL    HW296326   8.916   6.101   3.148 -1.2993  0.9787 -0.8171
31232SOL     OW96327   3.768   0.088   8.301 -0.4622 -0.3279  0.3207
31232SOL    HW196328   3.725   0.025   8.359 -1.1966 -0.1855 -0.0547
31232SOL    HW296329   3.847   0.113   8.348 -1.2086  0.0439  1.4398
31233SOL     OW96330   9.630   9.804   5.646  0.2038  0.0808 -0.4306
31233SOL    HW196331   9.633   9.757   5.729 -1.4285  0.3560 -0.1779
31233SOL    HW296332   9.632   9.896   5.671  2.7787  0.2185 -0.8922
31234SOL     OW96333   6.345   3.082   5.666  0.3540  0.2189 -0.3020
31234SOL    HW196334   6.347   3.100   5.572  1.0998 -1.6662 -0.6976
31234SOL    HW296335   6.265   3.031   5.679  0.8789 -0.5904 -0.1578
31235SOL     OW96336   1.691   3.088   3.014  0.3236  0.3641 -0.5618
31235SOL    HW196337   1.684   3.170   2.966 -0.5478  2.1166  2.3360
31235SOL    HW296338   1.772   3.096   3.064  0.2475 -0.5787 -0.2596
31236SOL     OW96339   9.394   3.308   0.770 -0.0168  0.4367 -0.7284
31236SOL    HW196340   9.450   3.273   0.840 -1.8312  0.6071  0.8841
31236SOL    HW296341   9.375   3.233   0.714 -0.4229 -0.2370  0.2877
31237SOL     OW96342   9.739   5.859   1.110 -0.2025 -0.0290  0.0635
31237SOL    HW196343   9.776   5.791   1.166  2.2278  1.1667  0.0433
31237SOL    HW296344   9.707   5.925   1.171 -1.6761 -0.7022  0.0618
31238SOL     OW96345   7.177   8.969   1.205 -0.1011 -0.2870 -0.7764
31238SOL    HW196346   7.251   8.946   1.149 -0.0101  0.4571 -0.9692
31238SOL    HW296347   7.101   8.932   1.160 -0.0413  0.4009 -1.4533
31239SOL     OW96348   2.943   4.322   5.168  0.7002 -0.4333 -0.7773
31239SOL    HW196349   2.858   4.310   5.211  1.5869 -2.0583  0.6232
31239SOL    HW296350   2.921   4.342   5.077 -1.1711 -0.6002 -0.4014
31240SOL     OW96351   3.198   4.158   2.138 -0.9770 -0.2468  0.2520
31240SOL    HW196352   3.105   4.137   2.145 -0.8587 -1.1275 -0.6457
31240SOL    HW296353   3.232   4.096   2.073  0.5451 -0.9338  1.6468
31241SOL     OW96354   2.412   1.239   9.733  0.3754  0.2649  0.2632
31241SOL    HW196355   2.405   1.223   9.827 -0.7789  1.2512  0.3663
31241SOL    HW296356   2.427   1.152   9.695  2.8140  0.0791  1.4886
31242SOL     OW96357   6.896   6.362   6.918  0.1453  0.4470  0.7678
31242SOL    HW196358   6.801   6.352   6.932  0.2179 -0.2876  0.7702
31242SOL    HW296359   6.914   6.308   6.841  0.1532  2.5015 -0.7796
31243SOL     OW96360   5.785   4.894   7.554 -1.1075  0.7526  0.0534
31243SOL    HW196361   5.842   4.891   7.477 -0.7615  0.7982  0.3019
31243SOL    HW296362   5.823   4.829   7.614 -1.0589  1.0923  0.3949
31244SOL     OW96363   5.504   6.389   4.895  0.5859  0.4865  0.3433
31244SOL    HW196364   5.478   6.365   4.984  1.2297  1.0597  0.6924
31244SOL    HW296365   5.460   6.473   4.880  0.8857  0.6418  0.3192
31245SOL     OW96366   5.138   8.037  10.024  0.3667 -0.0058 -0.4715
31245SOL    HW196367   5.144   7.942  10.037 -0.0587  0.3580  3.9227
31245SOL    HW296368   5.221   8.061   9.982  1.3692 -2.1267  0.1738
31246SOL     OW96369   9.151   5.420   2.743 -0.0538  0.0512  0.7359
31246SOL    HW196370   9.207   5.394   2.670 -1.6434  0.3973 -0.6545
31246SOL    HW296371   9.071   5.369   2.732 -1.5516  2.3327  0.4103
31247SOL     OW96372   5.489   4.520   7.374 -0.5426 -0.4771  0.1203
31247SOL    HW196373   5.467   4.440   7.325  0.4590 -0.3275 -0.6106
31247SOL    HW296374   5.420   4.527   7.440 -0.9391 -1.6673 -0.1299
31248SOL     OW96375   7.976   1.567   7.113 -0.2259 -0.4594  0.0307
31248SOL    HW196376   7.887   1.567   7.077 -1.3064  0.8526  2.4653
31248SOL    HW296377   7.986   1.479   7.150 -1.9377  0.3745  2.7572
31249SOL     OW96378   2.346   3.605   1.262  0.1184 -0.1000 -0.0575
31249SOL    HW196379   2.334   3.700   1.260 -1.3008 -0.2520 -2.0911
31249SOL    HW296380   2.337   3.581   1.354  2.3311  1.8905  0.7561
31250SOL     OW96381   7.294   0.042   2.299 -0.5451  0.2675  0.4178
31250SOL    HW196382   7.266  -0.009   2.223  0.7315 -0.2981  0.3059
31250SOL    HW296383   7.269   0.132   2.279 -0.2114  0.1236 -0.6804
31251SOL     OW96384   2.729   2.318   3.070  0.1685  0.3308 -0.0258
31251SOL    HW196385   2.715   2.271   2.987 -0.1203 -0.3282  0.3874
31251SOL    HW296386   2.642   2.340   3.100  0.0487 -1.8459  1.4531
31252SOL     OW96387   6.760   6.220   2.109  0.2241  0.2574 -0.3486
31252SOL    HW196388   6.748   6.295   2.167 -0.4620  0.8547 -1.2410
31252SOL    HW296389   6.682   6.166   2.125  0.2059  0.2519 -0.4572
31253SOL     OW96390   0.153   5.538   8.624  0.0863 -0.4703 -0.2058
31253SOL    HW196391   0.091   5.590   8.675  1.2548 -1.3516  2.2533
31253SOL    HW296392   0.142   5.448   8.655  1.0840 -0.9987 -1.2854
31254SOL     OW96393   3.673   5.265   2.306  0.2856  0.1930  0.2903
31254SOL    HW196394   3.705   5.342   2.259  0.6188 -0.2674 -0.2647
31254SOL    HW296395   3.725   5.262   2.386  1.4807 -0.3718 -0.4577
31255SOL     OW96396   4.922   9.522   6.317  0.1689 -0.0866 -0.0525
31255SOL    HW196397   4.838   9.525   6.362  0.4204  0.9764  0.3859
31255SOL    HW296398   4.913   9.453   6.251 -1.9001  1.5773 -1.6713
31256SOL     OW96399   5.785   3.437   3.875 -0.6262  0.2006  0.3911
31256SOL    HW196400   5.790   3.360   3.818  0.0586  0.5155  0.0232
31256SOL    HW296401   5.695   3.467   3.867 -0.1434  1.2055 -1.8023
31257SOL     OW96402   6.061   3.604   4.243 -0.3039 -0.1154 -0.5184
31257SOL    HW196403   5.992   3.648   4.193 -0.1586 -0.2050 -0.8032
31257SOL    HW296404   6.055   3.640   4.331 -0.6946 -0.0991 -0.5518
31258SOL     OW96405   2.045   0.289   4.713  0.2947 -0.3869  0.4713
31258SOL    HW196406   2.100   0.343   4.770  0.6301 -1.5095  1.2516
31258SOL    HW296407   2.007   0.350   4.651  0.9263  0.6910  1.1205
31259SOL     OW96408   4.706   3.945   4.622  0.4760  0.3759 -0.1550
31259SOL    HW196409   4.728   3.905   4.538 -2.0875  2.0546 -1.7933
31259SOL    HW296410   4.746   4.032   4.618 -0.8981  1.0270 -0.3666
31260SOL     OW96411   8.716   4.482   6.602  0.1549 -0.3201  0.1937
31260SOL    HW196412   8.751   4.488   6.513  1.0701  0.9006  0.6122
31260SOL    HW296413   8.664   4.401   6.602  1.3533 -1.1315 -1.0201
31261SOL     OW96414   9.620   3.368   1.545  0.5735 -0.4369 -0.3667
31261SOL    HW196415   9.542   3.415   1.515 -0.3027  0.4575  2.8949
31261SOL    HW296416   9.595   3.276   1.544 -0.3100 -0.2081  0.0178
31262SOL     OW96417   9.119   2.790   5.982 -0.2013 -0.0015  0.2850
31262SOL    HW196418   9.069   2.782   5.901  2.9250  2.0560 -2.1008
31262SOL    HW296419   9.078   2.863   6.029 -1.2783 -0.3884 -0.0348
31263SOL     OW96420   9.713   5.308   9.146 -0.2922 -0.2142  0.2135
31263SOL    HW196421   9.636   5.259   9.117  0.9251 -1.2989 -1.3294
31263SOL    HW296422   9.703   5.315   9.241 -2.6422  0.3490 -0.0195
31264SOL     OW96423   4.156   7.489   6.652 -0.8590  0.4935 -0.3600
31264SOL    HW196424   4.094   7.428   6.611 -1.1566  1.6162 -1.6503
31264SOL    HW296425   4.196   7.535   6.579  1.5737 -0.2070  0.4440
31265SOL     OW96426   8.696   3.635   8.566 -0.5696 -0.4808 -0.2381
31265SOL    HW196427   8.681   3.600   8.654 -0.7927 -1.2497 -0.5727
31265SOL    HW296428   8.729   3.723   8.581 -0.3315 -0.7032  0.6240
31266SOL     OW96429  10.194   5.916  10.253 -0.4134 -0.2137 -0.0101
31266SOL    HW196430  10.264   5.981  10.249  1.5206 -2.2524 -1.4545
31266SOL    HW296431  10.172   5.910  10.346 -0.1736  1.9529  0.2382
31267SOL     OW96432   1.541   6.474   0.734  0.2598 -0.0149 -0.1782
31267SOL    HW196433   1.594   6.472   0.654  1.7314  0.3872  0.7528
31267SOL    HW296434   1.591   6.421   0.796 -0.5981  0.1314  0.6452
31268SOL     OW96435   4.907   7.662   4.583 -0.5941  0.1172  0.6136
31268SOL    HW196436   4.992   7.628   4.555 -1.5240 -1.8823  0.0434
31268SOL    HW296437   4.916   7.757   4.578  1.2662 -0.0745 -0.4633
31269SOL     OW96438   6.906   8.398   2.341  0.1076 -0.4502  0.2906
31269SOL    HW196439   6.940   8.469   2.395  0.5714  0.7351 -1.4972
31269SOL    HW296440   6.873   8.334   2.404  2.4490 -0.0631  2.0471
31270SOL     OW96441   6.350   5.296   5.914 -0.7032 -0.8170 -0.0105
31270SOL    HW196442   6.261   5.321   5.940 -1.0873 -1.8602 -0.2639
31270SOL    HW296443   6.374   5.227   5.976  0.0358 -0.3665  0.2111
31271SOL     OW96444   8.029   1.600   1.785  0.6033 -0.3736  0.5458
31271SOL    HW196445   7.969   1.665   1.751  1.2352  0.7210  1.4328
31271SOL    HW296446   7.973   1.530   1.818 -0.1716  0.3906  0.9008
31272SOL     OW96447   6.702   5.233   5.545  0.4414 -0.3615  0.2699
31272SOL    HW196448   6.772   5.171   5.524  0.0059 -0.4156 -1.0478
31272SOL    HW296449   6.700   5.294   5.472 -0.0821  0.3861  0.8852
31273SOL     OW96450   1.435   4.337   6.056 -0.2721 -0.3372  0.0787
31273SOL    HW196451   1.352   4.316   6.014 -0.5535 -0.5178  0.7101
31273SOL    HW296452   1.445   4.432   6.043 -0.4107 -0.3734 -0.2893
31274SOL     OW96453   8.542   8.295   1.806  0.6373 -0.7580 -0.2759
31274SOL    HW196454   8.520   8.386   1.786 -0.7583 -0.3104  2.8093
31274SOL    HW296455   8.622   8.301   1.859  0.7197 -1.3789 -0.3216
31275SOL     OW96456   7.108   0.864   7.722 -0.1751  0.0895  0.0772
31275SOL    HW196457   7.040   0.807   7.687 -0.0699 -1.1484  1.7499
31275SOL    HW296458   7.093   0.864   7.817  1.5914  0.5096  0.4006
31276SOL     OW96459   0.122   9.596   4.646  0.6835 -0.0502  0.1183
31276SOL    HW196460   0.132   9.538   4.571  1.0720  0.4786 -0.2527
31276SOL    HW296461   0.088   9.541   4.716 -1.3511 -0.2302 -0.9221
31277SOL     OW96462   5.660   9.942   3.264  0.1637 -0.3486  0.4995
31277SOL    HW196463   5.658   9.988   3.181  0.2215  0.3588  0.8854
31277SOL    HW296464   5.659   9.849   3.240 -0.1131 -0.1499 -0.2748
31278SOL     OW96465   6.078   9.385   4.687 -0.5887 -0.1129  0.3670
31278SOL    HW196466   6.109   9.300   4.720 -1.6648 -0.8046 -0.3478
31278SOL    HW296467   6.140   9.448   4.723  0.1007 -1.1740  1.1127
31279SOL     OW96468   6.932   5.109   5.430  0.1547  0.4994  0.4715
31279SOL    HW196469   6.950   5.188   5.379  0.5810  0.6180  0.8077
31279SOL    HW296470   6.963   5.037   5.374  1.8436  0.7059  1.1043
31280SOL     OW96471   8.670   4.811   9.009  0.2981 -0.0241  0.2205
31280SOL    HW196472   8.673   4.906   9.019  0.7525 -0.2483  2.9694
31280SOL    HW296473   8.762   4.784   9.010  0.1938 -0.5066 -0.9949
31281SOL     OW96474   0.420   3.200   9.492  0.6287 -0.1434 -0.3889
31281SOL    HW196475   0.444   3.114   9.527 -0.4142  0.1064  1.0073
31281SOL    HW296476   0.504   3.239   9.465  1.2777 -0.9920  0.3388
31282SOL     OW96477   0.073   3.845   0.616 -0.4580 -0.5103 -0.2386
31282SOL    HW196478  -0.007   3.893   0.639  0.9156  1.7665  0.1234
31282SOL    HW296479   0.117   3.830   0.699 -0.1048 -0.9989 -0.5080
31283SOL     OW96480   9.173   0.566   5.362 -0.1189 -0.2334 -0.0417
31283SOL    HW196481   9.123   0.551   5.282 -2.5248 -0.0621  1.3234
31283SOL    HW296482   9.217   0.483   5.380 -1.1967 -0.9057 -0.4792
31284SOL     OW96483   3.675   7.140   5.010 -0.2617 -0.1467  0.0763
31284SOL    HW196484   3.757   7.114   5.051 -1.1169 -0.3882  1.7151
31284SOL    HW296485   3.693   7.137   4.916  1.2718 -1.2678  0.3722
31285SOL     OW96486   9.266   2.692   3.371 -0.5944  0.0899 -0.0972
31285SOL    HW196487   9.271   2.680   3.466 -0.6162  2.6409  0.3124
31285SOL    HW296488   9.172   2.693   3.352 -0.5987 -0.0857 -0.0844
31286SOL     OW96489   7.314   3.089   5.935 -0.0428  0.3258  0.2291
31286SOL    HW196490   7.335   3.161   5.994 -0.8757  0.2240  0.6627
31286SOL    HW296491   7.370   3.104   5.859  1.4383  0.1535  1.2459
31287SOL     OW96492   6.575   8.407   8.718 -0.0448 -1.0032 -0.0508
31287SOL    HW196493   6.506   8.464   8.751  1.2653  0.7475 -0.1952
31287SOL    HW296494   6.581   8.427   8.624  2.1830  0.6557  0.3661
31288SOL     OW96495   3.772   5.724   4.842  0.0385  0.3397  0.2208
31288SOL    HW196496   3.703   5.708   4.777 -1.6117 -0.2185  2.0313
31288SOL    HW296497   3.807   5.810   4.817 -1.0486  0.4790 -0.9621
31289SOL     OW96498   3.373   5.963   4.169  0.5676  0.0490  0.5451
31289SOL    HW196499   3.313   5.909   4.222  0.2454  1.0846  1.2744
31289SOL    HW296500   3.382   6.044   4.219  0.1661  1.1257 -1.0460
31290SOL     OW96501   0.732   1.856   8.527  0.5665 -0.0432 -1.0237
31290SOL    HW196502   0.811   1.876   8.577 -0.9426  0.5282  1.3124
31290SOL    HW296503   0.690   1.941   8.514 -0.5721 -0.5029 -0.5265
31291SOL     OW96504   8.188   1.367   3.820 -0.0207 -0.1288 -0.0910
31291SOL    HW196505   8.248   1.327   3.758  1.6135 -0.7049  1.7720
31291SOL    HW296506   8.142   1.434   3.769  0.9671 -0.8243 -1.9877
31292SOL     OW96507   9.685   2.090   0.053 -0.0495  0.1262  0.3244
31292SOL    HW196508   9.637   2.012   0.081 -0.9135  0.5655  0.1269
31292SOL    HW296509   9.731   2.063  -0.026  1.2204 -0.7109  1.3144
31293SOL     OW96510   4.744   3.315  10.176 -0.1166 -0.0611 -0.9185
31293SOL    HW196511   4.710   3.240  10.127 -0.0037  0.4267 -1.7593
31293SOL    HW296512   4.791   3.368  10.111  0.9233  0.0795 -0.0810
31294SOL     OW96513   8.465   0.301   2.175 -0.2608  0.3291 -0.2291
31294SOL    HW196514   8.410   0.357   2.230 -2.0459 -1.1389 -0.3999
31294SOL    HW296515   8.554   0.334   2.189 -1.0362  2.1561  0.8770
31295SOL     OW96516   8.072   8.164   6.857 -0.0015 -0.1372  0.4005
31295SOL    HW196517   8.063   8.081   6.809 -0.7715  0.1457  0.0396
31295SOL    HW296518   8.018   8.226   6.808  1.0619  0.7467  0.3012
31296SOL     OW96519   9.804   7.448   2.415  0.3142  0.2573 -0.0139
31296SOL    HW196520   9.741   7.515   2.386  0.0099  0.2369  0.5709
31296SOL    HW296521   9.888   7.493   2.418 -0.2428  1.3000  2.5826
31297SOL     OW96522   4.661   7.666   5.045 -0.2192  0.6956 -0.4258
31297SOL    HW196523   4.573   7.677   5.081 -0.9657  0.2794 -2.0215
31297SOL    HW296524   4.651   7.599   4.977  0.8185  2.3258 -2.2838
31298SOL     OW96525   1.701   5.887   5.736 -0.4745 -0.4966 -0.2568
31298SOL    HW196526   1.784   5.841   5.729 -0.7127 -0.7960 -1.3476
31298SOL    HW296527   1.644   5.843   5.672 -0.6919  1.3599 -1.3950
31299SOL     OW96528   3.018   6.558   1.127 -0.3258  0.3204  0.0893
31299SOL    HW196529   3.049   6.595   1.044 -0.6914 -0.5423 -0.4466
31299SOL    HW296530   2.984   6.471   1.103  1.2174 -0.7023  1.4216
31300SOL     OW96531   4.066   5.238   5.812  0.0108 -0.2501  0.0350
31300SOL    HW196532   4.011   5.161   5.826 -0.4861  0.0654 -0.1548
31300SOL    HW296533   4.085   5.270   5.900  2.2304 -1.9553  0.2717
31301SOL     OW96534   9.791   4.264   4.634  0.3001  0.1291  0.3594
31301SOL    HW196535   9.876   4.266   4.677  0.7353  2.9823 -0.4781
31301SOL    HW296536   9.771   4.170   4.627  3.7736 -0.7224 -0.2437
31302SOL     OW96537   6.453   5.416   6.767 -0.9211  0.6784  0.0316
31302SOL    HW196538   6.529   5.422   6.708 -0.6729  0.3881  0.3196
31302SOL    HW296539   6.437   5.506   6.795 -1.3091  0.8865 -0.8138
31303SOL     OW96540   0.291   9.049  10.111  0.7564  0.3871 -0.0111
31303SOL    HW196541   0.267   9.081  10.024 -1.2310 -1.1366 -0.0797
31303SOL    HW296542   0.278   9.125  10.169 -2.6793  0.1971 -0.3367
31304SOL     OW96543   3.327   4.976   4.989  0.0969  0.0654  0.5055
31304SOL    HW196544   3.358   4.985   5.079  0.8894  0.0504  0.2395
31304SOL    HW296545   3.401   4.939   4.941 -0.6393 -0.8566  0.0429
31305SOL     OW96546   2.501   9.196   5.241 -0.0003 -0.1671  0.1279
31305SOL    HW196547   2.412   9.188   5.208 -0.3806 -1.6956  1.4254
31305SOL    HW296548   2.511   9.124   5.303  0.7767  2.2654  3.0736
31306SOL     OW96549   2.997   3.543   4.138 -0.5431  0.0554  0.2635
31306SOL    HW196550   3.066   3.610   4.142 -0.6950  0.1751  1.5199
31306SOL    HW296551   3.039   3.468   4.096  0.4857  0.0057  1.3182
31307SOL     OW96552   5.890   0.754  10.298 -0.1959  0.3301  0.5092
31307SOL    HW196553   5.828   0.754  10.371 -0.8577  2.0348  0.0106
31307SOL    HW296554   5.976   0.760  10.340 -0.5777  1.4896  1.1874
31308SOL     OW96555   5.364   1.981   5.796  0.1303 -0.5097 -0.4444
31308SOL    HW196556   5.400   1.918   5.734 -0.7250 -0.9770 -0.4798
31308SOL    HW296557   5.289   2.019   5.751 -0.3891 -0.7221  0.2211
31309SOL     OW96558   6.151   8.890   5.667  0.2234 -0.4274  0.1006
31309SOL    HW196559   6.152   8.805   5.623 -0.6693  0.3593 -1.5050
31309SOL    HW296560   6.068   8.929   5.643 -0.0472  0.3259  2.0443
31310SOL     OW96561   9.199   5.282   7.010 -0.2570  0.1419 -0.3372
31310SOL    HW196562   9.251   5.354   6.976 -2.3664  1.5193 -0.7589
31310SOL    HW296563   9.117   5.321   7.038 -0.8378 -1.8457  1.0042
31311SOL     OW96564   5.006   4.075   5.815  0.5151 -0.3307 -0.4507
31311SOL    HW196565   4.934   4.024   5.854 -0.2020  1.4731  0.7346
31311SOL    HW296566   5.084   4.046   5.863 -0.3094  1.6426  2.3169
31312SOL     OW96567   4.123   7.805   3.813  0.1823  0.2970 -0.0048
31312SOL    HW196568   4.064   7.880   3.823 -1.9307 -1.3806  0.7736
31312SOL    HW296569   4.208   7.837   3.843 -0.7162  2.3018  0.5394
31313SOL     OW96570   1.870   3.970   0.756 -0.1245  0.3224 -0.0788
31313SOL    HW196571   1.845   3.879   0.768 -4.8875  0.9764 -2.5071
31313SOL    HW296572   1.834   4.015   0.832  3.2536  0.2855  1.7456
31314SOL     OW96573   5.260  10.044   7.387 -0.5385  0.0067 -0.8067
31314SOL    HW196574   5.238  10.091   7.306 -1.2038 -0.9387 -1.1931
31314SOL    HW296575   5.216  10.093   7.456  0.9122  1.4480 -0.8553
31315SOL     OW96576   3.728   7.109   2.333  0.5463 -0.2839 -0.0253
31315SOL    HW196577   3.766   7.190   2.369  0.9876 -0.5028  0.0073
31315SOL    HW296578   3.738   7.045   2.403 -3.3269  0.5355  1.5211
31316SOL     OW96579   5.007   8.242   8.613 -0.0847 -0.2927  0.6996
31316SOL    HW196580   4.914   8.251   8.589  0.5897  0.7653 -1.8377
31316SOL    HW296581   5.005   8.215   8.705 -2.9076 -1.2343  0.4689
31317SOL     OW96582   6.678   9.451   2.176 -0.6441 -0.4781 -0.2842
31317SOL    HW196583   6.618   9.497   2.117 -1.2183 -0.1592  0.5192
31317SOL    HW296584   6.764   9.486   2.156 -1.2337  2.1802  1.3507
31318SOL     OW96585   3.406   7.724   3.926 -0.7345 -0.3757  0.2767
31318SOL    HW196586   3.387   7.795   3.987 -0.4750  0.6306 -0.7739
31318SOL    HW296587   3.323   7.707   3.882 -0.3552  0.7658 -0.9609
31319SOL     OW96588   2.625   6.495   3.509  0.3173 -0.0348 -0.2932
31319SOL    HW196589   2.570   6.564   3.472  1.6179  0.5836 -1.1343
31319SOL    HW296590   2.563   6.426   3.534 -0.7168 -0.3329 -3.2674
31320SOL     OW96591   0.671   0.772   4.913 -0.1769  0.2028 -0.1004
31320SOL    HW196592   0.625   0.747   4.993  0.1594  1.4413  0.5140
31320SOL    HW296593   0.621   0.846   4.879 -2.3804 -2.3956 -3.0258
31321SOL     OW96594   6.293   7.554   4.005  0.1697  0.8735  0.7369
31321SOL    HW196595   6.222   7.604   3.965 -1.4627 -2.7948 -1.4979
31321SOL    HW296596   6.372   7.602   3.983 -1.3742  3.7550  1.0471
31322SOL     OW96597   8.217   2.074   2.778  0.4445  0.1800 -0.6484
31322SOL    HW196598   8.148   2.137   2.756  1.3111  0.3293 -3.1985
31322SOL    HW296599   8.275   2.122   2.837 -0.9367  0.4388  0.5692
31323SOL     OW96600   3.421   9.873   7.626 -0.2037  0.0349  0.2868
31323SOL    HW196601   3.347   9.875   7.688  0.0014  0.9018  0.5186
31323SOL    HW296602   3.498   9.865   7.682  0.1438  2.8806  0.3303
31324SOL     OW96603   0.112   3.373   0.312 -0.6711 -0.1394  0.3590
31324SOL    HW196604   0.084   3.444   0.368 -1.6771  0.6432 -1.0637
31324SOL    HW296605   0.107   3.295   0.367 -2.2451  0.4998  1.1743
31325SOL     OW96606   5.407   0.263  10.198 -0.5584  0.5418  0.4247
31325SOL    HW196607   5.407   0.222  10.112  0.5374  0.7148  0.3262
31325SOL    HW296608   5.368   0.197  10.256  1.6487 -0.9108  0.3761
31326SOL     OW96609   2.529   0.736  10.343 -0.3617  0.2411 -0.5131
31326SOL    HW196610   2.542   0.646  10.315 -0.3568  0.7412 -2.2311
31326SOL    HW296611   2.435   0.743  10.360 -0.3243 -0.1481 -0.1441
31327SOL     OW96612   1.222   2.833   8.872 -0.0416  0.3759 -0.4704
31327SOL    HW196613   1.207   2.889   8.948 -0.2281  0.1200 -0.3155
31327SOL    HW296614   1.160   2.864   8.806 -1.1235 -0.5264  0.0870
31328SOL     OW96615   1.226   9.304   7.921 -0.5093 -0.0760 -0.3452
31328SOL    HW196616   1.302   9.340   7.968 -0.9417 -0.4026  0.6386
31328SOL    HW296617   1.166   9.277   7.991 -0.8503 -1.2897 -1.0841
31329SOL     OW96618   7.094   6.946   9.491  0.0174  0.0251  0.5136
31329SOL    HW196619   7.145   6.909   9.418 -0.3148  1.8352 -0.7235
31329SOL    HW296620   7.135   7.031   9.507 -1.1335  0.4795  1.1216
31330SOL     OW96621   1.042   9.104   4.480 -0.2683  0.1312 -0.4284
31330SOL    HW196622   1.011   9.113   4.390  0.1553 -1.5066 -0.7634
31330SOL    HW296623   0.989   9.034   4.517 -0.2224  0.5727  0.5199
31331SOL     OW96624   3.748   3.199   7.519  0.0055 -0.2409  0.0861
31331SOL    HW196625   3.833   3.189   7.563 -1.0007  0.1268  2.2517
31331SOL    HW296626   3.724   3.110   7.493  1.0503 -0.3472 -0.5639
31332SOL     OW96627   6.796   2.595   0.956 -0.7556 -0.4594  0.1949
31332SOL    HW196628   6.809   2.538   0.880 -0.6944 -0.4341  0.1863
31332SOL    HW296629   6.701   2.603   0.964 -0.7620  0.6866 -0.7491
31333SOL     OW96630   2.610   0.346   7.670  0.0905 -0.7261 -0.1357
31333SOL    HW196631   2.614   0.412   7.739  1.7269  0.9978 -1.7583
31333SOL    HW296632   2.691   0.295   7.681  0.2827 -0.5428 -0.6538
31334SOL     OW96633   1.007   6.675   6.821  0.1735  0.1400 -0.0067
31334SOL    HW196634   1.085   6.708   6.775  0.7940  0.4359  1.2188
31334SOL    HW296635   1.031   6.677   6.913 -1.5935  1.0202  0.4654
31335SOL     OW96636   2.421   9.447   3.628  0.2841 -0.3054 -0.0948
31335SOL    HW196637   2.483   9.414   3.693 -1.1137 -0.9240  0.9691
31335SOL    HW296638   2.348   9.386   3.631 -0.6927  0.7830 -0.8129
31336SOL     OW96639   9.944   0.269   4.327  0.0900 -0.2881  0.1654
31336SOL    HW196640   9.859   0.277   4.283 -0.1498  0.9065  0.7782
31336SOL    HW296641   9.998   0.218   4.267 -0.7696 -0.2283 -0.6858
31337SOL     OW96642   2.181   1.289   7.731 -0.4356  0.3832  0.7686
31337SOL    HW196643   2.191   1.311   7.638  0.2118  4.0807  1.5469
31337SOL    HW296644   2.271   1.278   7.762 -0.5665  0.4521  1.1814
31338SOL     OW96645   2.806   1.393   0.525 -0.6079  0.1555 -0.1003
31338SOL    HW196646   2.727   1.343   0.506 -2.2142  2.0634  1.1463
31338SOL    HW296647   2.803   1.408   0.620  1.1849  0.4152 -0.0472
31339SOL     OW96648   9.819   9.386   0.823 -0.2978  0.2222  0.1197
31339SOL    HW196649   9.878   9.321   0.860 -0.8374  0.2707  1.1200
31339SOL    HW296650   9.736   9.371   0.869 -0.7253  0.9188 -0.4103
31340SOL     OW96651   8.786   8.816   1.509 -0.2835 -0.1582 -0.0134
31340SOL    HW196652   8.814   8.774   1.428  0.3614  1.7693 -0.8468
31340SOL    HW296653   8.729   8.752   1.551 -0.9061 -1.0822 -2.1504
31341SOL     OW96654   8.342   0.206   2.828  0.4409  0.3245  0.0173
31341SOL    HW196655   8.295   0.123   2.838 -2.7675  2.0712  1.1157
31341SOL    HW296656   8.372   0.227   2.917 -0.0788  0.9860  0.0479
31342SOL     OW96657   3.544   0.249   6.018  0.4515  0.1199 -0.3361
31342SOL    HW196658   3.548   0.226   6.111 -0.4475 -0.0440 -0.3329
31342SOL    HW296659   3.458   0.220   5.989  0.6725  0.2820 -1.1981
31343SOL     OW96660   6.245   6.825   7.812  0.1853  0.2997  0.0975
31343SOL    HW196661   6.313   6.762   7.837 -0.3569 -0.0777  0.6328
31343SOL    HW296662   6.169   6.800   7.864 -0.1596  1.1450  0.0088
31344SOL     OW96663   7.870   3.494   9.822 -0.5209 -0.4810 -0.2231
31344SOL    HW196664   7.799   3.515   9.761 -0.5705 -1.5129 -0.5516
31344SOL    HW296665   7.826   3.478   9.906 -0.6409 -0.7387 -0.3333
31345SOL     OW96666   9.316   8.998   9.284 -0.7666  0.4164  0.4730
31345SOL    HW196667   9.335   8.953   9.366  0.8316  0.1123 -0.0345
31345SOL    HW296668   9.220   8.995   9.277 -0.8883 -0.1518  1.9689
31346SOL     OW96669   0.877   9.436   4.792 -0.0019 -0.1684 -0.3229
31346SOL    HW196670   0.939   9.376   4.751 -0.3844 -0.3677 -0.6067
31346SOL    HW296671   0.843   9.489   4.720 -1.5625 -1.3041 -0.4673
31347SOL     OW96672   0.056  10.094   0.207  0.2293  0.5515  0.0790
31347SOL    HW196673  -0.039  10.100   0.201  0.3244  0.7912 -1.5964
31347SOL    HW296674   0.072  10.036   0.281 -1.2106  0.5998  0.4504
31348SOL     OW96675   2.444   6.089   2.615 -0.1351 -0.3566  0.3887
31348SOL    HW196676   2.368   6.031   2.620 -0.3927 -0.1796 -1.0566
31348SOL    HW296677   2.516   6.032   2.590 -0.7676  0.1509 -2.9938
31349SOL     OW96678   3.212   0.860   5.097  0.2480 -0.2659 -0.0207
31349SOL    HW196679   3.249   0.932   5.149 -0.4394 -1.5676  2.4506
31349SOL    HW296680   3.288   0.812   5.065  0.7392 -0.5268  1.4633
31350SOL     OW96681   8.046   5.876   9.093  0.3410 -0.1391  0.1249
31350SOL    HW196682   8.137   5.864   9.067  0.0791  0.7719 -1.3534
31350SOL    HW296683   7.996   5.856   9.014 -0.6270  0.9683  0.4284
31351SOL     OW96684  10.125   7.640   6.611 -0.1765  0.3737  0.2181
31351SOL    HW196685  10.100   7.548   6.599  2.5253 -0.6368  1.3713
31351SOL    HW296686  10.186   7.657   6.540  0.6486  0.6888  0.9840
31352SOL     OW96687   1.949   9.437  10.084  0.0641 -0.4127 -0.2538
31352SOL    HW196688   1.948   9.362  10.144 -0.8129  0.4362  0.8523
31352SOL    HW296689   1.875   9.423  10.026 -0.2918 -0.2603  0.1573
31353SOL     OW96690   6.240   5.196   9.125  0.0688 -0.1068  0.4279
31353SOL    HW196691   6.187   5.159   9.054 -0.2780  1.1840 -0.0015
31353SOL    HW296692   6.324   5.215   9.085 -0.0700  0.4581  0.3978
31354SOL     OW96693  10.146   3.507   0.378  0.5144  0.1159 -0.0609
31354SOL    HW196694  10.174   3.438   0.318 -0.4411  0.4759 -0.9645
31354SOL    HW296695  10.062   3.476   0.412  1.6527 -0.7036  2.1804
31355SOL     OW96696   5.733   5.069   7.849  0.0894 -0.2347 -0.0428
31355SOL    HW196697   5.793   5.016   7.796  0.4236  0.2608 -0.1658
31355SOL    HW296698   5.789   5.127   7.900 -0.2831  0.3983 -0.3299
31356SOL     OW96699   9.230   9.894   7.708  0.2091  0.2185 -0.0012
31356SOL    HW196700   9.219   9.911   7.614  0.1960  1.6626  0.2346
31356SOL    HW296701   9.141   9.882   7.741  0.0688  1.3628  0.0893
31357SOL     OW96702   1.791   3.212   7.707  0.2577 -0.3693  0.2818
31357SOL    HW196703   1.874   3.239   7.746  0.6938  0.3389 -1.0454
31357SOL    HW296704   1.812   3.193   7.615 -1.0799  0.0707 -0.1555
31358SOL     OW96705   3.989   2.949   5.170 -0.3485  0.4848 -0.0057
31358SOL    HW196706   4.009   2.865   5.211  0.2148  1.7320  2.3968
31358SOL    HW296707   3.910   2.931   5.118 -1.1216 -1.2000  1.6364
31359SOL     OW96708   7.853   6.439   1.795 -0.6044 -0.2176  0.2225
31359SOL    HW196709   7.856   6.513   1.734 -1.1512 -1.1295 -0.9494
31359SOL    HW296710   7.878   6.363   1.742  1.6421 -0.6691  1.7919
31360SOL     OW96711   1.176   1.212   7.284  0.9380 -0.2342  0.1393
31360SOL    HW196712   1.165   1.147   7.354  0.6340 -1.7324 -1.2267
31360SOL    HW296713   1.233   1.169   7.220  1.4131  1.1938 -0.4389
31361SOL     OW96714   2.972   7.504   8.126  0.7900 -0.5373  0.1459
31361SOL    HW196715   2.990   7.447   8.201  0.6200  1.6893  2.0110
31361SOL    HW296716   3.054   7.553   8.113  1.3375 -1.9253 -2.1956
31362SOL     OW96717   1.431   6.342   3.118 -0.7273  0.4997  0.2596
31362SOL    HW196718   1.412   6.255   3.152  0.1705 -0.2518 -1.0723
31362SOL    HW296719   1.349   6.369   3.076 -1.0278  0.3392  0.7266
31363SOL     OW96720   6.244   9.685   8.933  0.5585 -0.2366  0.0143
31363SOL    HW196721   6.319   9.663   8.989 -0.1049 -1.2761  0.5256
31363SOL    HW296722   6.171   9.694   8.993  0.0743 -0.1895 -0.5733
31364SOL     OW96723   5.165   4.934   3.537 -0.0709  0.3143  0.7287
31364SOL    HW196724   5.079   4.895   3.522 -0.8180  1.5993  1.4257
31364SOL    HW296725   5.181   4.921   3.631  0.2978  0.4770  0.6901
31365SOL     OW96726   8.843   8.210   0.529 -0.1709  0.4447 -0.0589
31365SOL    HW196727   8.767   8.257   0.494  0.0743  0.4328 -0.6213
31365SOL    HW296728   8.827   8.119   0.506 -0.8561  0.1755  1.4053
31366SOL     OW96729   7.848   5.306   2.753  0.2422 -0.4979  0.1142
31366SOL    HW196730   7.808   5.392   2.763  1.7233  0.2930 -0.4108
31366SOL    HW296731   7.887   5.308   2.665  1.2873 -1.2738  0.5415
31367SOL     OW96732   4.300   8.057   4.932 -0.2656  0.4213 -0.2232
31367SOL    HW196733   4.231   8.061   4.997 -0.7220 -2.2110 -0.4409
31367SOL    HW296734   4.286   7.975   4.886  2.9857 -0.2393 -0.3216
31368SOL     OW96735   8.276   4.315   3.809  0.3561  0.0259 -0.4171
31368SOL    HW196736   8.184   4.332   3.831  0.4428 -0.2345  0.1752
31368SOL    HW296737   8.273   4.245   3.744  0.0519  1.4114 -1.9509
31369SOL     OW96738   4.915   4.061   7.765 -0.2759  0.2113 -0.0249
31369SOL    HW196739   4.977   4.007   7.815  0.9465  0.9170 -0.7276
31369SOL    HW296740   4.946   4.150   7.779 -0.3777  0.4749 -1.4119
31370SOL     OW96741   5.436   3.006   3.474  0.8104 -0.2486 -0.2356
31370SOL    HW196742   5.462   3.094   3.503  0.2613 -0.4435  0.9017
31370SOL    HW296743   5.409   3.017   3.383  3.4621  0.2284 -1.0490
31371SOL     OW96744   9.691   8.552   3.420  0.3883  0.1508  0.1668
31371SOL    HW196745   9.749   8.558   3.495 -1.8299 -0.6330  2.0765
31371SOL    HW296746   9.707   8.464   3.384 -0.5224 -0.6278  1.5545
31372SOL     OW96747  10.001   9.725   9.757  0.5901  0.0867  0.5458
31372SOL    HW196748   9.936   9.656   9.746  0.4202  0.4987 -1.6136
31372SOL    HW296749  10.085   9.679   9.760  0.3703 -0.3034  0.7734
31373SOL     OW96750   0.504   5.271   3.609 -0.5978  0.4532 -0.0766
31373SOL    HW196751   0.506   5.185   3.567 -0.5232  0.6000 -0.3706
31373SOL    HW296752   0.434   5.319   3.564 -1.1743  0.2815  0.6066
31374SOL     OW96753   1.613   7.530   2.612  0.1729  0.8513 -0.2582
31374SOL    HW196754   1.615   7.526   2.708  0.3366  0.6523 -0.2674
31374SOL    HW296755   1.625   7.439   2.585  0.7857  0.9939 -0.4763
31375SOL     OW96756   2.518   4.262   8.778  0.5357  0.1649  0.0728
31375SOL    HW196757   2.426   4.261   8.752  0.4850 -0.7822  0.2707
31375SOL    HW296758   2.518   4.298   8.867  0.4297  0.7573 -0.1602
31376SOL     OW96759   1.462   3.686   2.961  0.0810 -0.3561 -0.3851
31376SOL    HW196760   1.499   3.759   2.912  0.0063 -0.6020 -0.8142
31376SOL    HW296761   1.378   3.717   2.992  0.9409  0.4731  1.2282
31377SOL     OW96762   8.640   7.581   3.812  0.7520 -0.7105 -0.2792
31377SOL    HW196763   8.560   7.632   3.820  0.2000 -1.5989 -0.0438
31377SOL    HW296764   8.613   7.500   3.768  0.9310 -2.2364  2.2021
31378SOL     OW96765   4.491   7.607   7.543  0.4149  0.6320 -0.3886
31378SOL    HW196766   4.406   7.564   7.539  0.1979  1.0002  0.1491
31378SOL    HW296767   4.555   7.536   7.534  0.0531  0.3921 -1.1137
31379SOL     OW96768   7.496   0.164   0.972  0.1140  0.1783 -0.2738
31379SOL    HW196769   7.532   0.124   1.051 -0.0798 -1.2746 -0.8912
31379SOL    HW296770   7.469   0.251   1.000 -0.6020 -0.5522  1.4482
31380SOL     OW96771   6.043   1.128   9.819  0.2799 -0.2362 -0.0394
31380SOL    HW196772   6.107   1.198   9.804  0.2182 -0.2652 -0.4404
31380SOL    HW296773   5.969   1.151   9.763  1.3835 -2.1484 -2.4527
31381SOL     OW96774   1.131   1.683   4.792  0.4470 -0.6603 -0.1693
31381SOL    HW196775   1.059   1.673   4.853 -0.3986 -2.4874 -1.3645
31381SOL    HW296776   1.209   1.693   4.847 -0.4690 -0.5767  1.1472
31382SOL     OW96777   6.943   8.542   8.575  0.2519  0.1342 -0.4837
31382SOL    HW196778   6.926   8.482   8.648 -0.0870 -0.6791 -1.2222
31382SOL    HW296779   7.029   8.517   8.543  1.5913  2.1611  1.2167
31383SOL     OW96780   5.094   6.708   7.617 -0.0640  0.0540  0.2260
31383SOL    HW196781   5.170   6.657   7.645 -0.9798 -0.5791  1.7192
31383SOL    HW296782   5.106   6.720   7.523  1.8985  0.0257  0.4286
31384SOL     OW96783   0.391   3.054   5.186  0.3562 -0.4970  0.4855
31384SOL    HW196784   0.351   3.079   5.270 -0.5383 -1.9138  0.5085
31384SOL    HW296785   0.343   3.105   5.121 -1.0898 -1.7076  0.5723
31385SOL     OW96786   0.456   2.434   7.104 -0.3676  0.5306 -0.0337
31385SOL    HW196787   0.499   2.386   7.175 -1.2082  0.5169  0.4851
31385SOL    HW296788   0.528   2.466   7.050  0.3127  0.7535  0.9631
31386SOL     OW96789   3.241   0.574   1.161 -0.4827  0.5635  0.1024
31386SOL    HW196790   3.225   0.502   1.100  1.1209 -1.8020  2.2409
31386SOL    HW296791   3.158   0.583   1.209 -0.1686 -1.2583  1.0867
31387SOL     OW96792   2.830   7.592   2.887 -0.6691  0.0238  0.0321
31387SOL    HW196793   2.874   7.672   2.917 -0.7984 -0.1781  0.7596
31387SOL    HW296794   2.745   7.594   2.930 -0.9987 -0.0951 -0.5980
31388SOL     OW96795   6.100   5.872   7.810 -0.0357 -0.4129  0.2756
31388SOL    HW196796   6.042   5.872   7.734 -0.3758 -1.2363  0.5298
31388SOL    HW296797   6.075   5.950   7.859 -0.0115 -0.0348 -0.3088
31389SOL     OW96798   3.779   3.312   1.825  0.1658  0.4983 -0.3686
31389SOL    HW196799   3.755   3.368   1.751 -0.9376  0.4142 -0.0915
31389SOL    HW296800   3.849   3.257   1.791  0.6472  1.4227 -0.9224
31390SOL     OW96801   6.259   2.081  10.221  0.1818  0.3963 -0.3309
31390SOL    HW196802   6.231   2.000  10.177  0.6230 -0.0637  0.2284
31390SOL    HW296803   6.177   2.121  10.250  0.0343 -0.6567  0.7827
31391SOL     OW96804   8.252   6.212   3.687 -0.4317 -0.1931  0.4361
31391SOL    HW196805   8.227   6.298   3.720 -0.1936 -0.4597  1.3650
31391SOL    HW296806   8.175   6.180   3.640  0.1302  1.3157 -1.6309
31392SOL     OW96807   0.847   4.164   1.840  0.1163  0.6441 -0.4191
31392SOL    HW196808   0.939   4.165   1.868 -0.1500 -2.5129  0.9848
31392SOL    HW296809   0.811   4.246   1.874  1.6808  0.4948  1.8459
31393SOL     OW96810   8.021   0.036   4.023 -0.2475 -0.1303  0.5364
31393SOL    HW196811   8.008  -0.056   3.999  0.8111  0.1608 -1.4325
31393SOL    HW296812   7.943   0.081   3.991 -1.2547 -0.4362  2.4318
31394SOL     OW96813   0.609   7.952   2.500  0.3820  0.8479 -0.1917
31394SOL    HW196814   0.675   7.882   2.498  1.2912  1.6707 -1.8779
31394SOL    HW296815   0.645   8.019   2.443 -0.8716  2.3428  0.7052
31395SOL     OW96816   1.476   2.073   0.634  0.1724 -0.6997 -0.1615
31395SOL    HW196817   1.557   2.090   0.586  0.1862 -1.6924 -0.5121
31395SOL    HW296818   1.462   1.979   0.624  0.0973 -0.9059  1.6817
31396SOL     OW96819   6.359   8.404  10.308 -0.4970 -0.2850  0.2610
31396SOL    HW196820   6.384   8.312  10.305 -0.5738 -0.2855 -1.9298
31396SOL    HW296821   6.269   8.405  10.276 -0.2699  0.6023 -0.3818
31397SOL     OW96822   1.048   3.265   8.498  0.2306 -0.1699  0.2806
31397SOL    HW196823   1.034   3.358   8.480  0.7600 -0.2771 -0.7604
31397SOL    HW296824   0.960   3.230   8.513  0.0669  0.5835  1.1909
31398SOL     OW96825   5.670   5.776   6.137 -0.3691 -0.6534  0.0738
31398SOL    HW196826   5.601   5.841   6.139 -0.7338 -1.0240 -0.3602
31398SOL    HW296827   5.629   5.698   6.100  0.5755 -0.5394 -1.2890
31399SOL     OW96828   3.786   0.680   2.195 -0.2072 -0.1293  0.2432
31399SOL    HW196829   3.842   0.603   2.186  2.5727  1.8376 -0.9910
31399SOL    HW296830   3.743   0.689   2.110 -0.4440 -0.2521  0.3496
31400SOL     OW96831   6.481  10.159   7.184  0.8332  0.4153 -0.2584
31400SOL    HW196832   6.456  10.205   7.264 -0.4517  0.2278 -0.5350
31400SOL    HW296833   6.437  10.206   7.114  0.8552 -0.2334 -0.7171
31401SOL     OW96834   8.924   5.778   8.715  0.0323 -0.6246 -0.3775
31401SOL    HW196835   9.017   5.757   8.719 -0.4225 -2.5513  1.0491
31401SOL    HW296836   8.887   5.714   8.655 -0.6955 -1.2569  0.7103
31402SOL     OW96837   0.336   1.908   1.767 -0.4967 -0.0338 -0.3908
31402SOL    HW196838   0.285   1.956   1.702  0.2858  0.9514 -0.2945
31402SOL    HW296839   0.270   1.859   1.817 -1.2501  0.4601 -0.8770
31403SOL     OW96840   6.809   9.447   6.283  0.2449  0.3259 -0.4422
31403SOL    HW196841   6.904   9.443   6.272  0.4206  0.1905  0.9914
31403SOL    HW296842   6.782   9.521   6.228  1.5801  2.2921  1.3779
31404SOL     OW96843   5.049   0.563   1.325  0.2328  0.4861  0.3965
31404SOL    HW196844   5.002   0.638   1.290 -0.9610 -0.1244  0.6533
31404SOL    HW296845   5.045   0.497   1.256  1.4974  0.7298  0.0719
31405SOL     OW96846  10.330   8.522   3.991 -0.2883  0.1184 -0.1318
31405SOL    HW196847  10.381   8.526   4.072 -0.7541  1.5407  0.1210
31405SOL    HW296848  10.314   8.613   3.968 -1.8008 -0.2803 -0.7905
31406SOL     OW96849   0.597   0.684   9.828  0.2101  0.6002  0.1929
31406SOL    HW196850   0.668   0.749   9.829 -0.6687  1.5947  0.6245
31406SOL    HW296851   0.641   0.600   9.823  1.3801  1.2646 -1.7650
31407SOL     OW96852   3.984   1.566   6.331 -0.4577  0.0689 -0.6390
31407SOL    HW196853   4.012   1.542   6.242 -2.1208  0.3825 -1.2881
31407SOL    HW296854   3.889   1.551   6.331 -0.4647 -0.1136  1.1638
31408SOL     OW96855   4.712   9.912   7.672  0.5458 -0.0352  0.1130
31408SOL    HW196856   4.763   9.831   7.669  1.3749  0.4915 -2.4032
31408SOL    HW296857   4.778   9.981   7.677 -0.0663  0.5431  0.2516
31409SOL     OW96858   3.038   4.516   6.079  0.0195 -0.3196 -0.2158
31409SOL    HW196859   3.103   4.457   6.041  0.4488 -0.5477  0.8407
31409SOL    HW296860   3.082   4.601   6.083 -0.4138 -0.0328 -1.2399
31410SOL     OW96861   3.720   8.283   8.547  0.2983 -0.5529  0.3917
31410SOL    HW196862   3.749   8.359   8.496 -1.2293 -0.0571  0.2055
31410SOL    HW296863   3.776   8.283   8.624  0.8472  0.3034  0.0094
31411SOL     OW96864   6.984   9.690   9.686  0.7493 -0.4241  0.2114
31411SOL    HW196865   7.019   9.712   9.772  0.3902 -0.0838  0.2705
31411SOL    HW296866   6.924   9.617   9.703  0.3794 -0.1015  0.3095
31412SOL     OW96867   5.192   2.336   0.675 -0.3116  0.6061  0.1707
31412SOL    HW196868   5.172   2.327   0.581  2.4519 -0.5417 -0.4035
31412SOL    HW296869   5.209   2.246   0.704 -0.6813  1.0023  1.6891
31413SOL     OW96870  10.259   0.724   5.657  0.0242 -0.5951  0.2082
31413SOL    HW196871  10.278   0.776   5.579 -1.0099  0.2544  0.4895
31413SOL    HW296872  10.293   0.637   5.637  0.2623 -0.2540 -0.9701
31414SOL     OW96873   0.150   0.448   6.397 -0.6268  0.2336 -0.0997
31414SOL    HW196874   0.218   0.488   6.343  0.5017 -0.0249  1.0764
31414SOL    HW296875   0.186   0.448   6.485 -2.4121  0.6074  0.6761
31415SOL     OW96876   8.904   2.550   4.248 -0.3680 -0.0250 -0.1057
31415SOL    HW196877   8.862   2.507   4.173 -1.1288 -0.9527  0.8271
31415SOL    HW296878   8.832   2.593   4.294 -0.1096 -0.5258  0.7833
31416SOL     OW96879   0.711  10.266   7.322 -0.1392 -0.0756  0.1671
31416SOL    HW196880   0.710  10.358   7.295 -0.7490  0.1231  0.8310
31416SOL    HW296881   0.654  10.263   7.399 -1.2810 -1.2600 -0.6740
31417SOL     OW96882   5.090   9.940   0.732 -0.3983 -0.3903  0.2166
31417SOL    HW196883   5.084   9.865   0.673  2.3813 -0.8159  0.3602
31417SOL    HW296884   5.126  10.010   0.678 -1.7357  0.4887  0.4198
31418SOL     OW96885   9.210   8.898   3.372  0.5145 -0.3029 -0.4759
31418SOL    HW196886   9.193   8.977   3.424  1.3677 -0.1112 -0.4699
31418SOL    HW296887   9.215   8.828   3.437 -0.7269 -0.4584 -0.5244
31419SOL     OW96888   9.784   6.972   6.131  0.2975  0.1571  0.6081
31419SOL    HW196889   9.866   6.963   6.181  0.7346  0.0843 -0.1111
31419SOL    HW296890   9.746   6.884   6.132 -1.6469  0.8216  4.0025
31420SOL     OW96891  10.258   0.819   2.317 -0.1831 -1.1935 -0.2980
31420SOL    HW196892  10.291   0.755   2.255 -3.3327 -2.4011 -0.9277
31420SOL    HW296893  10.217   0.887   2.263 -1.4841 -1.4127  0.3542
31421SOL     OW96894   0.491   4.781   0.881 -0.4563  0.3364 -0.1987
31421SOL    HW196895   0.550   4.732   0.824 -1.2890 -0.8889 -0.0648
31421SOL    HW296896   0.547   4.822   0.946  0.3948  0.7425 -1.1659
31422SOL     OW96897   7.610   9.414   9.932 -0.5622 -0.4870  0.2309
31422SOL    HW196898   7.563   9.415   9.849 -1.2766 -1.0705  0.6145
31422SOL    HW296899   7.702   9.425   9.908 -0.6219 -1.8519 -0.7402
31423SOL     OW96900   0.100   0.739   1.014  0.5522  0.0665  0.2784
31423SOL    HW196901   0.100   0.734   0.918  0.7108  0.1112  0.2754
31423SOL    HW296902   0.029   0.680   1.041  0.2505  0.3538  0.1201
31424SOL     OW96903   3.516   2.740   7.039 -0.7568  0.1905  0.2243
31424SOL    HW196904   3.458   2.799   7.088 -1.4912  0.1795 -0.6070
31424SOL    HW296905   3.464   2.713   6.963  1.0101  1.7919 -1.6568
31425SOL     OW96906   9.592   9.133   2.071  0.1948 -0.0803 -1.1077
31425SOL    HW196907   9.625   9.167   2.155  0.6467  0.6698 -1.5801
31425SOL    HW296908   9.553   9.209   2.028 -1.6840 -0.8243 -0.8217
31426SOL     OW96909   9.689   7.024   3.173 -0.1393  0.8950  0.3980
31426SOL    HW196910   9.785   7.028   3.176 -0.1163  0.7506 -0.1898
31426SOL    HW296911   9.661   7.077   3.248  0.3793  1.9145 -0.1050
31427SOL     OW96912   3.850   2.933   8.931  0.2749  0.6196  0.5772
31427SOL    HW196913   3.822   3.024   8.941 -0.8415  0.3546  0.0328
31427SOL    HW296914   3.772   2.887   8.900  0.7919 -0.5483  0.9414
31428SOL     OW96915   5.543   4.164   6.284 -0.6023 -0.2827 -0.5937
31428SOL    HW196916   5.500   4.129   6.206 -0.9016 -0.8021 -0.1944
31428SOL    HW296917   5.477   4.159   6.353  0.2561 -1.5987  0.1630
31429SOL     OW96918   8.222   1.902   6.951  0.0524 -0.0186 -0.6041
31429SOL    HW196919   8.257   1.991   6.942 -2.4374  0.9037 -2.9125
31429SOL    HW296920   8.144   1.913   7.005 -0.8814 -0.5260 -1.7814
31430SOL     OW96921   7.589   4.869   0.992 -0.3502 -0.6866  0.0744
31430SOL    HW196922   7.509   4.888   0.943  0.4978  1.9862 -0.4131
31430SOL    HW296923   7.653   4.932   0.959  2.0419 -2.7881  0.3587
31431SOL     OW96924   5.530   6.659   5.189 -0.1979 -0.3349  0.4486
31431SOL    HW196925   5.507   6.694   5.103  0.6132 -0.9408 -0.0261
31431SOL    HW296926   5.490   6.720   5.251 -0.4956  0.3045 -0.3514
31432SOL     OW96927   5.740   4.030   0.296 -0.2801  0.2013  0.0871
31432SOL    HW196928   5.789   4.037   0.377  0.5570 -1.1954 -0.2559
31432SOL    HW296929   5.751   4.114   0.253  1.8425 -0.0614  0.0314
31433SOL     OW96930   7.816   0.777   5.726 -0.0656  0.0478 -0.2446
31433SOL    HW196931   7.881   0.827   5.677  0.6599  0.2095  0.8544
31433SOL    HW296932   7.841   0.789   5.818 -0.6376 -1.2824  0.1018
31434SOL     OW96933  10.089   1.709   1.803 -0.3959  0.1171  0.3409
31434SOL    HW196934   9.995   1.725   1.804 -0.5642 -0.7788 -0.3283
31434SOL    HW296935  10.113   1.715   1.710  0.4581  1.7043  0.6278
31435SOL     OW96936   7.580   3.000   9.522  0.0120  0.1078  0.4373
31435SOL    HW196937   7.494   2.965   9.501  0.0174  0.3717 -0.0498
31435SOL    HW296938   7.594   2.979   9.614 -0.4004 -0.2915  0.4082
31436SOL     OW96939   0.217   7.880   9.968 -0.2075  0.1784 -0.1087
31436SOL    HW196940   0.302   7.885   9.926 -1.5257  2.5673 -2.8341
31436SOL    HW296941   0.234   7.835  10.051  3.2320 -1.4783 -1.5152
31437SOL     OW96942  10.040   3.165   4.539 -0.3380 -0.3183 -0.5273
31437SOL    HW196943  10.060   3.166   4.446 -0.2475  0.3713 -0.5063
31437SOL    HW296944  10.017   3.074   4.558  0.9381 -0.7460 -0.9415
31438SOL     OW96945   0.388   9.020   1.825 -0.0490  0.0177 -0.0924
31438SOL    HW196946   0.436   8.987   1.748 -2.0604  0.3078 -1.5520
31438SOL    HW296947   0.398   9.115   1.821 -0.2580  0.0408 -0.0648
31439SOL     OW96948   5.851   9.510  10.178  0.9285  0.1227 -0.1694
31439SOL    HW196949   5.858   9.515  10.274 -1.6764  0.4673  0.0793
31439SOL    HW296950   5.860   9.600  10.148 -0.4537  0.3542  0.0152
31440SOL     OW96951   2.672  10.289   2.498  0.4689  0.1654  0.4664
31440SOL    HW196952   2.615  10.314   2.570 -2.3401 -1.7126 -0.9141
31440SOL    HW296953   2.687  10.196   2.511 -0.0489 -0.1987 -1.2632
31441SOL     OW96954   4.995   7.339   9.536 -0.6536 -0.7559  0.1180
31441SOL    HW196955   4.955   7.359   9.621  0.1539  0.2627  0.2655
31441SOL    HW296956   5.086   7.320   9.556 -0.4690 -0.5564 -0.5180
31442SOL     OW96957   3.916   2.126   7.886  0.2773  0.2074  0.0449
31442SOL    HW196958   3.934   2.112   7.979 -1.1102 -3.2253 -0.0404
31442SOL    HW296959   4.000   2.109   7.843  0.4916 -0.0892  0.5662
31443SOL     OW96960   2.075   9.837   9.749  0.0547 -0.0127 -0.0290
31443SOL    HW196961   2.101   9.747   9.729  0.4372  0.3668 -1.3618
31443SOL    HW296962   1.987   9.830   9.784  0.2259 -0.9404  0.2322
31444SOL     OW96963   3.207   3.754   5.910 -0.7491  0.0286  0.0691
31444SOL    HW196964   3.250   3.806   5.978 -1.6629 -0.3673  0.9692
31444SOL    HW296965   3.247   3.667   5.917 -1.6656 -0.3441  0.9164
31445SOL     OW96966   9.865   7.895   3.738  0.0849 -0.5260  0.3503
31445SOL    HW196967   9.822   7.883   3.654 -1.8810 -1.8985  1.4530
31445SOL    HW296968   9.848   7.986   3.762  0.9610 -0.0235 -0.8375
31446SOL     OW96969   4.898   0.376   5.982  0.4751 -0.9637 -0.4295
31446SOL    HW196970   4.829   0.382   5.916  0.9317  0.3655 -0.8115
31446SOL    HW296971   4.852   0.371   6.066 -0.1081 -2.6290 -0.8149
31447SOL     OW96972   1.902   9.245   1.626  0.4062  0.0833  0.5825
31447SOL    HW196973   1.978   9.187   1.630  0.8284  0.5600 -0.1829
31447SOL    HW296974   1.875   9.243   1.534 -0.5039 -0.0602  0.8366
31448SOL     OW96975   7.722   2.809   1.052  0.8948 -0.5885  0.2326
31448SOL    HW196976   7.726   2.771   0.964  1.1952 -2.5110  1.0451
31448SOL    HW296977   7.812   2.804   1.085  0.9471  0.8557  0.3827
31449SOL     OW96978   2.945   4.856   2.134  0.6504 -0.2500  0.2016
31449SOL    HW196979   3.020   4.912   2.112  0.4309 -0.3222 -0.7587
31449SOL    HW296980   2.962   4.774   2.087 -0.6770  0.1980 -1.1112
31450SOL     OW96981   0.040   3.475   2.124 -0.2557  0.2044 -0.1468
31450SOL    HW196982  -0.054   3.480   2.143 -0.4994  1.5174 -1.5101
31450SOL    HW296983   0.080   3.530   2.191 -0.7822  2.1162 -1.3437
31451SOL     OW96984   9.668   1.294   8.790  0.3405 -0.6607  0.0924
31451SOL    HW196985   9.698   1.209   8.823  0.2122 -1.0149 -0.6927
31451SOL    HW296986   9.587   1.274   8.744  0.1477 -0.0572  0.1695
31452SOL     OW96987   7.589   7.986   6.557 -0.1441  0.2563  0.0796
31452SOL    HW196988   7.557   7.968   6.645  0.0461  0.6873  0.2429
31452SOL    HW296989   7.532   8.056   6.525  0.8658  1.3279  0.5340
31453SOL     OW96990   8.132   5.150   6.111  0.2809 -0.5626  0.2258
31453SOL    HW196991   8.221   5.113   6.112 -0.0305 -1.4584 -1.4779
31453SOL    HW296992   8.093   5.119   6.193  1.3932 -0.5155  0.7920
31454SOL     OW96993   6.620   2.887   1.424  0.5129  0.0701  0.1476
31454SOL    HW196994   6.542   2.933   1.392  2.0811  0.2918 -3.9939
31454SOL    HW296995   6.686   2.955   1.435  1.4861 -0.5440 -1.4344
31455SOL     OW96996   8.223   8.926   3.043  0.0817 -0.4007  0.7033
31455SOL    HW196997   8.240   8.884   2.958  2.4620 -1.7322  1.7502
31455SOL    HW296998   8.182   9.010   3.020  1.0533 -0.5241 -1.7864
31456SOL     OW96999   4.288   4.423   4.298  0.1850 -0.1036  0.2421
31456SOL    HW197000   4.272   4.365   4.373 -1.5832  1.3654  1.0825
31456SOL    HW297001   4.365   4.474   4.323 -2.0642  2.4870  2.5475
31457SOL     OW97002   6.106   7.304   0.723 -0.0847 -0.8598 -0.1379
31457SOL    HW197003   6.046   7.362   0.770 -2.0975 -1.8183 -1.3666
31457SOL    HW297004   6.076   7.216   0.745  1.6067 -1.4213  0.0674
31458SOL     OW97005   8.314   7.424   4.239  0.0307  0.1135 -0.6146
31458SOL    HW197006   8.352   7.357   4.183  1.3912 -0.7328  1.2196
31458SOL    HW297007   8.246   7.378   4.289  0.4912  0.2523  0.1520
31459SOL     OW97008   8.262   7.369   9.193  0.2847  0.1927 -0.2184
31459SOL    HW197009   8.226   7.388   9.106  0.2251  0.9618 -0.0329
31459SOL    HW297010   8.353   7.397   9.187  0.4408 -0.3147 -0.2152
31460SOL     OW97011   4.480   5.195   5.575  0.1764  0.3975  0.1784
31460SOL    HW197012   4.509   5.199   5.484 -1.7098 -0.6124 -0.5342
31460SOL    HW297013   4.385   5.204   5.570 -0.0255 -0.2571  1.9976
31461SOL     OW97014   6.909   9.582   5.221 -0.0227  0.1801 -0.1373
31461SOL    HW197015   6.943   9.671   5.222  0.0696  0.2474 -2.4160
31461SOL    HW297016   6.985   9.527   5.242  0.0961  0.5845  0.5207
31462SOL     OW97017   9.101   6.499   3.967  0.1268  0.7202  0.2564
31462SOL    HW197018   9.151   6.418   3.957 -0.5821  0.3067  0.0407
31462SOL    HW297019   9.010   6.472   3.960 -0.0931  1.7225 -1.2057
31463SOL     OW97020   7.077   7.612   7.689 -0.4380 -0.1389 -0.0977
31463SOL    HW197021   7.098   7.689   7.741 -0.5626 -0.0363 -0.1976
31463SOL    HW297022   6.992   7.632   7.649 -0.3168 -0.1939 -0.3850
31464SOL     OW97023   0.172   1.464   0.970  0.1252  0.0349 -0.9769
31464SOL    HW197024   0.113   1.438   0.900 -0.8300 -1.6426  0.3647
31464SOL    HW297025   0.117   1.513   1.031  1.0492  1.9034 -1.5891
31465SOL     OW97026   6.557   7.120  10.338 -0.3264 -0.1708  0.2589
31465SOL    HW197027   6.546   7.043  10.394  1.9005  0.7867  2.1394
31465SOL    HW297028   6.507   7.189  10.382 -0.0287  0.1583  0.0793
31466SOL     OW97029   6.111  10.292   5.586  0.7049 -0.2569  0.4910
31466SOL    HW197030   6.133  10.263   5.498 -0.1450 -0.6559  0.4025
31466SOL    HW297031   6.122  10.387   5.584  0.4000 -0.2297 -0.1327
31467SOL     OW97032   3.642   8.769   2.544  0.5087 -0.2216  0.0326
31467SOL    HW197033   3.584   8.845   2.553 -0.5069 -0.5140 -2.9066
31467SOL    HW297034   3.726   8.805   2.516  0.9391 -0.0029  1.5487
31468SOL     OW97035   4.181   1.451   1.036  0.2276 -0.5319  0.1455
31468SOL    HW197036   4.276   1.443   1.043  0.5849 -0.9681 -3.3495
31468SOL    HW297037   4.165   1.545   1.029  0.7409 -0.5566 -1.8322
31469SOL     OW97038   8.904   8.905   0.200  0.6633 -0.6206  0.1738
31469SOL    HW197039   8.877   8.917   0.291  0.7301  0.8491  0.0149
31469SOL    HW297040   8.940   8.816   0.197  2.0285 -0.1614  1.9159
31470SOL     OW97041   2.363   7.870   6.039  0.4201 -0.0978  0.1096
31470SOL    HW197042   2.391   7.949   6.085  2.5421 -0.6898 -0.0931
31470SOL    HW297043   2.408   7.875   5.954 -1.1231 -0.4865 -0.7830
31471SOL     OW97044   6.440   0.029   9.794  0.0803  0.0901  0.2776
31471SOL    HW197045   6.481  -0.018   9.722  0.2345 -0.2803  0.6004
31471SOL    HW297046   6.512   0.048   9.855 -0.2967 -1.0591  1.1126
31472SOL     OW97047   2.781   4.768   7.195  0.1029  0.1014  0.0404
31472SOL    HW197048   2.733   4.846   7.224 -2.7822 -1.4277 -0.1394
31472SOL    HW297049   2.794   4.781   7.102 -0.6679  0.2786 -0.0567
31473SOL     OW97050   5.448   1.761   1.035 -0.4640 -0.4144 -0.2624
31473SOL    HW197051   5.432   1.703   1.108 -1.0740 -0.5999 -0.5368
31473SOL    HW297052   5.478   1.843   1.075 -3.1914  0.3657  0.3953
31474SOL     OW97053   5.497   1.491   2.756 -0.0437  0.6816  0.2387
31474SOL    HW197054   5.489   1.399   2.730  1.4380  1.0912 -1.8606
31474SOL    HW297055   5.456   1.494   2.843 -1.0153 -1.7400 -0.0431
31475SOL     OW97056   0.106   2.816   0.392  0.2452 -0.1325  0.5368
31475SOL    HW197057   0.184   2.841   0.442  0.8577  0.8830 -0.8448
31475SOL    HW297058   0.039   2.879   0.418 -0.0464 -0.8182  1.4991
31476SOL     OW97059   3.846   1.132   7.043 -0.4085  0.0650  0.2681
31476SOL    HW197060   3.852   1.227   7.045  0.5535  0.0159  0.0087
31476SOL    HW297061   3.908   1.105   6.976 -0.7513 -0.7414  0.2625
31477SOL     OW97062   0.256   6.369   5.890  0.2020  0.4659 -0.3419
31477SOL    HW197063   0.219   6.443   5.842  2.3918  0.6793 -1.8974
31477SOL    HW297064   0.260   6.299   5.825 -0.3912 -0.5440  0.6805
31478SOL     OW97065   0.505   3.129   5.990 -0.5741  0.3094 -0.0245
31478SOL    HW197066   0.600   3.119   5.997 -0.4544  0.7777 -0.8540
31478SOL    HW297067   0.487   3.219   6.018 -0.9189 -0.1352  1.2515
31479SOL     OW97068   4.230   9.171   8.440 -0.5545  0.0508 -0.0667
31479SOL    HW197069   4.137   9.187   8.427 -0.7873  0.0287  1.4102
31479SOL    HW297070   4.242   9.170   8.535  1.1787  1.3241 -0.2073
31480SOL     OW97071   2.181   3.065   4.547  0.0646 -0.2050 -0.5116
31480SOL    HW197072   2.100   3.111   4.567  1.0218  1.1929  0.3377
31480SOL    HW297073   2.228   3.124   4.487  1.3155 -0.0276  0.5966
31481SOL     OW97074   7.332   1.973   6.536 -0.1707  0.1122  0.6495
31481SOL    HW197075   7.296   1.889   6.509  0.9259 -0.0767 -0.3492
31481SOL    HW297076   7.319   1.977   6.630 -1.7113 -0.4319  0.4707
31482SOL     OW97077   5.633   1.982   4.124  0.2450 -0.6603  0.3547
31482SOL    HW197078   5.638   2.064   4.074 -2.0665 -1.3002 -1.0770
31482SOL    HW297079   5.563   1.997   4.188 -0.1568 -1.4816  0.1230
31483SOL     OW97080   9.522  10.154   6.762  0.2030  0.0425 -0.1814
31483SOL    HW197081   9.582  10.164   6.687  1.3330 -0.0014  0.6871
31483SOL    HW297082   9.576  10.112   6.829 -1.3113 -1.6667  0.0416
31484SOL     OW97083   2.669   7.289   2.590 -0.0551  0.3019  1.0854
31484SOL    HW197084   2.705   7.264   2.505 -1.6327 -1.7536  0.9474
31484SOL    HW297085   2.746   7.314   2.642  0.9510  1.4940 -0.8521
31485SOL     OW97086   9.438   4.613   9.200 -0.1236  0.0255  0.3049
31485SOL    HW197087   9.370   4.567   9.250 -0.0423 -0.7988 -0.3207
31485SOL    HW297088   9.471   4.547   9.139  2.2122  0.0000  1.5123
31486SOL     OW97089   1.096   9.296   0.962  0.0989 -0.1536  0.3428
31486SOL    HW197090   1.054   9.221   0.920  1.4392 -2.0797  2.2565
31486SOL    HW297091   1.073   9.288   1.054  2.2290  0.4022  0.9620
31487SOL     OW97092   4.452   5.430   6.027  0.0181  0.1576 -0.2503
31487SOL    HW197093   4.385   5.469   6.082 -0.5607  1.0343 -1.5341
31487SOL    HW297094   4.491   5.361   6.081  1.1269  2.5233  2.1508
31488SOL     OW97095   8.632   5.708   9.692 -0.3720  0.1433  0.4564
31488SOL    HW197096   8.704   5.702   9.629 -0.2694 -0.3696  0.6198
31488SOL    HW297097   8.647   5.636   9.753 -0.8804  0.1895  0.6413
31489SOL     OW97098   9.904   7.965   5.166 -0.3491 -0.1963 -0.0952
31489SOL    HW197099   9.820   7.995   5.132  0.5763  0.3608 -2.0377
31489SOL    HW297100   9.922   7.884   5.119  0.4657  0.0015 -0.1530
31490SOL     OW97101   4.951   3.581   4.482 -0.2376 -0.5635 -0.2261
31490SOL    HW197102   4.995   3.559   4.563 -2.4485 -1.0592  0.9373
31490SOL    HW297103   4.985   3.667   4.458  2.4604 -1.5717 -0.3326
31491SOL     OW97104   1.871   7.199   5.728  0.6036  0.1436  0.1284
31491SOL    HW197105   1.951   7.183   5.780  0.3038  1.1065  0.9171
31491SOL    HW297106   1.801   7.157   5.779  0.0130  2.6648  1.5370
31492SOL     OW97107   8.372   3.407   7.264  0.7843 -0.1671 -0.0095
31492SOL    HW197108   8.446   3.447   7.220  0.7281  1.3057  1.1766
31492SOL    HW297109   8.345   3.471   7.330 -1.9394 -0.3720 -0.7975
31493SOL     OW97110   4.912   5.014   5.528 -0.1166 -0.0506  0.2639
31493SOL    HW197111   4.987   5.052   5.483 -0.7532  0.3365 -0.4960
31493SOL    HW297112   4.929   5.030   5.621  0.4052  0.6453  0.0576
31494SOL     OW97113   1.414  10.313   7.797  0.1017 -0.6920 -0.0408
31494SOL    HW197114   1.333  10.288   7.841 -0.2592 -1.0074 -0.8667
31494SOL    HW297115   1.387  10.336   7.708  0.6362  1.1566  0.2250
31495SOL     OW97116   0.997   0.597   8.015 -0.0012  0.6423 -0.8940
31495SOL    HW197117   0.993   0.663   7.946  1.3803 -1.5153 -3.2146
31495SOL    HW297118   0.905   0.572   8.029 -0.2889  0.7662 -2.3538
31496SOL     OW97119   8.640   0.060   6.739  0.1108  0.2555 -0.3634
31496SOL    HW197120   8.680   0.023   6.818 -0.6195 -1.0626 -0.5805
31496SOL    HW297121   8.715   0.091   6.687  0.5908  1.2336  0.8716
31497SOL     OW97122   4.626   7.814   6.684 -0.0844  0.4972 -0.5510
31497SOL    HW197123   4.593   7.754   6.751  0.0483 -0.4015 -1.2833
31497SOL    HW297124   4.563   7.886   6.684 -1.7405 -0.8737 -1.4696
31498SOL     OW97125   5.595   5.024   8.270 -0.2647  0.8502 -0.2693
31498SOL    HW197126   5.535   4.964   8.316 -1.5961  1.9143 -0.5654
31498SOL    HW297127   5.680   5.008   8.312 -0.8104 -0.4188  0.4380
31499SOL     OW97128   1.087   9.339   4.614  0.4484  0.2464 -0.1633
31499SOL    HW197129   1.074   9.255   4.569 -3.1762  0.7844 -0.4651
31499SOL    HW297130   1.125   9.396   4.547  0.0583 -0.3489 -0.9139
31500SOL     OW97131   7.671   7.301   9.187  0.6207 -0.0219  0.8202
31500SOL    HW197132   7.670   7.304   9.282 -1.2355 -3.1829  1.0424
31500SOL    HW297133   7.689   7.209   9.166  0.7077  0.5235 -1.8689
31501SOL     OW97134  10.212   8.576   5.804  0.0154 -0.0842  0.0232
31501SOL    HW197135  10.131   8.570   5.754  0.2022  0.9500 -0.4242
31501SOL    HW297136  10.186   8.561   5.894 -0.2784 -2.3321 -0.3788
31502SOL     OW97137   8.664   2.421   3.778 -0.4462  0.2321  0.6884
31502SOL    HW197138   8.610   2.344   3.795  0.2553 -0.2524  0.7577
31502SOL    HW297139   8.730   2.391   3.715 -0.2921  0.8349  0.5504
31503SOL     OW97140   2.686   1.070   4.049 -0.1498  0.8355 -0.2284
31503SOL    HW197141   2.603   1.024   4.053  0.5238 -0.4945 -0.9009
31503SOL    HW297142   2.684   1.117   3.966  1.1530 -2.0878 -2.0642
31504SOL     OW97143   3.638   3.096   8.217  0.3496 -0.7912 -0.1572
31504SOL    HW197144   3.630   3.161   8.148  2.0588 -1.9833 -1.5644
31504SOL    HW297145   3.566   3.034   8.201 -0.9033  0.3552  0.8194
31505SOL     OW97146   4.846   6.574   6.589 -0.1014  0.1435  0.2788
31505SOL    HW197147   4.782   6.504   6.603  2.4472 -2.6477 -0.8106
31505SOL    HW297148   4.895   6.578   6.672  1.2180 -1.0794 -0.4021
31506SOL     OW97149   8.440   9.400   8.834  0.1158 -0.2387  0.5268
31506SOL    HW197150   8.414   9.354   8.914  1.5797 -2.1065 -0.0143
31506SOL    HW297151   8.368   9.383   8.773 -0.4356  0.1724  1.0474
31507SOL     OW97152   6.336   9.949   6.932  0.0033 -0.5098 -0.1692
31507SOL    HW197153   6.302  10.037   6.917 -0.5636 -0.7053 -0.0504
31507SOL    HW297154   6.344   9.943   7.028  1.6055 -0.0117 -0.2453
31508SOL     OW97155   7.697   9.540   1.451 -0.0339  0.7554 -0.3338
31508SOL    HW197156   7.750   9.550   1.372 -1.1317  1.2305 -1.0407
31508SOL    HW297157   7.652   9.456   1.440 -0.3177  0.9003 -0.3056
31509SOL     OW97158   0.568   8.918   6.757  0.3384  0.3036  0.1075
31509SOL    HW197159   0.606   8.832   6.772 -1.0162 -0.4114 -0.4510
31509SOL    HW297160   0.549   8.951   6.845  0.6775 -0.0441  0.3150
31510SOL     OW97161   2.794   9.287  10.151  0.4095 -0.0452  0.3409
31510SOL    HW197162   2.794   9.214  10.213  1.0422 -0.4094 -0.0680
31510SOL    HW297163   2.867   9.342  10.179 -0.9372  1.1983  1.5016
31511SOL     OW97164   4.641   0.989   8.712 -0.0667  0.0845 -0.0128
31511SOL    HW197165   4.649   1.066   8.656 -0.8181  0.4540  0.3724
31511SOL    HW297166   4.636   1.025   8.801  0.1237 -0.4416  0.2128
31512SOL     OW97167   5.453   9.079   6.624 -0.0247  0.0023  0.1068
31512SOL    HW197168   5.383   9.119   6.675  0.2333 -0.9511  1.2600
31512SOL    HW297169   5.506   9.033   6.689  0.1885 -1.4568 -1.0505
31513SOL     OW97170   8.706   5.465   9.476  0.0442  0.8028 -0.4490
31513SOL    HW197171   8.752   5.502   9.551 -1.6028 -0.5999  1.3488
31513SOL    HW297172   8.628   5.425   9.513 -1.7336  1.4996 -3.1225
31514SOL     OW97173   7.896   0.290   3.463 -0.1932  0.4292  0.1894
31514SOL    HW197174   7.907   0.381   3.490 -0.2333  0.1222  1.2659
31514SOL    HW297175   7.810   0.288   3.420  0.9965  1.4779 -2.4999
31515SOL     OW97176   2.219   4.541   5.480 -0.2419 -0.5811 -0.2341
31515SOL    HW197177   2.143   4.495   5.444 -1.7406  1.9867 -0.5290
31515SOL    HW297178   2.192   4.566   5.568  0.3044  0.2506 -0.2970
31516SOL     OW97179   2.253   9.655   8.303  0.2435 -0.2441  0.9129
31516SOL    HW197180   2.211   9.595   8.241  0.4155  1.0051 -0.4620
31516SOL    HW297181   2.346   9.636   8.296  0.5372  1.6365 -1.2190
31517SOL     OW97182   6.509   4.356   8.166  0.3553  0.2604 -0.4365
31517SOL    HW197183   6.488   4.429   8.108  0.5757  0.6432 -0.0410
31517SOL    HW297184   6.605   4.350   8.163  0.2792 -0.7189 -1.3180
31518SOL     OW97185   5.543   6.165   6.162 -0.4430  0.0829 -0.0897
31518SOL    HW197186   5.603   6.138   6.093 -0.0374  0.4171  0.1317
31518SOL    HW297187   5.530   6.258   6.149  0.9527  0.5149  1.2616
31519SOL     OW97188   3.923   6.792   6.518  0.3879 -0.6926  0.0890
31519SOL    HW197189   4.002   6.806   6.466 -0.0168  1.0383 -0.1387
31519SOL    HW297190   3.896   6.702   6.497  1.6381 -0.8987 -0.7344
31520SOL     OW97191   5.513   0.533   0.211 -0.1882 -0.8101 -0.1026
31520SOL    HW197192   5.557   0.474   0.149  0.9978 -0.5701  0.4827
31520SOL    HW297193   5.497   0.479   0.288 -1.4694 -1.0488 -0.5117
31521SOL     OW97194   4.679   8.065   4.157  0.7132  0.6316 -0.3381
31521SOL    HW197195   4.679   7.975   4.123  0.1184  0.4422  0.1500
31521SOL    HW297196   4.759   8.072   4.208 -0.9415 -0.8282  2.7066
31522SOL     OW97197   4.713   7.443   3.980  0.0739 -0.6222  0.3038
31522SOL    HW197198   4.622   7.460   4.006  0.3569 -0.7521  1.4261
31522SOL    HW297199   4.731   7.355   4.011 -0.3451 -1.8636 -2.6145
31523SOL     OW97200   0.582   5.784  10.123 -0.0013 -0.5312 -0.0583
31523SOL    HW197201   0.565   5.695  10.093 -1.4764 -0.4921  0.5912
31523SOL    HW297202   0.538   5.790  10.208  2.3513 -0.0101  1.1982
31524SOL     OW97203   6.099   6.467   9.894 -0.4476  0.1872 -0.2729
31524SOL    HW197204   6.185   6.469   9.851  0.5364  0.1630  1.5797
31524SOL    HW297205   6.067   6.557   9.888 -0.4161  0.1446 -1.1889
31525SOL     OW97206   3.901   2.824   9.320  0.3633 -0.0829  0.2081
31525SOL    HW197207   3.881   2.760   9.251 -0.1783  0.9089 -0.5805
31525SOL    HW297208   3.996   2.824   9.325  0.6770  2.1130 -2.8613
31526SOL     OW97209   5.573   7.314   3.006  0.8937  0.0220 -0.3578
31526SOL    HW197210   5.604   7.281   3.091  0.0138 -0.8670 -0.3571
31526SOL    HW297211   5.559   7.235   2.954 -3.8841 -0.0091  0.5063
31527SOL     OW97212   6.192   9.725   6.910  0.7622 -0.0666  0.5530
31527SOL    HW197213   6.237   9.652   6.953  2.2206  1.4065  1.6635
31527SOL    HW297214   6.259   9.792   6.900 -0.1096  0.5140 -2.0554
31528SOL     OW97215   5.934   2.837   0.545 -0.0833 -0.0839  0.2829
31528SOL    HW197216   5.981   2.795   0.617  0.0295 -1.5401 -0.6055
31528SOL    HW297217   5.967   2.927   0.544 -2.6400  1.1244  4.2732
31529SOL     OW97218   7.601   5.173   8.310  0.6092  0.2260  0.5212
31529SOL    HW197219   7.604   5.170   8.405  0.2968 -0.9843  0.5172
31529SOL    HW297220   7.561   5.258   8.289  1.7388  0.9922  1.4167
31530SOL     OW97221   9.046   4.819   8.741 -0.0259  0.0431 -0.3698
31530SOL    HW197222   9.132   4.801   8.780  0.3609 -0.6506 -1.4896
31530SOL    HW297223   9.056   4.904   8.700 -0.3145  0.5982  0.6807
31531SOL     OW97224   4.683   2.825  10.050 -0.5464  0.3341 -0.3857
31531SOL    HW197225   4.776   2.809  10.032 -0.2051 -2.9614  3.0803
31531SOL    HW297226   4.637   2.756  10.003 -1.1324  0.9556 -0.7479
31532SOL     OW97227   7.979   4.049   8.143 -0.2362  0.1976 -0.3067
31532SOL    HW197228   8.040   3.975   8.137 -1.2533 -0.7793  0.7652
31532SOL    HW297229   7.991   4.083   8.231 -0.4868  0.6823 -0.4543
31533SOL     OW97230   4.589   2.703   5.841 -0.7012 -0.1330  0.0518
31533SOL    HW197231   4.518   2.647   5.870 -1.9149  1.9828  1.4202
31533SOL    HW297232   4.585   2.700   5.745 -0.7102 -2.3011  0.0710
31534SOL     OW97233   4.611   9.424   2.245  0.1811  0.5408 -0.1696
31534SOL    HW197234   4.687   9.481   2.258  1.4914 -0.7710 -1.5317
31534SOL    HW297235   4.649   9.343   2.210 -1.8482 -0.2256 -0.6924
31535SOL     OW97236   5.088   5.993   7.644 -0.2470 -0.9476 -0.4802
31535SOL    HW197237   5.040   6.076   7.636 -0.2489 -1.0347 -1.6675
31535SOL    HW297238   5.128   5.981   7.558 -0.0834 -2.0839 -0.2641
31536SOL     OW97239   7.650   7.708   4.218 -0.2024  0.4311 -0.2156
31536SOL    HW197240   7.605   7.738   4.297  0.1511 -1.3613  0.7145
31536SOL    HW297241   7.739   7.741   4.227  0.1279 -0.6374  0.6949
31537SOL     OW97242   3.398   4.140   6.691 -0.1583  0.4193  0.0657
31537SOL    HW197243   3.453   4.120   6.767  1.6956  1.1808 -0.9957
31537SOL    HW297244   3.372   4.231   6.703  2.3035  1.4026 -1.3805
31538SOL     OW97245   3.011   4.552   7.159  0.0684 -0.3061  0.2728
31538SOL    HW197246   2.992   4.459   7.170  0.7986 -0.3886  0.9574
31538SOL    HW297247   3.014   4.586   7.249  0.7532  0.1790  0.0753
31539SOL     OW97248   7.423   5.941   4.601  0.0897 -0.1549 -0.0388
31539SOL    HW197249   7.443   5.895   4.683 -0.3498  1.8898  1.2791
31539SOL    HW297250   7.509   5.965   4.566  0.3646 -2.3855 -1.0672
31540SOL     OW97251   0.917   3.739   5.287  0.5077  0.0750  0.9804
31540SOL    HW197252   0.872   3.759   5.369 -0.6624 -0.3913  0.4688
31540SOL    HW297253   0.902   3.645   5.274 -0.0399  0.3058 -0.1858
31541SOL     OW97254   3.960   1.292   8.812  0.2389 -0.4279 -0.0696
31541SOL    HW197255   3.969   1.211   8.762 -1.2852 -1.2110  0.8618
31541SOL    HW297256   3.930   1.264   8.899 -2.4076  1.2215 -0.3361
31542SOL     OW97257   9.214   6.736   7.933 -0.4597  0.2402  0.0738
31542SOL    HW197258   9.162   6.795   7.878 -1.6803 -0.2425  0.6614
31542SOL    HW297259   9.198   6.768   8.022  1.0840  0.7058  0.2024
31543SOL     OW97260   0.347   7.283   7.322  0.3291  0.2729 -0.0933
31543SOL    HW197261   0.367   7.368   7.360  0.1772  1.5164 -2.5975
31543SOL    HW297262   0.318   7.230   7.396  0.1579  2.4676  1.5130
31544SOL     OW97263  10.237   7.397   8.734 -0.0165  0.0693 -0.0966
31544SOL    HW197264  10.192   7.449   8.668  0.1017 -1.8443 -1.7697
31544SOL    HW297265  10.168   7.341   8.771  0.0837  0.5410  0.8291
31545SOL     OW97266   1.469   1.232   3.085 -0.0446  0.9745 -0.0137
31545SOL    HW197267   1.403   1.267   3.026 -0.9393 -0.0488  0.3683
31545SOL    HW297268   1.452   1.139   3.090  1.4135  0.6830  0.1288
31546SOL     OW97269   9.940   8.566   2.283 -0.5333 -0.2844  0.2637
31546SOL    HW197270  10.013   8.508   2.301 -0.3271  0.5555  2.4100
31546SOL    HW297271   9.972   8.624   2.214  0.3753 -0.7115  0.3163
31547SOL     OW97272   4.884   4.385   4.222  0.0751  0.6363 -0.5469
31547SOL    HW197273   4.812   4.425   4.174  0.1156 -0.6441 -1.7234
31547SOL    HW297274   4.939   4.345   4.155  0.1631 -1.1543  0.5237
31548SOL     OW97275   5.429   8.324   8.226 -0.2677 -0.3868  0.1294
31548SOL    HW197276   5.429   8.398   8.287 -2.5978  1.1917 -1.6130
31548SOL    HW297277   5.494   8.347   8.160 -0.7795  0.0049 -0.2499
31549SOL     OW97278   1.907   8.071   1.705  0.3431 -0.0421 -0.0284
31549SOL    HW197279   1.980   8.132   1.701 -0.8936  1.6280  1.2936
31549SOL    HW297280   1.850   8.097   1.632  2.3360 -3.2989 -3.0672
31550SOL     OW97281   5.728   5.603   1.355 -0.7830  0.4492  0.9035
31550SOL    HW197282   5.733   5.695   1.379 -1.7451  0.0949  2.6504
31550SOL    HW297283   5.640   5.593   1.319 -0.1381  0.4989 -0.7721
31551SOL     OW97284   8.121   7.402   0.312  0.7515 -0.4961  0.0266
31551SOL    HW197285   8.131   7.396   0.217 -0.0051 -0.8224 -0.0388
31551SOL    HW297286   8.131   7.312   0.343  0.7709 -0.4239  0.2324
31552SOL     OW97287   6.379   7.945   1.735 -0.3022 -0.2832 -0.1436
31552SOL    HW197288   6.335   7.861   1.737 -0.0318 -0.4416 -0.5959
31552SOL    HW297289   6.309   8.009   1.719 -0.5775 -0.3601  0.7156
31553SOL     OW97290   4.873   5.866   6.545 -0.2905 -0.2499  0.2559
31553SOL    HW197291   4.962   5.836   6.526 -0.0231  1.1239 -0.7725
31553SOL    HW297292   4.862   5.848   6.639  1.5161  0.6293  0.6934
31554SOL     OW97293   7.471   3.908   3.017 -0.0045  0.2327 -0.2402
31554SOL    HW197294   7.427   3.858   3.086  0.0281 -0.6494 -0.8388
31554SOL    HW297295   7.455   3.999   3.039  1.0548  0.0182  1.6466
31555SOL     OW97296   0.858   9.019   2.352  0.0920 -0.1997  0.0789
31555SOL    HW197297   0.915   9.002   2.276 -0.7132 -0.2131 -0.5339
31555SOL    HW297298   0.775   8.979   2.329 -0.0033 -0.6789  1.2190
31556SOL     OW97299   8.663   4.086   3.833  0.3473  0.1792 -0.1225
31556SOL    HW197300   8.745   4.087   3.882  0.8680 -0.4050 -0.9519
31556SOL    HW297301   8.689   4.108   3.743 -0.4428  0.2308 -0.3438
31557SOL     OW97302   2.200   3.771   3.238  0.4859 -0.0658 -0.2211
31557SOL    HW197303   2.265   3.715   3.280 -0.6800 -1.3550 -0.0865
31557SOL    HW297304   2.223   3.860   3.266  2.2685 -0.4646 -0.3173
31558SOL     OW97305   9.810   4.766   6.771 -0.4382  0.6128 -0.8081
31558SOL    HW197306   9.898   4.782   6.803 -0.9573 -0.1595  1.1570
31558SOL    HW297307   9.764   4.848   6.787 -0.5440  0.4140 -0.0413
31559SOL     OW97308   7.847   1.794   8.536  0.0855 -0.3769  0.6410
31559SOL    HW197309   7.795   1.729   8.490 -0.1249 -0.4389  0.9657
31559SOL    HW297310   7.894   1.840   8.467 -1.3911  0.5568  0.2225
31560SOL     OW97311   7.760   4.307   8.145 -0.0179 -0.2665  0.8089
31560SOL    HW197312   7.842   4.304   8.194  0.5387 -2.3526 -0.1179
31560SOL    HW297313   7.697   4.263   8.202 -0.0679 -0.1571  0.8370
31561SOL     OW97314   7.149   0.164   1.145 -0.2542  0.2754  0.2134
31561SOL    HW197315   7.130   0.134   1.057 -1.1438  3.2742 -0.7563
31561SOL    HW297316   7.243   0.178   1.147 -0.1644 -0.2855 -0.0978
31562SOL     OW97317   4.854   1.556   3.574  0.1314 -0.5138  0.0958
31562SOL    HW197318   4.851   1.617   3.648 -1.1061  0.0314 -0.3681
31562SOL    HW297319   4.947   1.541   3.559  0.4518  0.8141  0.5929
31563SOL     OW97320   5.101   5.191   1.778 -0.2540 -0.3308  0.5591
31563SOL    HW197321   5.023   5.193   1.723 -0.2263 -0.8437  0.4901
31563SOL    HW297322   5.159   5.129   1.734  0.0496 -0.2189  0.7991
31564SOL     OW97323   4.115   1.615   4.062  0.5402  0.3306  0.0845
31564SOL    HW197324   4.124   1.704   4.029  0.1925  0.1978 -0.3649
31564SOL    HW297325   4.040   1.619   4.122 -1.2284 -0.2412 -1.9997
31565SOL     OW97326   9.976  10.002   1.300 -0.0993 -0.0701 -0.3360
31565SOL    HW197327  10.035  10.077   1.300  0.4665 -0.4949  0.4624
31565SOL    HW297328  10.023   9.934   1.251 -0.1503 -0.2351 -0.1603
31566SOL     OW97329   0.114   5.955   1.883  0.5999  0.2147  0.1747
31566SOL    HW197330   0.067   5.965   1.801 -0.2433  1.5308  0.7937
31566SOL    HW297331   0.189   6.015   1.876  0.2436  0.7112  0.5579
31567SOL     OW97332   3.318   3.360   2.440 -0.1913  0.0925 -0.2791
31567SOL    HW197333   3.249   3.417   2.472  1.1551  0.7993  1.5598
31567SOL    HW297334   3.398   3.412   2.449  1.1350 -2.1227  1.7893
31568SOL     OW97335   6.513   9.615   2.818 -0.1486 -0.5314 -0.4212
31568SOL    HW197336   6.549   9.645   2.734  1.3710  0.1873  0.4352
31568SOL    HW297337   6.537   9.523   2.822  0.8641 -0.2744 -0.2606
31569SOL     OW97338   6.150   7.651   9.562  0.0687 -0.2140 -0.0319
31569SOL    HW197339   6.120   7.668   9.472 -0.5592  0.2817  0.2622
31569SOL    HW297340   6.156   7.738   9.601 -0.5552 -0.4871  0.6849
31570SOL     OW97341   5.993   9.610   5.779  0.1330  0.0185 -0.0027
31570SOL    HW197342   5.994   9.517   5.759  0.3904  0.4216 -2.0174
31570SOL    HW297343   5.921   9.620   5.841  1.3689 -1.7903  1.8609
31571SOL     OW97344   1.180   3.206   5.385  0.2992  0.1056  0.2334
31571SOL    HW197345   1.100   3.181   5.431  0.8288 -1.8754  0.1528
31571SOL    HW297346   1.172   3.167   5.298  1.5267 -0.4905  0.3653
31572SOL     OW97347   3.604   1.974   4.004 -0.6540 -0.2315  0.2777
31572SOL    HW197348   3.567   2.061   3.993  0.1062  0.2819  1.4989
31572SOL    HW297349   3.619   1.942   3.915  0.0480  1.3408 -0.2060
31573SOL     OW97350   5.785   3.509   7.484  0.3599  0.3454  0.1501
31573SOL    HW197351   5.722   3.580   7.496 -0.4311 -0.3552  0.2196
31573SOL    HW297352   5.868   3.546   7.514 -0.3119  0.7886  1.5691
31574SOL     OW97353   2.041  10.346   3.851  0.4133  0.3046  0.1109
31574SOL    HW197354   2.056  10.416   3.915 -0.8861  0.0728  0.6887
31574SOL    HW297355   2.129  10.322   3.822  0.9541  1.3276  0.8147
31575SOL     OW97356   4.714   8.122   0.313  0.1858 -0.9888  0.4624
31575SOL    HW197357   4.684   8.117   0.403  0.8838  0.0194  0.7676
31575SOL    HW297358   4.739   8.213   0.301  0.3585 -1.1717 -0.6693
31576SOL     OW97359   3.075   5.003   7.241 -0.5602  0.1218 -0.1720
31576SOL    HW197360   3.169   5.020   7.253 -0.3914 -0.3281 -0.8108
31576SOL    HW297361   3.062   4.914   7.272 -0.8607  0.3287  0.3040
31577SOL     OW97362   2.266   6.066   9.979 -0.2965 -0.9792 -0.1049
31577SOL    HW197363   2.277   6.160   9.995 -1.3561 -0.6624 -1.1019
31577SOL    HW297364   2.353   6.035   9.955  0.3020 -0.4975  1.3544
31578SOL     OW97365  10.161   8.151   9.019 -0.0024 -0.5948  0.4279
31578SOL    HW197366  10.217   8.076   9.000  2.1623  0.8169  0.8117
31578SOL    HW297367  10.106   8.123   9.092  1.1566 -1.6172  0.9318
31579SOL     OW97368   3.628   0.390   8.499  0.1780 -0.1219 -0.2321
31579SOL    HW197369   3.582   0.307   8.510 -1.2583  0.2672 -2.5287
31579SOL    HW297370   3.688   0.374   8.426  0.0755  0.7538 -0.5218
31580SOL     OW97371   9.796   1.294   4.284 -0.3409  0.1821  0.1173
31580SOL    HW197372   9.734   1.247   4.341  0.6865 -0.1768  0.9639
31580SOL    HW297373   9.764   1.276   4.195 -0.9047 -0.7840  0.4962
31581SOL     OW97374   0.721   8.857   2.795 -0.2311  0.3729 -0.2267
31581SOL    HW197375   0.716   8.801   2.872 -0.7716  0.7508  0.0193
31581SOL    HW297376   0.633   8.892   2.786 -0.0416  0.7205 -0.7259
31582SOL     OW97377   7.614   8.282   7.600  0.1749  0.0218  0.4832
31582SOL    HW197378   7.640   8.276   7.692  0.7018  2.5457  0.5537
31582SOL    HW297379   7.692   8.311   7.554 -0.2813 -0.5180 -0.6835
31583SOL     OW97380   6.536   0.690   2.136  0.2510 -0.3161  0.2444
31583SOL    HW197381   6.569   0.757   2.076 -1.0332  0.9953  0.9406
31583SOL    HW297382   6.547   0.728   2.223  1.5081 -1.9390  0.8532
31584SOL     OW97383   1.003   7.234   4.440 -0.8084 -0.3545  0.4355
31584SOL    HW197384   1.080   7.178   4.426 -1.4898 -1.0381 -0.7840
31584SOL    HW297385   0.935   7.194   4.386 -1.2611  1.7860 -0.6723
31585SOL     OW97386  10.203   4.491   1.965  0.0118  0.7856  0.1491
31585SOL    HW197387  10.224   4.398   1.968 -1.1931  0.5059  2.9462
31585SOL    HW297388  10.263   4.527   1.899  1.4010 -1.7363 -0.0871
31586SOL     OW97389  10.162   1.068   0.466  0.3100  0.2445  0.0845
31586SOL    HW197390  10.148   0.993   0.525 -0.5284 -0.5669 -1.0938
31586SOL    HW297391  10.257   1.070   0.452  0.3911 -0.2998  0.5201
31587SOL     OW97392   5.771   2.150  10.185 -0.1557  0.3398  0.3032
31587SOL    HW197393   5.724   2.081  10.232 -0.3261  0.4177  0.2502
31587SOL    HW297394   5.729   2.152  10.098  0.8924 -0.5591 -0.2462
31588SOL     OW97395   6.673   8.933   3.814 -0.4646  0.0306 -0.2732
31588SOL    HW197396   6.611   8.912   3.744  0.9949  0.1090 -1.6341
31588SOL    HW297397   6.748   8.877   3.798  0.8362  1.6421 -0.1139
31589SOL     OW97398   8.175   0.746   7.726 -0.2003  0.3167 -0.1639
31589SOL    HW197399   8.180   0.684   7.798 -0.6463 -0.1590 -0.5302
31589SOL    HW297400   8.251   0.727   7.672  0.7286  1.3873  0.7210
31590SOL     OW97401   7.616   2.743   0.321  0.3180 -0.0249  0.3794
31590SOL    HW197402   7.646   2.828   0.353  1.5860 -0.6120  0.8311
31590SOL    HW297403   7.602   2.691   0.401 -1.0326 -0.0663  0.1350
31591SOL     OW97404   7.296   3.550   2.610  0.2658  0.0294  0.6059
31591SOL    HW197405   7.327   3.547   2.701  1.9599  0.2413  0.0621
31591SOL    HW297406   7.275   3.642   2.595  0.7038  0.1250  0.5632
31592SOL     OW97407   3.166   0.153   0.357  1.0315 -0.4993  0.0363
31592SOL    HW197408   3.214   0.108   0.426 -0.3008 -0.3975  1.0688
31592SOL    HW297409   3.172   0.246   0.379 -1.6225 -0.5881  1.6356
31593SOL     OW97410   1.462   4.920   3.616 -0.2299  0.3767  0.1623
31593SOL    HW197411   1.551   4.889   3.632 -1.2227 -2.7732  0.3717
31593SOL    HW297412   1.431   4.951   3.700 -0.2161 -1.1968  0.7796
31594SOL     OW97413   6.131   4.844   6.876 -0.3210 -0.3912 -0.2631
31594SOL    HW197414   6.077   4.770   6.847 -0.4657  0.0339 -1.1256
31594SOL    HW297415   6.181   4.868   6.798 -1.7668  1.7152 -0.6330
31595SOL     OW97416   8.977   7.979   5.220 -0.4189  0.1548  0.3066
31595SOL    HW197417   9.030   7.903   5.245  0.8259  0.9031  0.0728
31595SOL    HW297418   8.947   7.959   5.131  0.4720  0.2078 -0.0171
31596SOL     OW97419   6.144   6.409   5.344 -0.4761 -0.1836  0.0921
31596SOL    HW197420   6.128   6.457   5.426  1.3772 -1.6677  1.4230
31596SOL    HW297421   6.234   6.432   5.320 -0.8149 -0.1975 -1.2734
31597SOL     OW97422   8.766   3.365   4.799 -0.2095 -0.5939  0.7781
31597SOL    HW197423   8.678   3.390   4.773 -0.0163 -0.2294  0.4683
31597SOL    HW297424   8.757   3.275   4.831 -0.2086 -1.6332 -1.8959
31598SOL     OW97425   7.583   1.140   0.025  0.0345  0.0001  0.5127
31598SOL    HW197426   7.567   1.203  -0.044 -0.8768 -0.3523  0.3970
31598SOL    HW297427   7.643   1.076  -0.014 -0.2448 -0.0367  0.1450
31599SOL     OW97428   3.311   0.817   6.612 -0.1578 -0.9418 -0.0715
31599SOL    HW197429   3.353   0.742   6.571 -1.5718 -1.7558 -0.1015
31599SOL    HW297430   3.221   0.814   6.580 -0.7005 -0.2837  1.3278
31600SOL     OW97431   8.803   5.486   6.264 -0.1887 -1.3969 -0.3602
31600SOL    HW197432   8.821   5.393   6.275 -1.3570 -1.4448  1.6303
31600SOL    HW297433   8.741   5.507   6.334  1.0168  1.1584  0.0641
31601SOL     OW97434   3.140   2.529   2.379  0.9323 -0.2731 -0.0823
31601SOL    HW197435   3.195   2.552   2.454  1.4086  1.3914 -0.8891
31601SOL    HW297436   3.060   2.493   2.418  1.0149  0.8903  1.2282
31602SOL     OW97437   8.019   7.525   9.147 -0.2797 -0.0424  0.0971
31602SOL    HW197438   8.050   7.476   9.071  2.1122  0.4798  0.6680
31602SOL    HW297439   8.036   7.468   9.222  1.3028  1.0651  0.6299
31603SOL     OW97440   9.495   6.280   1.504  0.6505  0.0500 -0.1590
31603SOL    HW197441   9.509   6.357   1.449 -0.5852 -0.0287 -0.6090
31603SOL    HW297442   9.583   6.243   1.516  1.4043  2.0273  0.8331
31604SOL     OW97443   8.047   4.160   2.780  0.0550  0.3562  0.6194
31604SOL    HW197444   8.081   4.249   2.785 -0.5810  0.7941 -1.7054
31604SOL    HW297445   8.040   4.142   2.687 -2.6347 -1.0263  0.9857
31605SOL     OW97446   9.328   1.182   2.899  0.3965 -0.2252 -0.4230
31605SOL    HW197447   9.333   1.142   2.813  1.4722 -0.4602 -0.2590
31605SOL    HW297448   9.243   1.226   2.900 -1.0039 -2.7700 -0.4690
31606SOL     OW97449   5.236   0.617   7.977  0.4237  0.1507  0.3934
31606SOL    HW197450   5.245   0.527   8.007  0.5773  0.3978  1.1011
31606SOL    HW297451   5.144   0.626   7.954  1.0568 -1.3513 -3.5088
31607SOL     OW97452   8.533   7.714  10.089 -0.1281 -0.2924  0.4585
31607SOL    HW197453   8.551   7.797  10.043 -0.7485 -0.1428  0.4859
31607SOL    HW297454   8.513   7.652  10.019 -1.2480 -0.0216  0.5223
31608SOL     OW97455   6.927   8.433   8.070 -0.1207 -0.0009 -0.3685
31608SOL    HW197456   6.837   8.462   8.052 -0.0109  0.8636  0.3752
31608SOL    HW297457   6.933   8.432   8.165  0.9237  0.8396 -0.4101
31609SOL     OW97458   0.795   8.381   7.066  0.4651 -0.1274 -0.1757
31609SOL    HW197459   0.743   8.302   7.055  0.8910 -0.3334 -0.7346
31609SOL    HW297460   0.823   8.379   7.158 -0.6037  0.0511  0.1610
31610SOL     OW97461   4.926   7.517   2.683  0.0183 -0.1150 -0.1608
31610SOL    HW197462   4.925   7.424   2.706 -0.5004 -0.3818 -1.2093
31610SOL    HW297463   4.999   7.554   2.734  1.4097 -1.4583 -1.1205
31611SOL     OW97464   2.194   3.781   2.949  0.1434  0.4404  0.1546
31611SOL    HW197465   2.161   3.705   2.901  0.1902  0.2730  0.3815
31611SOL    HW297466   2.184   3.756   3.041  2.5727 -0.3663  0.2640
31612SOL     OW97467   9.975   1.015   4.339  0.4293  0.4350  0.1666
31612SOL    HW197468   9.951   0.943   4.281 -1.9458 -0.8770  2.5735
31612SOL    HW297469   9.904   1.078   4.330 -0.5158 -0.2502  2.2600
31613SOL     OW97470   1.653   3.313   6.585  0.0023  0.0180 -0.5506
31613SOL    HW197471   1.596   3.374   6.537 -0.0492 -0.6174 -1.3052
31613SOL    HW297472   1.696   3.368   6.650 -1.0368  0.6204 -0.3494
31614SOL     OW97473   7.449  10.216   4.468 -0.2823  0.3201  0.6019
31614SOL    HW197474   7.507  10.280   4.509 -1.6515  0.7024  2.0591
31614SOL    HW297475   7.371  10.266   4.445 -0.6322 -0.4669  0.0258
31615SOL     OW97476   9.046   1.324   3.948 -0.0404  0.3559 -0.1455
31615SOL    HW197477   9.071   1.405   3.903  0.3872  0.9408  1.1166
31615SOL    HW297478   9.100   1.257   3.906  0.7360  0.9694 -0.1538
31616SOL     OW97479   1.372   9.741   2.484 -0.1812 -0.2471 -0.1085
31616SOL    HW197480   1.283   9.770   2.463 -0.6063  0.5341  2.3755
31616SOL    HW297481   1.361   9.650   2.513 -0.4784  0.2882  1.6005
31617SOL     OW97482   9.618   0.971   7.404  0.1903 -0.1207 -0.3720
31617SOL    HW197483   9.596   1.058   7.370  3.8068  1.1478  0.1466
31617SOL    HW297484   9.599   0.977   7.498 -0.8718 -0.4196 -0.5518
31618SOL     OW97485   2.610   5.925   8.553 -0.2930 -0.2160 -0.4023
31618SOL    HW197486   2.597   5.837   8.516 -1.7902  0.6284 -2.0068
31618SOL    HW297487   2.704   5.930   8.570 -0.1273 -2.0036 -0.5793
31619SOL     OW97488   7.104   6.058   5.767 -0.0540 -0.1154 -0.1240
31619SOL    HW197489   7.009   6.061   5.783  0.0868 -0.0121  0.7914
31619SOL    HW297490   7.139   6.127   5.824  0.5428  0.0488 -0.6896
31620SOL     OW97491   8.602   4.456  10.313  0.3657 -0.3279 -0.4906
31620SOL    HW197492   8.637   4.542  10.336 -0.6438 -0.0694  0.1549
31620SOL    HW297493   8.662   4.394  10.354 -0.4799  0.1181  1.5470
31621SOL     OW97494   4.459   3.387   6.727  0.2781  0.0362  0.2472
31621SOL    HW197495   4.378   3.360   6.684  1.2502  0.2162 -1.8426
31621SOL    HW297496   4.527   3.367   6.663  2.0561 -1.2625  2.4232
31622SOL     OW97497   4.723   8.963   1.303 -0.2387  0.0250 -0.5811
31622SOL    HW197498   4.819   8.962   1.306 -0.1148  2.6208 -0.8916
31622SOL    HW297499   4.702   9.033   1.242 -2.2818  1.8818  2.0005
31623SOL     OW97500   1.272   9.699   8.134  0.1375 -0.4665  0.2234
31623SOL    HW197501   1.234   9.743   8.058 -0.7824 -0.1125  0.8621
31623SOL    HW297502   1.352   9.749   8.153 -1.8785  2.4046  2.1653
31624SOL     OW97503   7.773   6.133   2.828  0.3404  0.6880 -0.0310
31624SOL    HW197504   7.760   6.038   2.822  0.0565  0.7514 -0.4330
31624SOL    HW297505   7.835   6.144   2.900  0.9291  0.1514 -0.4449
31625SOL     OW97506   1.378   6.914   2.764 -0.4150 -0.3432  0.3911
31625SOL    HW197507   1.391   6.896   2.671  0.6286  0.0146  0.4574
31625SOL    HW297508   1.375   7.009   2.770  0.0989 -0.3426  0.7825
31626SOL     OW97509   0.905   3.645   0.280  0.2688 -0.0450  0.1002
31626SOL    HW197510   0.891   3.688   0.364  0.6466 -0.0206  0.1512
31626SOL    HW297511   0.828   3.668   0.228 -0.3845 -0.7779  0.7336
31627SOL     OW97512   3.346   4.848   7.289  0.1795 -0.4288  0.7004
31627SOL    HW197513   3.397   4.777   7.249  0.0736 -1.4102  2.2218
31627SOL    HW297514   3.395   4.871   7.368  0.8068  2.0103 -0.3211
31628SOL     OW97515   2.973   3.967   2.115  0.3582  0.0550 -0.6070
31628SOL    HW197516   2.905   3.994   2.177  0.1152 -0.6978 -0.5427
31628SOL    HW297517   2.925   3.943   2.036  0.3417 -2.2477  0.0240
31629SOL     OW97518  10.159   2.724   0.759 -0.5946  0.1217 -0.7566
31629SOL    HW197519  10.235   2.775   0.730  0.2723 -1.7773 -2.0445
31629SOL    HW297520  10.170   2.639   0.717 -2.5217 -0.8061  0.4719
31630SOL     OW97521   8.463   8.011   2.309 -0.1263 -0.2792  0.0677
31630SOL    HW197522   8.547   7.966   2.322  0.3884  0.9367  1.3224
31630SOL    HW297523   8.486   8.088   2.257 -0.4191  0.1491  0.5625
31631SOL     OW97524   4.327   9.183   6.928  0.1136 -0.0605 -0.0165
31631SOL    HW197525   4.373   9.264   6.951  1.1356 -0.7811  0.5560
31631SOL    HW297526   4.382   9.113   6.963  0.0014 -1.0747 -1.7307
31632SOL     OW97527   7.298   8.898   8.890  0.1444 -0.1438 -0.3033
31632SOL    HW197528   7.382   8.942   8.880 -0.0856  0.1054 -1.2371
31632SOL    HW297529   7.271   8.876   8.801  0.1946 -2.0984  0.1313
31633SOL     OW97530   2.495   6.724   1.324  0.2822 -0.3747  0.0388
31633SOL    HW197531   2.432   6.691   1.388  0.0495  0.1885  0.1084
31633SOL    HW297532   2.444   6.731   1.242 -0.2506  1.6920  0.4745
31634SOL     OW97533   1.881   8.780   7.099  0.3923  0.0233 -0.6420
31634SOL    HW197534   1.895   8.868   7.133  1.6146 -0.7841  1.1442
31634SOL    HW297535   1.787   8.774   7.083  0.2486  1.5277 -0.4611
31635SOL     OW97536   4.544   5.248   9.370  0.4291 -0.1449 -0.5480
31635SOL    HW197537   4.614   5.287   9.318 -0.0186  0.5489 -0.6460
31635SOL    HW297538   4.523   5.315   9.435 -0.2154 -0.3041 -0.5913
31636SOL     OW97539   8.977   8.958   5.171  0.3108  0.0423  0.3824
31636SOL    HW197540   9.071   8.940   5.176 -0.0566 -1.7902  1.8531
31636SOL    HW297541   8.956   8.948   5.078  0.9164 -3.8227  0.4811
31637SOL     OW97542   6.246   8.838   3.175  0.6927  0.1990  0.1680
31637SOL    HW197543   6.331   8.882   3.166  0.5092  0.3788 -0.8193
31637SOL    HW297544   6.186   8.892   3.123  0.4273 -1.1246 -0.9521
31638SOL     OW97545   1.279   6.488   2.558  0.3357  0.1487  0.8143
31638SOL    HW197546   1.371   6.482   2.584  0.4260 -0.6230  0.3564
31638SOL    HW297547   1.282   6.523   2.469  0.3175 -1.7810  0.0229
31639SOL     OW97548  10.305   6.301   0.382 -0.4841  0.1181  0.0479
31639SOL    HW197549  10.228   6.324   0.433 -1.8655  0.1797 -1.9559
31639SOL    HW297550  10.277   6.308   0.291  1.3957 -1.5675 -0.7386
31640SOL     OW97551   2.395   2.738   9.327  0.0175 -0.0872  0.0610
31640SOL    HW197552   2.336   2.799   9.283 -1.2249 -0.3098  1.3720
31640SOL    HW297553   2.406   2.666   9.264 -2.1930 -0.6890  0.2763
31641SOL     OW97554   9.150   2.385   2.463  0.5691 -0.3318 -0.0571
31641SOL    HW197555   9.191   2.395   2.377  0.8150  0.3748  0.1404
31641SOL    HW297556   9.130   2.291   2.469  0.4393 -0.3662 -0.9309
31642SOL     OW97557   9.078   3.191   1.112  0.2970 -0.5148  0.3704
31642SOL    HW197558   9.052   3.283   1.116 -1.1607 -0.9031  0.3098
31642SOL    HW297559   9.173   3.193   1.106  0.2688  1.2242 -5.9447
31643SOL     OW97560   0.359   8.345   3.189  0.2862 -0.2385  0.0985
31643SOL    HW197561   0.349   8.436   3.163  1.5986 -0.3474 -0.8753
31643SOL    HW297562   0.281   8.302   3.155 -0.3191  0.4915  0.5246
31644SOL     OW97563   1.984   5.604   6.065  0.0182  0.6474 -0.1385
31644SOL    HW197564   1.967   5.573   6.154 -1.1605  0.9816 -0.2260
31644SOL    HW297565   1.916   5.563   6.012  0.8650  0.2565 -0.9365
31645SOL     OW97566   9.159   9.254   1.769  0.1608  0.3414  0.3417
31645SOL    HW197567   9.159   9.291   1.858 -0.7446  0.3244  0.3630
31645SOL    HW297568   9.205   9.171   1.778  0.9861  0.8173  0.5811
31646SOL     OW97569   3.126   2.021   1.806  0.0886  0.5662  0.2046
31646SOL    HW197570   3.150   1.943   1.755 -1.6913  0.8878 -1.2151
31646SOL    HW297571   3.094   1.985   1.889  3.4982  0.0606  1.4840
31647SOL     OW97572   7.611  10.005   8.082  0.7717 -0.5079  0.2652
31647SOL    HW197573   7.594  10.098   8.066  2.4961 -0.4580 -1.7455
31647SOL    HW297574   7.606   9.996   8.177  1.7848  1.9226  0.6378
31648SOL     OW97575   6.122   6.346   2.756 -0.4079 -0.0492  0.1287
31648SOL    HW197576   6.119   6.368   2.849 -1.1293  1.1024 -0.1438
31648SOL    HW297577   6.206   6.381   2.726 -1.1779  1.7122 -0.1172
31649SOL     OW97578   0.772   0.969   9.152 -0.3777  0.9528 -0.1015
31649SOL    HW197579   0.860   0.997   9.176  0.1504 -0.4571 -0.2800
31649SOL    HW297580   0.734   1.045   9.107  0.3588  1.9302  0.8687
31650SOL     OW97581   4.531   9.744   5.241 -0.3425 -0.0100  0.2414
31650SOL    HW197582   4.502   9.835   5.255  2.8475  0.8737  2.0749
31650SOL    HW297583   4.583   9.748   5.161  2.0895  0.5120  1.7470
31651SOL     OW97584   4.158   8.059  10.105 -0.2277 -0.0916  0.3030
31651SOL    HW197585   4.233   8.012  10.067 -0.4452 -1.9141  1.9884
31651SOL    HW297586   4.153   8.140  10.054  4.4718  1.3877  1.6875
31652SOL     OW97587   9.934   2.290   5.412 -0.6209  0.6825  0.3177
31652SOL    HW197588   9.845   2.284   5.377 -0.6639  0.5875  0.4406
31652SOL    HW297589   9.921   2.295   5.507 -0.4669  0.0056  0.3789
31653SOL     OW97590  10.073   4.181   5.779  0.5042 -0.4196  0.0048
31653SOL    HW197591  10.131   4.162   5.705  1.1510  2.8446 -0.4717
31653SOL    HW297592  10.007   4.241   5.744  0.8445  1.2584  1.9902
31654SOL     OW97593   4.441   0.992   7.058 -0.1640  0.1655 -0.2424
31654SOL    HW197594   4.386   1.059   7.018  0.7734  1.3960  0.4692
31654SOL    HW297595   4.391   0.911   7.048 -0.7414  0.7120 -2.2895
31655SOL     OW97596   1.126   1.637   9.508  0.9237 -0.5922  0.2881
31655SOL    HW197597   1.093   1.554   9.475  1.2897 -0.0715 -1.5138
31655SOL    HW297598   1.121   1.697   9.433  3.0637  0.3233  0.7785
31656SOL     OW97599   2.151   9.536   9.009  0.1391  0.0934  0.1375
31656SOL    HW197600   2.195   9.602   9.063 -1.1593 -1.1164  2.8377
31656SOL    HW297601   2.157   9.455   9.059 -1.7364 -0.9838 -1.2318
31657SOL     OW97602   0.826   3.968   1.341 -0.3994 -0.2176  0.3256
31657SOL    HW197603   0.748   3.996   1.294  0.1745  2.5605  0.7918
31657SOL    HW297604   0.861   3.895   1.291 -2.4682 -0.5650 -0.6998
31658SOL     OW97605   3.255   9.970   3.776 -0.1334  0.3531  0.4537
31658SOL    HW197606   3.247   9.992   3.869 -1.4315  1.0650  0.2138
31658SOL    HW297607   3.280  10.053   3.734 -1.1227  0.4476  0.0046
31659SOL     OW97608   1.093   4.643   6.705 -0.3866  0.3515  0.4817
31659SOL    HW197609   1.179   4.654   6.664 -1.0580 -1.5107 -1.5952
31659SOL    HW297610   1.112   4.608   6.792  0.9673 -1.4091 -0.4697
31660SOL     OW97611   4.517   0.388   0.976 -0.0879  0.1709 -0.1601
31660SOL    HW197612   4.608   0.395   1.004 -0.2067  0.5685  0.1360
31660SOL    HW297613   4.465   0.415   1.052 -0.3958  1.7795 -0.8899
31661SOL     OW97614   6.989   1.154   8.735 -0.4787 -0.1582  0.6828
31661SOL    HW197615   7.079   1.180   8.716 -0.1777 -1.9561 -0.6143
31661SOL    HW297616   6.977   1.175   8.827  0.4832  2.1794  0.3514
31662SOL     OW97617   8.185   4.896   5.972  0.5417 -0.1866  0.5891
31662SOL    HW197618   8.102   4.945   5.968  0.6641 -0.0871 -1.9104
31662SOL    HW297619   8.247   4.958   6.010 -0.1576  0.2845  1.0017
31663SOL     OW97620   2.775   9.033   4.759  0.3070 -0.1752 -0.0945
31663SOL    HW197621   2.805   9.124   4.764 -0.6981  0.1166  2.1622
31663SOL    HW297622   2.710   9.033   4.689 -0.7039  1.2163  0.7810
31664SOL     OW97623   0.759   1.933   7.687  0.4538 -0.1810 -0.0885
31664SOL    HW197624   0.796   1.949   7.600  0.9818 -0.2766  0.1156
31664SOL    HW297625   0.713   2.014   7.709 -2.6154 -1.2422 -1.8635
31665SOL     OW97626   7.375   8.810   8.216 -0.0898 -0.3791 -0.0204
31665SOL    HW197627   7.427   8.759   8.154 -2.3772 -0.7062 -1.7524
31665SOL    HW297628   7.364   8.895   8.174  0.4526  0.2947  1.1350
31666SOL     OW97629   4.938   3.014   7.380 -0.1625  0.3425 -0.3372
31666SOL    HW197630   4.923   2.924   7.351  0.6838  0.3473 -0.8275
31666SOL    HW297631   4.857   3.059   7.360 -2.0196 -1.0710  3.1797
31667SOL     OW97632   6.094   9.188   5.006  0.0534  0.2868  0.3699
31667SOL    HW197633   6.108   9.112   5.061 -1.5007 -0.7013 -0.5042
31667SOL    HW297634   6.096   9.263   5.066 -1.3487 -0.7196  1.7527
31668SOL     OW97635   6.915   2.746   2.674 -0.2938  0.2917 -0.6902
31668SOL    HW197636   6.854   2.811   2.640 -0.2899 -0.6704 -2.6737
31668SOL    HW297637   6.996   2.762   2.627 -0.2438 -1.0229 -1.0742
31669SOL     OW97638   1.415   5.728   2.802  0.0187  0.0540 -0.1007
31669SOL    HW197639   1.368   5.807   2.828 -0.0870  0.5088 -1.5825
31669SOL    HW297640   1.350   5.658   2.807  0.3530 -0.1562  2.1471
31670SOL     OW97641   2.348   8.395   1.890  0.3289  0.0121  0.0464
31670SOL    HW197642   2.440   8.410   1.914  0.2068  0.8077  0.0392
31670SOL    HW297643   2.313   8.483   1.874  0.1172 -0.3838 -2.0040
31671SOL     OW97644   7.693   7.393   9.533 -0.2279 -0.0997  0.8873
31671SOL    HW197645   7.731   7.406   9.619  0.5566  0.7919  0.4189
31671SOL    HW297646   7.601   7.370   9.551  0.2574 -1.3215  1.9861
31672SOL     OW97647   2.662   4.045   8.719  0.3370  0.2398  0.2960
31672SOL    HW197648   2.607   4.119   8.744 -1.5116 -1.0449  0.2378
31672SOL    HW297649   2.751   4.079   8.722 -0.4550  2.4585  0.2160
31673SOL     OW97650   0.525   3.961   6.846 -0.3165  0.5405 -0.4445
31673SOL    HW197651   0.528   4.050   6.812 -0.2128  0.4528 -0.6716
31673SOL    HW297652   0.446   3.923   6.807  0.5454 -0.0082 -1.7407
31674SOL     OW97653   5.264   2.585   2.769  0.3606 -0.3885  0.6699
31674SOL    HW197654   5.212   2.664   2.756  0.9637 -0.2258 -0.9695
31674SOL    HW297655   5.337   2.612   2.825 -0.6442 -0.3473  2.0031
31675SOL     OW97656   6.205   5.260  10.038  0.2187  0.6330 -0.3779
31675SOL    HW197657   6.260   5.268  10.115 -0.7795 -0.7771  0.5301
31675SOL    HW297658   6.127   5.311  10.059 -0.6993 -0.9336  0.2194
31676SOL     OW97659   7.022   3.403   3.585  0.0167  0.1067 -0.4985
31676SOL    HW197660   6.994   3.327   3.534  0.3565 -1.1633  1.1075
31676SOL    HW297661   6.967   3.400   3.664  0.3521  1.2713 -0.1927
31677SOL     OW97662   7.995   7.459   5.486  0.1512  0.0658 -0.9688
31677SOL    HW197663   7.972   7.370   5.512 -0.8771  0.5468 -0.1506
31677SOL    HW297664   8.012   7.504   5.569  1.8834  0.3326 -1.4347
31678SOL     OW97665   3.389   6.336   5.720 -0.2739  0.0975 -0.2396
31678SOL    HW197666   3.443   6.339   5.641  0.9215 -0.1227  0.5414
31678SOL    HW297667   3.306   6.376   5.694 -0.4946 -1.4084 -2.0430
31679SOL     OW97668   7.243   5.270   4.913  0.1283  0.1122  0.2148
31679SOL    HW197669   7.171   5.278   4.850  0.0241 -0.3729  0.2724
31679SOL    HW297670   7.264   5.361   4.935  0.8222  0.3419 -1.2537
31680SOL     OW97671   3.055   0.314   1.011  0.2763 -0.4247  0.4280
31680SOL    HW197672   3.082   0.233   1.053 -0.1531 -0.8473 -0.1080
31680SOL    HW297673   2.991   0.352   1.071  1.1036 -0.0413  1.0966
31681SOL     OW97674   8.406   2.779   0.667  0.0774 -0.3512  0.5731
31681SOL    HW197675   8.352   2.746   0.595 -0.4354  0.5715  0.5216
31681SOL    HW297676   8.492   2.795   0.627 -0.1287 -0.0948  0.2334
31682SOL     OW97677   6.788   7.786   3.844  0.6348  0.2809  0.3668
31682SOL    HW197678   6.858   7.849   3.823  0.9328 -0.0735  0.2846
31682SOL    HW297679   6.754   7.816   3.928  1.4991 -0.0576  0.8589
31683SOL     OW97680   5.693   1.312   0.599 -0.2332 -0.4217 -0.2159
31683SOL    HW197681   5.775   1.273   0.630 -0.5675 -0.2212  0.9444
31683SOL    HW297682   5.712   1.336   0.508  0.6415 -1.3771 -0.3130
31684SOL     OW97683   9.756   6.850   4.113  0.1246  0.9291 -0.4286
31684SOL    HW197684   9.806   6.768   4.112  0.6903  1.2784 -1.0508
31684SOL    HW297685   9.665   6.822   4.102  0.4290  0.4509 -1.9401
31685SOL     OW97686   1.070   1.399   3.371  0.1349 -0.4453  0.6366
31685SOL    HW197687   1.088   1.306   3.357  0.5023 -0.4937  1.3461
31685SOL    HW297688   1.156   1.441   3.360 -0.2426 -0.0170 -0.9169
31686SOL     OW97689   8.576  10.340   6.294 -0.4230  0.0730 -0.3971
31686SOL    HW197690   8.543  10.424   6.325 -0.9446 -0.1410 -0.3728
31686SOL    HW297691   8.668  10.338   6.323 -1.3542 -0.9295  2.9002
31687SOL     OW97692   5.493   2.536   4.429  0.0080 -0.3207  0.0478
31687SOL    HW197693   5.450   2.619   4.411  0.3868  0.0036  0.6190
31687SOL    HW297694   5.587   2.557   4.430  0.1353 -0.8455 -0.2768
31688SOL     OW97695   0.737   6.198   4.757 -0.5774  0.2380 -0.3009
31688SOL    HW197696   0.820   6.178   4.800  0.1665 -0.0172 -1.7772
31688SOL    HW297697   0.763   6.237   4.673 -1.9386  3.4114  0.5887
31689SOL     OW97698   6.107   8.784   9.702  0.0506  0.2582  0.6967
31689SOL    HW197699   6.193   8.806   9.738  1.2180 -1.4793 -0.8657
31689SOL    HW297700   6.116   8.694   9.670 -1.5463  0.9014 -1.8751
31690SOL     OW97701   6.510   7.585   7.132  0.0965 -0.0562  0.0909
31690SOL    HW197702   6.568   7.582   7.208  0.6202 -2.5167 -0.3186
31690SOL    HW297703   6.515   7.497   7.094 -2.2795  0.2700 -1.2075
31691SOL     OW97704   7.419   3.144   2.685 -0.2814  0.3213  0.0244
31691SOL    HW197705   7.474   3.202   2.737  0.8271 -0.5738 -0.1146
31691SOL    HW297706   7.375   3.088   2.749 -0.5435  0.6026  0.0963
31692SOL     OW97707   1.128   3.475   0.281 -0.2384  0.2309 -0.3349
31692SOL    HW197708   1.143   3.464   0.375  1.2323 -0.4622 -0.6208
31692SOL    HW297709   1.103   3.566   0.271  2.0434  1.0347  0.4954
31693SOL     OW97710  10.146   5.443   0.353 -0.0987 -0.9344  0.2098
31693SOL    HW197711  10.110   5.429   0.441  0.5671 -0.6070  0.5406
31693SOL    HW297712  10.233   5.403   0.356  0.3463 -0.0032  0.0273
31694SOL     OW97713   7.077   9.590   1.484  0.3488  0.3946  0.1626
31694SOL    HW197714   7.074   9.635   1.568 -1.7724  0.4882  0.0925
31694SOL    HW297715   6.992   9.545   1.477  0.3692  0.5563 -1.9946
31695SOL     OW97716   4.977   8.319   8.877 -0.3372  0.1534  0.1378
31695SOL    HW197717   4.957   8.406   8.843  0.0444  0.4598  0.6776
31695SOL    HW297718   4.987   8.332   8.972 -1.5625 -0.7064  0.4097
31696SOL     OW97719   8.924   7.969   3.240 -0.5529  0.3665 -0.2138
31696SOL    HW197720   8.902   7.932   3.155 -0.4018  0.5698 -0.3415
31696SOL    HW297721   8.863   8.042   3.251 -1.8405 -0.7903  0.6778
31697SOL     OW97722   4.678   7.129   0.767  0.1823 -0.0531 -0.3186
31697SOL    HW197723   4.651   7.135   0.859  0.5502 -0.1119 -0.2085
31697SOL    HW297724   4.762   7.084   0.769 -0.4914 -1.3903 -0.8093
31698SOL     OW97725   1.962   9.851   1.876 -0.5239 -0.5261 -0.0785
31698SOL    HW197726   1.946   9.942   1.902  0.2971 -0.7250  1.2083
31698SOL    HW297727   2.025   9.818   1.940  0.9672 -1.3404 -1.8608
31699SOL     OW97728   5.595   9.772   4.702 -0.8356  0.4773 -0.4728
31699SOL    HW197729   5.598   9.780   4.797  0.4690 -0.7144 -0.3823
31699SOL    HW297730   5.512   9.728   4.684 -2.2612  2.8414 -0.1195
31700SOL     OW97731   7.812   9.831   1.250  0.2567  0.3537 -0.6958
31700SOL    HW197732   7.813   9.905   1.189  4.2535  0.8746 -0.2833
31700SOL    HW297733   7.805   9.871   1.336  0.0255  0.0694 -0.5823
31701SOL     OW97734   9.098   3.831   7.695  0.6031 -0.7428 -0.6953
31701SOL    HW197735   9.170   3.769   7.686 -0.6116 -2.1117 -1.2470
31701SOL    HW297736   9.042   3.794   7.763 -0.2074 -0.3159 -1.1173
31702SOL     OW97737   8.148   1.678   9.879  0.1980  0.5164  0.0520
31702SOL    HW197738   8.127   1.674   9.972 -0.1411  1.6304  0.0414
31702SOL    HW297739   8.092   1.612   9.838 -1.9512  2.1018  0.2783
31703SOL     OW97740   2.581   9.238   8.567 -0.1556  0.4639  0.5923
31703SOL    HW197741   2.670   9.237   8.531 -0.9417 -0.0198 -1.4807
31703SOL    HW297742   2.569   9.150   8.603 -1.0111 -0.9020 -2.5987
31704SOL     OW97743   1.292   5.342   7.926 -0.4687  0.3656  0.2583
31704SOL    HW197744   1.369   5.300   7.887  0.0106  1.7680 -0.3972
31704SOL    HW297745   1.223   5.329   7.861 -0.8157 -0.9058  0.8527
31705SOL     OW97746   5.298   8.819   6.730 -0.4485  0.3366  0.2291
31705SOL    HW197747   5.264   8.905   6.704 -0.5913  0.1535 -0.2035
31705SOL    HW297748   5.379   8.809   6.681 -1.2449 -0.4582 -0.9895
31706SOL     OW97749   0.340   6.622   9.612  0.6866  0.2441  0.2486
31706SOL    HW197750   0.301   6.536   9.622 -0.8772  0.8681 -0.1424
31706SOL    HW297751   0.309   6.672   9.687  1.1454  0.6176  0.1957
31707SOL     OW97752   0.801   4.482   6.417 -0.2580  0.2993 -0.2138
31707SOL    HW197753   0.840   4.530   6.491  1.6313  0.7898 -1.4458
31707SOL    HW297754   0.814   4.390   6.439 -2.7444  0.2655  1.5650
31708SOL     OW97755   5.203   0.361   7.605  0.8375 -0.1106 -0.4783
31708SOL    HW197756   5.230   0.384   7.516  1.6499  0.0484 -0.1914
31708SOL    HW297757   5.114   0.396   7.612  1.5527  1.8588 -0.5114
31709SOL     OW97758   6.972   9.493   2.799 -0.0480 -0.1960 -0.2619
31709SOL    HW197759   7.057   9.462   2.766  1.0653  1.3053  1.0035
31709SOL    HW297760   6.963   9.581   2.763 -0.9882 -0.2628 -0.2172
31710SOL     OW97761   1.765   8.838   9.117  0.4691  0.1964  0.2099
31710SOL    HW197762   1.693   8.863   9.058  0.1627 -2.0188 -0.4523
31710SOL    HW297763   1.834   8.806   9.059  1.0386  0.0525  0.9518
31711SOL     OW97764   6.657   1.070   8.200 -0.1260  0.0955  0.4806
31711SOL    HW197765   6.654   1.004   8.269 -0.3857  0.1158  0.4893
31711SOL    HW297766   6.594   1.137   8.228 -0.1480  0.1578  0.2813
31712SOL     OW97767   4.485   6.347   4.981  0.0966 -0.1523  0.6752
31712SOL    HW197768   4.393   6.330   5.001  0.3931 -0.4855  1.8442
31712SOL    HW297769   4.525   6.260   4.974 -0.4667 -0.3051 -4.3337
31713SOL     OW97770   5.090   2.123   6.084 -0.4061 -0.3081 -0.2454
31713SOL    HW197771   5.182   2.137   6.105 -1.2143  1.1558  3.0823
31713SOL    HW297772   5.072   2.034   6.114 -0.4288  0.0435  0.8370
31714SOL     OW97773   2.180   2.796   8.219 -0.4746 -0.1319 -0.0803
31714SOL    HW197774   2.103   2.827   8.267 -2.8651 -0.8264 -3.0736
31714SOL    HW297775   2.149   2.788   8.128  3.3882  0.2215 -1.6277
31715SOL     OW97776   5.445   8.915   1.448 -0.1926  0.2734 -0.3800
31715SOL    HW197777   5.402   8.952   1.526  0.4548 -1.4993  0.8921
31715SOL    HW297778   5.420   8.973   1.377 -0.3632  2.2994  1.2435
31716SOL     OW97779   1.090   8.250   5.029  0.0795  0.5437 -0.2350
31716SOL    HW197780   1.084   8.191   5.104 -0.5841 -0.8580 -1.3466
31716SOL    HW297781   1.183   8.254   5.009  0.0666 -0.7819 -0.6287
31717SOL     OW97782   5.905   0.082   0.249 -0.5395  0.2956 -0.1547
31717SOL    HW197783   5.821   0.039   0.236 -1.7563  2.5513 -0.3540
31717SOL    HW297784   5.961   0.048   0.179 -1.0010 -1.7893  0.4348
31718SOL     OW97785   7.719   9.677   2.243  0.3727  0.1164  0.1160
31718SOL    HW197786   7.682   9.741   2.305  0.3557 -1.1168  1.4230
31718SOL    HW297787   7.813   9.689   2.250  0.3411  1.1226 -0.8993
31719SOL     OW97788   7.554   2.036   1.721  0.0816  0.0345  0.2677
31719SOL    HW197789   7.469   2.032   1.677  0.1417  0.7123  0.0806
31719SOL    HW297790   7.546   2.110   1.781 -0.2299 -1.2787  1.9118
31720SOL     OW97791   6.336   2.536   4.195 -0.5698  0.0788 -0.1584
31720SOL    HW197792   6.284   2.598   4.145  0.1907  0.3814 -0.5842
31720SOL    HW297793   6.389   2.491   4.130  0.1321  0.1980  0.3196
31721SOL     OW97794   0.835   4.413   7.819 -0.0070  0.3773  0.8267
31721SOL    HW197795   0.808   4.428   7.910  0.1338  0.5737  0.8378
31721SOL    HW297796   0.826   4.499   7.777  0.4258  0.4030  0.7868
31722SOL     OW97797   1.932   3.255   5.918 -0.1966  0.0269  0.4528
31722SOL    HW197798   1.877   3.276   5.994  0.6083 -0.0985  1.0754
31722SOL    HW297799   1.870   3.251   5.845 -1.1653 -1.0281  1.2934
31723SOL     OW97800   8.689   6.613   6.729  0.7056  0.0805  0.0647
31723SOL    HW197801   8.602   6.622   6.690  0.9659 -0.3708 -0.6380
31723SOL    HW297802   8.672   6.601   6.823  0.0463  0.5885  0.0184
31724SOL     OW97803   1.967   4.505   0.020 -0.2329  0.2591 -0.0761
31724SOL    HW197804   2.046   4.452   0.032 -0.7080 -0.1625  1.4292
31724SOL    HW297805   1.897   4.441   0.005 -0.7594  0.4341  1.4532
31725SOL     OW97806   3.487   2.942   0.645 -0.0130 -0.1971  0.2449
31725SOL    HW197807   3.412   2.960   0.588  0.0222  0.0192  0.2676
31725SOL    HW297808   3.463   2.981   0.729 -0.0514 -0.4876  0.3711
31726SOL     OW97809   6.575   4.674  10.023  0.2339  0.0231 -0.1634
31726SOL    HW197810   6.613   4.616  10.088 -1.2660  0.0436  0.7645
31726SOL    HW297811   6.650   4.704   9.971  1.4682  0.0340  1.5530
31727SOL     OW97812   6.315   5.492   0.337 -0.1763 -0.4082  0.1697
31727SOL    HW197813   6.264   5.572   0.351  1.6015  0.8731 -0.2697
31727SOL    HW297814   6.252   5.430   0.300 -1.4224  1.0812 -0.3368
31728SOL     OW97815   8.385   6.277   7.920  0.5683  0.1748 -0.0655
31728SOL    HW197816   8.425   6.259   7.835  1.4082  0.1148  0.3404
31728SOL    HW297817   8.411   6.367   7.941  2.0880 -0.4927  1.0640
31729SOL     OW97818   0.303   4.124   9.028 -0.9177 -0.2434  0.2327
31729SOL    HW197819   0.377   4.177   8.996  0.1422 -1.7165  0.1238
31729SOL    HW297820   0.261   4.179   9.094  1.6881 -0.2158  2.0117
31730SOL     OW97821   6.099   9.894   0.802  1.0368  0.1104  0.6140
31730SOL    HW197822   6.010   9.916   0.772  0.9619  0.9186  1.3911
31730SOL    HW297823   6.121   9.963   0.865  1.3764 -1.2409  2.0537
31731SOL     OW97824   0.781   4.583   4.833 -0.0012  0.3925 -0.6115
31731SOL    HW197825   0.775   4.490   4.812 -1.1182  0.5206 -0.9523
31731SOL    HW297826   0.875   4.600   4.842  0.2335 -0.6856 -0.8841
31732SOL     OW97827   1.938   3.681   8.349 -0.2613 -0.1222 -0.4895
31732SOL    HW197828   1.912   3.603   8.300  0.3327 -1.3361  1.0313
31732SOL    HW297829   2.010   3.718   8.298  0.9926 -1.8998 -0.1227
31733SOL     OW97830   3.224   7.280   7.312 -0.1169  0.5373 -0.0434
31733SOL    HW197831   3.201   7.202   7.362  0.5143  0.7313  0.5701
31733SOL    HW297832   3.142   7.328   7.302 -0.1134  0.9120  1.5513
31734SOL     OW97833   6.327   0.579   1.332 -0.2014 -0.2722 -0.5824
31734SOL    HW197834   6.358   0.629   1.407 -1.0223 -1.4704  0.5824
31734SOL    HW297835   6.402   0.525   1.306 -0.2632 -0.7221  0.1376
31735SOL     OW97836   5.402   3.610   2.573 -0.4105  0.1727  0.0479
31735SOL    HW197837   5.492   3.610   2.542  0.3498  1.8621  1.9629
31735SOL    HW297838   5.372   3.520   2.563  1.5644 -0.4711 -0.4286
31736SOL     OW97839   4.074   9.739   1.210  0.4151  0.1983 -0.2512
31736SOL    HW197840   4.038   9.668   1.156  2.2796 -0.6504 -0.4522
31736SOL    HW297841   4.001   9.766   1.266 -0.3247 -2.0384 -0.0330
31737SOL     OW97842   4.135   5.470   3.455 -0.2488  0.0297 -0.4790
31737SOL    HW197843   4.194   5.411   3.408 -0.1139 -0.1822 -0.0456
31737SOL    HW297844   4.180   5.490   3.536  0.5095  2.1479 -1.3482
31738SOL     OW97845   4.141   5.512   0.368 -0.6056 -0.2279  0.5014
31738SOL    HW197846   4.145   5.504   0.273 -1.3913 -0.7108  0.5044
31738SOL    HW297847   4.058   5.556   0.385 -0.4604 -0.1292  0.9677
31739SOL     OW97848   8.913   3.665   2.749 -0.0043 -0.0281  0.3800
31739SOL    HW197849   8.988   3.676   2.690  0.9638 -3.1616  0.8463
31739SOL    HW297850   8.904   3.750   2.792  2.5353  0.8233 -0.5645
31740SOL     OW97851   2.667   1.160   5.429 -0.0896 -0.0130  0.1805
31740SOL    HW197852   2.575   1.177   5.409 -0.0139 -1.8789 -2.1748
31740SOL    HW297853   2.715   1.209   5.363  0.6009  0.4813  1.0408
31741SOL     OW97854   7.481   1.348   2.212 -0.2999 -0.4868  0.0832
31741SOL    HW197855   7.483   1.289   2.137  2.5269 -3.1042  1.9502
31741SOL    HW297856   7.453   1.293   2.285 -0.0511  1.1487  1.4862
31742SOL     OW97857   6.713   3.771   5.530 -0.0516  0.1002 -0.5575
31742SOL    HW197858   6.679   3.763   5.619  0.6628 -1.9815 -0.4251
31742SOL    HW297859   6.670   3.700   5.481  1.5495 -0.4648 -1.2023
31743SOL     OW97860   6.867   1.555   5.971  0.3115 -0.4565 -0.2125
31743SOL    HW197861   6.908   1.625   5.919  0.0140 -0.5988 -0.6481
31743SOL    HW297862   6.932   1.485   5.972  1.1294  0.2923  1.2962
31744SOL     OW97863   7.632   1.958  10.236  0.3254 -0.2671 -0.1572
31744SOL    HW197864   7.652   1.939  10.144  0.2294 -0.2769 -0.1768
31744SOL    HW297865   7.539   1.983  10.235  0.4761  0.2973 -0.1457
31745SOL     OW97866   8.276   7.976   3.906  0.2151 -0.9531  0.3515
31745SOL    HW197867   8.237   7.977   3.994  0.8383 -1.1406  0.6360
31745SOL    HW297868   8.202   7.991   3.847 -0.3441 -1.6148  0.8575
31746SOL     OW97869   2.157   5.710   8.895  0.1830 -0.4912 -0.2167
31746SOL    HW197870   2.116   5.659   8.965  0.7545 -2.5026 -1.2638
31746SOL    HW297871   2.092   5.776   8.873 -1.1528 -1.5646  0.3424
31747SOL     OW97872   4.643   1.254   8.660 -0.0848  0.2712 -0.1844
31747SOL    HW197873   4.677   1.330   8.612 -0.9270  0.8223  0.0573
31747SOL    HW297874   4.650   1.278   8.752 -0.1428 -0.0421 -0.0972
31748SOL     OW97875   9.560   8.540   2.013  0.2493  0.0589 -0.2088
31748SOL    HW197876   9.590   8.594   1.940 -0.8830  0.4130 -0.4276
31748SOL    HW297877   9.583   8.592   2.091  0.6246  0.1051 -0.3468
31749SOL     OW97878   4.124   8.078   0.836  0.1786  0.3990 -0.4435
31749SOL    HW197879   4.032   8.061   0.816  0.4417  0.4204 -1.7306
31749SOL    HW297880   4.171   8.002   0.803  0.4853 -0.5333  1.9076
31750SOL     OW97881   9.380   0.430   0.317  0.1690 -0.4070  0.4794
31750SOL    HW197882   9.429   0.487   0.376  3.7688 -1.0563 -1.5804
31750SOL    HW297883   9.370   0.348   0.367  1.7777 -0.4477  0.7946
31751SOL     OW97884   5.160   2.760   1.329 -0.3074  0.0890 -0.0985
31751SOL    HW197885   5.239   2.714   1.303 -1.2558 -0.5486 -2.0078
31751SOL    HW297886   5.173   2.851   1.300 -0.2340  0.0120 -0.3024
31752SOL     OW97887   8.694   1.499   0.405 -0.9533  0.1407 -0.3604
31752SOL    HW197888   8.681   1.513   0.498 -0.1118 -1.1219 -0.0300
31752SOL    HW297889   8.754   1.568   0.378 -1.9975  1.1434 -0.2172
31753SOL     OW97890   2.132   4.217  10.047 -0.2708 -0.6258 -0.4844
31753SOL    HW197891   2.163   4.193  10.135 -0.6493  0.1335 -0.1309
31753SOL    HW297892   2.181   4.297  10.026  0.8045 -1.5142 -1.5403
31754SOL     OW97893   9.055   9.137   4.492  0.2426 -0.4781 -0.2618
31754SOL    HW197894   9.099   9.222   4.491  0.4101 -0.5491  0.4126
31754SOL    HW297895   9.026   9.126   4.583 -1.0032 -0.5217 -0.6381
31755SOL     OW97896   1.609   2.227   8.529 -0.0796  0.1525 -0.1286
31755SOL    HW197897   1.632   2.320   8.530 -0.3294  0.2208 -0.4471
31755SOL    HW297898   1.523   2.224   8.486  0.6558 -0.3840 -1.6408
31756SOL     OW97899   1.119   9.155   8.877 -0.3464 -0.8440  0.6340
31756SOL    HW197900   1.128   9.088   8.945 -1.5729 -1.6467  0.0405
31756SOL    HW297901   1.150   9.235   8.919  0.3552 -1.6061  1.6402
31757SOL     OW97902   7.408   0.310   4.884 -0.5343  0.0439 -0.4156
31757SOL    HW197903   7.376   0.384   4.832  0.4644  0.2431 -0.7731
31757SOL    HW297904   7.436   0.349   4.966  0.2315  0.1047 -0.7029
31758SOL     OW97905   8.201   7.855   6.228  0.2993  0.2637 -0.3887
31758SOL    HW197906   8.281   7.907   6.240 -0.2925  1.5156 -1.6755
31758SOL    HW297907   8.164   7.887   6.146 -1.4435 -0.4315  0.0973
31759SOL     OW97908   1.414   4.370   9.738 -0.0272  0.5376 -0.4709
31759SOL    HW197909   1.439   4.452   9.780  0.7163 -0.0989  0.3930
31759SOL    HW297910   1.358   4.395   9.665  0.6471  1.8381 -0.5644
31760SOL     OW97911   6.684   4.645   8.801  0.6732 -0.0205 -0.4720
31760SOL    HW197912   6.602   4.640   8.850  0.7041 -0.0077 -0.4189
31760SOL    HW297913   6.745   4.687   8.862  0.9931 -0.9242 -0.1393
31761SOL     OW97914   4.386   3.491   4.909 -0.7703  0.1321  0.7489
31761SOL    HW197915   4.433   3.448   4.838 -0.1240  3.0270 -0.6983
31761SOL    HW297916   4.295   3.461   4.900 -0.0470 -2.5013  1.1938
31762SOL     OW97917   0.721   3.310   3.013 -0.8143  0.4217 -0.7412
31762SOL    HW197918   0.731   3.369   2.938  1.9325  0.3727 -0.5159
31762SOL    HW297919   0.765   3.355   3.085 -0.2942 -1.0364 -0.0951
31763SOL     OW97920   2.669   5.719   1.958  0.1629 -0.0664 -0.2021
31763SOL    HW197921   2.599   5.716   2.023  0.0136  1.5008 -0.2437
31763SOL    HW297922   2.724   5.644   1.979 -1.5188 -1.3713 -0.1884
31764SOL     OW97923   7.664   7.586   4.608  0.2395 -0.4247 -0.1986
31764SOL    HW197924   7.653   7.656   4.544  1.6103  0.0742  0.0718
31764SOL    HW297925   7.741   7.612   4.658 -0.0191 -1.4751  0.7783
31765SOL     OW97926   5.451   2.395   8.108 -0.2031 -0.3965  0.1021
31765SOL    HW197927   5.479   2.377   8.018  0.2224 -1.7138  0.4728
31765SOL    HW297928   5.394   2.472   8.100  0.4826  0.0286 -1.1746
31766SOL     OW97929   4.665   2.075   7.629  0.1735 -0.4615  0.0774
31766SOL    HW197930   4.719   2.065   7.707 -0.8479 -0.8202  0.7499
31766SOL    HW297931   4.591   2.129   7.657  0.7588  1.0383 -1.1311
31767SOL     OW97932   8.017   7.609   7.033 -0.7062 -0.2316  0.0469
31767SOL    HW197933   7.959   7.664   6.981 -0.1398  0.0560 -0.2953
31767SOL    HW297934   8.039   7.536   6.975  0.1438  0.2298 -0.2394
31768SOL     OW97935   1.279   0.968   6.389 -0.2798 -0.6410 -0.1523
31768SOL    HW197936   1.356   1.021   6.410 -0.6679 -0.4408  0.8262
31768SOL    HW297937   1.208   1.009   6.438 -1.3876  0.1942 -2.3266
31769SOL     OW97938   3.641   3.304   0.262 -0.7706  0.1342  0.6263
31769SOL    HW197939   3.685   3.223   0.289 -0.1879  0.1644 -0.1745
31769SOL    HW297940   3.615   3.346   0.344 -0.3500 -0.4695  1.0785
31770SOL     OW97941   5.302   9.003   9.614  0.2602  0.6187  0.1463
31770SOL    HW197942   5.318   9.055   9.693  2.1718 -1.0329  0.9519
31770SOL    HW297943   5.368   9.034   9.552 -0.5384  1.1703 -0.4415
31771SOL     OW97944   6.456   1.993   8.106  0.2415  0.2985 -0.0747
31771SOL    HW197945   6.476   2.026   8.018 -0.6500 -0.4454 -0.5754
31771SOL    HW297946   6.456   1.898   8.097  1.9374  0.1325  1.1649
31772SOL     OW97947   7.779   0.908   0.538  0.0003  0.7366 -0.2385
31772SOL    HW197948   7.866   0.868   0.534  0.1793  1.1582 -0.5931
31772SOL    HW297949   7.782   0.979   0.474 -0.1081  1.7374  0.8364
31773SOL     OW97950   7.592   7.595   7.621 -0.5734  0.3666 -0.3552
31773SOL    HW197951   7.562   7.646   7.546  0.6492  0.2369 -0.9648
31773SOL    HW297952   7.521   7.533   7.638 -0.2251 -0.7693 -2.5395
31774SOL     OW97953   3.058   2.668   9.251  1.0635  0.4885  0.1712
31774SOL    HW197954   2.980   2.625   9.284  1.0073 -0.6273 -1.3005
31774SOL    HW297955   3.114   2.680   9.327  0.2111 -0.3314  0.9414
31775SOL     OW97956  10.307   5.705   0.176 -0.2533  0.2854 -0.1596
31775SOL    HW197957  10.244   5.711   0.248  1.4506  0.3335  1.3882
31775SOL    HW297958  10.352   5.622   0.190  2.1042  1.6142  0.6086
31776SOL     OW97959   2.910   4.533   3.923 -0.4490 -0.2328 -0.5463
31776SOL    HW197960   2.920   4.556   4.016 -1.0431  0.8752 -0.7364
31776SOL    HW297961   2.947   4.445   3.916 -1.5956 -0.8938  1.0074
31777SOL     OW97962   1.945   8.221   3.976  0.8195  0.1885  0.1128
31777SOL    HW197963   1.989   8.302   3.949 -0.7260  0.8925 -0.4250
31777SOL    HW297964   1.931   8.173   3.895 -0.3798  0.5005  0.1180
31778SOL     OW97965   8.782   5.676   4.790  0.4644 -0.8173  0.1314
31778SOL    HW197966   8.721   5.739   4.751  1.1559  0.3864  0.9249
31778SOL    HW297967   8.773   5.597   4.737 -2.4556 -1.0141  0.7580
31779SOL     OW97968   7.355   3.303   3.470  0.2134  0.0088  0.2363
31779SOL    HW197969   7.431   3.244   3.467 -0.0533 -0.4643  1.5803
31779SOL    HW297970   7.281   3.245   3.488  0.1137  0.7943  2.8939
31780SOL     OW97971   9.421   1.102   4.025  0.5384  1.0227 -0.1502
31780SOL    HW197972   9.398   1.117   4.117  0.0635  0.6975 -0.2163
31780SOL    HW297973   9.502   1.152   4.013  2.2207 -1.1811  1.2012
31781SOL     OW97974   1.420   3.757   7.665  0.3632 -0.2618  0.0737
31781SOL    HW197975   1.503   3.710   7.670  0.5374  0.0711  0.3377
31781SOL    HW297976   1.407   3.794   7.752  0.3222  0.3314 -0.1771
31782SOL     OW97977  10.007   8.443   5.632 -0.8201  0.0816  0.2059
31782SOL    HW197978   9.954   8.414   5.558  1.1815 -1.0710 -0.8788
31782SOL    HW297979  10.045   8.362   5.667  0.0575  0.8310  1.0453
31783SOL     OW97980  10.173   9.352   9.504  0.4787  0.3180  0.3067
31783SOL    HW197981  10.185   9.441   9.468  0.1267  0.0062 -0.6194
31783SOL    HW297982  10.135   9.366   9.590  3.4835  1.1917  1.6241
31784SOL     OW97983   0.996   7.374   6.426  0.3104  0.0599 -0.3549
31784SOL    HW197984   0.965   7.288   6.455  0.4111  0.0999 -0.1326
31784SOL    HW297985   1.008   7.425   6.506 -0.1259  0.4124 -0.5084
31785SOL     OW97986   6.240   8.557   3.423  0.0398  0.2881  0.5203
31785SOL    HW197987   6.307   8.558   3.355  0.0316  0.9837  0.5067
31785SOL    HW297988   6.182   8.484   3.401  0.3139  0.2142  0.0558
31786SOL     OW97989   6.359   6.659   6.580 -0.3746  0.2394 -0.0996
31786SOL    HW197990   6.377   6.633   6.490 -1.6505  1.5150 -0.7702
31786SOL    HW297991   6.443   6.693   6.613  0.4653 -1.5515 -0.2844
31787SOL     OW97992   1.559  10.057   9.001  0.3127  0.0159  0.7596
31787SOL    HW197993   1.615  10.026   9.072  0.3277 -0.0164  0.7333
31787SOL    HW297994   1.500  10.120   9.043 -0.3937 -0.8021  1.0293
31788SOL     OW97995   0.960   9.431   1.574 -0.1946 -0.5329  0.2040
31788SOL    HW197996   1.046   9.460   1.546  0.4195 -0.6342  1.8624
31788SOL    HW297997   0.905   9.510   1.569 -0.0138 -0.4638 -0.8260
31789SOL     OW97998   2.132   8.902   2.631  0.3502 -0.0199  0.5717
31789SOL    HW197999   2.185   8.942   2.699 -0.5425 -0.3295  1.4713
31789SOL    HW298000   2.082   8.834   2.676  2.3415 -2.7189 -0.9837
31790SOL     OW98001   9.676   1.844   9.766 -0.0838 -0.5311  0.0168
31790SOL    HW198002   9.660   1.936   9.746 -2.0420 -1.2018 -1.9988
31790SOL    HW298003   9.653   1.835   9.859  0.2855  1.0111  0.2812
31791SOL     OW98004   2.449   6.395   5.945  0.5221  0.1942 -0.0185
31791SOL    HW198005   2.357   6.400   5.967  0.6564  1.4195  0.3237
31791SOL    HW298006   2.471   6.482   5.912  1.2748 -0.4209 -1.2314
31792SOL     OW98007   2.742   4.513   7.635 -0.3977 -0.3002 -0.6765
31792SOL    HW198008   2.740   4.547   7.546  0.5960 -0.2989 -0.7091
31792SOL    HW298009   2.816   4.558   7.677 -0.9907 -0.1376  0.2161
31793SOL     OW98010   2.716  10.233   8.002  0.0022 -0.1748  0.5432
31793SOL    HW198011   2.639  10.186   7.970 -0.3250  0.5072  0.3050
31793SOL    HW298012   2.733  10.196   8.088 -0.7211 -0.1926  0.6856
31794SOL     OW98013   5.262   5.962   2.331 -0.3636  0.1986 -0.7121
31794SOL    HW198014   5.209   5.935   2.406 -0.4071 -0.2054 -0.8901
31794SOL    HW298015   5.205   5.950   2.256 -0.6951  1.6088 -0.7179
31795SOL     OW98016   2.409   0.438   5.136 -0.0113 -0.0446 -0.3297
31795SOL    HW198017   2.372   0.453   5.222 -0.9726  1.3960 -0.9524
31795SOL    HW298018   2.462   0.516   5.119  0.2426 -0.3545 -1.0001
31796SOL     OW98019   8.660   9.120   9.775 -0.3807 -0.8067  0.0896
31796SOL    HW198020   8.594   9.057   9.802  1.0161 -2.6848 -0.6380
31796SOL    HW298021   8.731   9.110   9.838 -0.5919  0.9145  0.6486
31797SOL     OW98022   0.205   4.616   3.224 -0.1316  0.2671 -0.5611
31797SOL    HW198023   0.232   4.599   3.314  0.7502 -0.7725 -0.9956
31797SOL    HW298024   0.110   4.623   3.228  0.0029  2.0101  0.7075
31798SOL     OW98025   2.549   1.533   8.928 -0.2934  0.4531 -0.6844
31798SOL    HW198026   2.532   1.564   9.017 -0.6020 -0.5123 -0.3962
31798SOL    HW298027   2.478   1.569   8.876 -2.9567 -2.7874  0.3350
31799SOL     OW98028   8.516   9.474   5.435  0.2560  0.3053 -0.0460
31799SOL    HW198029   8.511   9.404   5.501  1.0117  0.3140  0.0331
31799SOL    HW298030   8.610   9.491   5.426  0.1859  0.0887 -1.3538
31800SOL     OW98031   0.597   7.220   4.111 -0.5186  0.2227 -0.5732
31800SOL    HW198032   0.590   7.181   4.024 -0.8950 -0.2934 -0.3122
31800SOL    HW298033   0.524   7.282   4.115 -0.1084  0.7355 -0.8675
31801SOL     OW98034   7.780   3.696   6.385 -0.1394  0.5372  0.1132
31801SOL    HW198035   7.693   3.736   6.388 -0.1529  0.4392  1.1403
31801SOL    HW298036   7.763   3.602   6.378 -0.1173  0.5219  0.2612
31802SOL     OW98037  10.282   4.835   6.402  0.7121  0.0141 -0.7271
31802SOL    HW198038  10.195   4.797   6.397  1.4592 -2.1564  1.1616
31802SOL    HW298039  10.276   4.899   6.473  0.4265  0.5875 -1.2633
31803SOL     OW98040   2.634   4.921   2.589  0.4629  0.0007  0.0102
31803SOL    HW198041   2.557   4.978   2.592 -1.3775 -2.3559  0.4160
31803SOL    HW298042   2.668   4.921   2.678 -1.4570 -1.8666  0.8442
31804SOL     OW98043   5.457   5.565   2.222 -0.3387 -0.1403 -0.0199
31804SOL    HW198044   5.422   5.596   2.138 -0.6675 -1.9285 -0.5973
31804SOL    HW298045   5.525   5.628   2.244  1.4125 -0.8482 -2.8457
31805SOL     OW98046   8.567   1.773   6.890  0.2966  0.8327 -0.0000
31805SOL    HW198047   8.530   1.779   6.803 -0.0096  1.6827  0.1874
31805SOL    HW298048   8.621   1.694   6.887 -0.8421  0.0488 -0.5222
31806SOL     OW98049   5.589   1.538   6.162 -0.0682 -0.1697 -0.7645
31806SOL    HW198050   5.600   1.633   6.155  0.6968 -0.1915 -0.0099
31806SOL    HW298051   5.608   1.519   6.254 -0.4722 -1.0237 -0.8532
31807SOL     OW98052   7.945   5.084   8.317  0.0692 -0.1048 -0.8545
31807SOL    HW198053   7.878   5.063   8.252  0.8500 -0.7322 -1.4736
31807SOL    HW298054   7.896   5.117   8.393 -0.9750 -1.1203 -1.0708
31808SOL     OW98055   1.028   0.054   9.433 -0.7212 -0.7993 -0.5004
31808SOL    HW198056   1.055  -0.033   9.403  1.3077  0.3509 -2.2649
31808SOL    HW298057   0.967   0.085   9.366 -2.6763 -1.3594  0.8973
31809SOL     OW98058   6.580   0.809   4.450 -0.2616  0.3854 -0.0500
31809SOL    HW198059   6.657   0.861   4.424  1.8671 -3.3450 -2.0176
31809SOL    HW298060   6.527   0.805   4.370  0.6142 -1.9262 -0.5803
31810SOL     OW98061   8.995   4.298   9.745 -0.2542 -0.0469  0.0485
31810SOL    HW198062   9.028   4.329   9.830  0.3281  0.0104 -0.1907
31810SOL    HW298063   8.922   4.241   9.767  1.8208 -2.5942  0.8243
31811SOL     OW98064   8.633   9.732   4.411 -0.0992 -0.1944  0.0617
31811SOL    HW198065   8.573   9.796   4.450 -0.5285  0.9404 -2.3218
31811SOL    HW298066   8.591   9.647   4.428 -1.1615  0.3927  0.4756
31812SOL     OW98067   2.085   9.142   7.980 -0.6260  0.3952 -0.6020
31812SOL    HW198068   2.160   9.157   7.923  0.2189  0.7338  0.5524
31812SOL    HW298069   2.042   9.228   7.986 -0.6156  0.3998 -0.5969
31813SOL     OW98070   2.628   6.172   3.554 -0.2805  0.3826  0.2031
31813SOL    HW198071   2.682   6.095   3.537  0.7847  0.0523  3.9905
31813SOL    HW298072   2.554   6.138   3.604 -0.7315  1.5873  0.3793
31814SOL     OW98073   3.708   7.443   4.838 -0.4480  0.4439  0.1107
31814SOL    HW198074   3.725   7.521   4.785  0.4117 -1.6384 -2.9237
31814SOL    HW298075   3.672   7.379   4.777  0.7045 -2.1993  2.0003
31815SOL     OW98076   3.401   8.181   6.647 -0.0457  0.3763 -0.6652
31815SOL    HW198077   3.334   8.249   6.656  0.4028  1.1464 -2.6182
31815SOL    HW298078   3.484   8.228   6.662  0.2522  0.2586 -1.8188
31816SOL     OW98079   0.957   2.344   4.387  0.4263 -0.0002  0.2416
31816SOL    HW198080   0.999   2.395   4.318 -1.5109  0.9234 -0.3400
31816SOL    HW298081   0.990   2.382   4.469  0.4039  0.9900 -0.1893
31817SOL     OW98082   0.117   0.565   3.919  0.6474  0.4474  0.1469
31817SOL    HW198083   0.155   0.526   3.998  0.3534  0.5229  0.3300
31817SOL    HW298084   0.178   0.634   3.894  1.4906 -0.5181 -0.5352
31818SOL     OW98085   2.227  10.113   6.183  0.6962  0.4187  0.5760
31818SOL    HW198086   2.236  10.178   6.254 -1.9131  0.6571  0.7723
31818SOL    HW298087   2.203  10.165   6.107  1.3380 -0.0672  0.0359
31819SOL     OW98088  10.141   3.147   2.000 -0.6115  0.1928  0.2468
31819SOL    HW198089  10.068   3.106   1.953 -0.1637 -0.2058 -0.1085
31819SOL    HW298090  10.131   3.116   2.090 -0.5991 -0.2586  0.0971
31820SOL     OW98091   6.574   8.136   7.702 -0.0008 -0.1931  0.3220
31820SOL    HW198092   6.496   8.082   7.712 -0.5724  0.7168  0.9211
31820SOL    HW298093   6.584   8.181   7.786  0.7524  0.2548  0.0139
31821SOL     OW98094   4.394   9.566   7.324  0.3224 -0.1456 -0.2652
31821SOL    HW198095   4.452   9.555   7.249 -0.8541  2.2727 -1.6698
31821SOL    HW298096   4.429   9.643   7.370 -2.7075  2.8454 -2.3911
31822SOL     OW98097   0.869   6.018   7.518 -0.4286 -0.3069 -0.4229
31822SOL    HW198098   0.820   5.964   7.456 -0.7502  1.0646 -1.4066
31822SOL    HW298099   0.900   6.092   7.466  0.5824  0.1103  0.7347
31823SOL     OW98100   4.118   6.662   4.484  0.0655 -0.3802 -0.1132
31823SOL    HW198101   4.024   6.679   4.490  0.0143 -0.4117 -0.7768
31823SOL    HW298102   4.152   6.733   4.430  0.4409 -0.3142  0.2072
31824SOL     OW98103   0.687   8.716   2.556 -0.0081 -0.1399 -0.4982
31824SOL    HW198104   0.629   8.661   2.608 -1.1875  2.0247  0.6161
31824SOL    HW298105   0.725   8.777   2.619  2.1329 -0.3580 -1.5058
31825SOL     OW98106   3.742   1.081   5.530  0.1613 -0.0345 -0.1572
31825SOL    HW198107   3.823   1.131   5.539  0.1752 -0.1143  0.1861
31825SOL    HW298108   3.678   1.131   5.580 -0.6408  1.3924 -2.4589
31826SOL     OW98109   5.449   1.414   0.355  0.0874 -0.1150 -0.1642
31826SOL    HW198110   5.426   1.327   0.320  0.8804 -0.5551  0.3977
31826SOL    HW298111   5.544   1.420   0.345  0.0613  0.6255 -0.0301
31827SOL     OW98112  10.264   8.288   0.880  0.0234 -0.7475 -0.4927
31827SOL    HW198113  10.214   8.341   0.943  1.3742 -2.3583  2.1259
31827SOL    HW298114  10.334   8.346   0.852  0.5401 -0.5405  1.0864
31828SOL     OW98115   7.206   8.265   9.566  0.0380 -0.1793 -0.5601
31828SOL    HW198116   7.114   8.277   9.588 -0.0736 -1.5998 -0.1879
31828SOL    HW298117   7.243   8.221   9.643  1.3158  1.3992 -0.1902
31829SOL     OW98118   6.075   1.678   3.586  0.2737 -0.3866 -0.9457
31829SOL    HW198119   5.991   1.673   3.542  0.2402  1.6937 -1.2165
31829SOL    HW298120   6.053   1.706   3.676  0.5963 -1.0449 -0.6567
31830SOL     OW98121   3.961   8.743   0.293 -0.0602  0.0842  0.2623
31830SOL    HW198122   3.918   8.738   0.207  0.5861 -1.1982 -0.0039
31830SOL    HW298123   4.050   8.713   0.276 -0.3693 -1.7426  1.6898
31831SOL     OW98124   5.920   7.398   6.059  0.3338  0.4095  0.1556
31831SOL    HW198125   6.015   7.412   6.066  0.4274 -0.7697  1.9283
31831SOL    HW298126   5.901   7.410   5.966  1.6137  4.0994  0.1804
31832SOL     OW98127   6.465   2.882   8.469 -0.4389 -0.3343 -0.7378
31832SOL    HW198128   6.443   2.866   8.378 -0.1623 -0.8279 -0.7225
31832SOL    HW298129   6.546   2.833   8.483 -0.6082 -0.4574 -0.1632
31833SOL     OW98130   1.809   1.949   9.071 -0.1832  0.4456  0.0158
31833SOL    HW198131   1.803   1.898   9.152  1.6351  0.0514 -0.0623
31833SOL    HW298132   1.718   1.960   9.043 -0.8152  0.1824  1.8454
31834SOL     OW98133   3.196   8.554   1.200 -0.2475  0.3133  0.0597
31834SOL    HW198134   3.131   8.488   1.176 -1.1383  1.1043  0.2431
31834SOL    HW298135   3.216   8.535   1.292  1.3374 -1.1905 -0.5328
31835SOL     OW98136   8.191   3.114   8.474 -0.0754  0.0092 -0.5388
31835SOL    HW198137   8.169   3.057   8.401 -0.1211 -0.9905  0.2309
31835SOL    HW298138   8.122   3.098   8.539  1.1187 -0.7607  0.6023
31836SOL     OW98139   5.466  10.338   7.266 -0.3215  0.4185  0.2881
31836SOL    HW198140   5.503  10.329   7.354 -0.6279 -0.3236  0.3461
31836SOL    HW298141   5.537  10.314   7.207 -0.8689 -1.7558  0.4164
31837SOL     OW98142   2.974   5.234   0.900 -0.1347  0.6591 -0.2386
31837SOL    HW198143   3.028   5.175   0.847  2.0094 -0.7522  3.1822
31837SOL    HW298144   2.885   5.203   0.887  0.2099  0.6938 -3.2491
31838SOL     OW98145   0.317   5.293   0.120 -0.1802  1.0668  0.3846
31838SOL    HW198146   0.341   5.217   0.172  0.3144  0.8690 -0.1199
31838SOL    HW298147   0.393   5.309   0.064 -0.7809  1.1474 -0.4224
31839SOL     OW98148   7.086   6.013   1.051  0.0695 -0.0824  0.4890
31839SOL    HW198149   7.100   6.036   0.959  0.5823 -2.4389 -0.0825
31839SOL    HW298150   6.998   5.975   1.053 -0.9890  2.2323  1.5122
31840SOL     OW98151   1.037   1.952   4.964  0.2076 -0.0380 -0.4299
31840SOL    HW198152   1.039   2.010   4.888  1.7770  0.4761 -0.0538
31840SOL    HW298153   0.990   1.874   4.934  0.8663  0.1077 -1.9575
31841SOL     OW98154   9.020   4.914   8.421 -0.2431  0.7675  0.1286
31841SOL    HW198155   9.071   4.932   8.342  2.5569  1.6291  1.9714
31841SOL    HW298156   8.942   4.968   8.412 -0.1888  0.5514 -2.1965
31842SOL     OW98157   5.751   6.877   8.537 -0.3805 -0.5047 -0.6774
31842SOL    HW198158   5.688   6.876   8.609  0.4538 -0.5125  0.0804
31842SOL    HW298159   5.702   6.845   8.462 -1.3285 -0.3212 -0.1615
31843SOL     OW98160   1.885   9.475   0.043  0.4036 -0.1534 -0.3121
31843SOL    HW198161   1.797   9.475   0.082  0.4993 -1.7186 -0.0107
31843SOL    HW298162   1.870   9.458  -0.050  0.3463  0.4591 -0.4176
31844SOL     OW98163   2.523   0.370   6.897  0.2305  0.7849 -0.1772
31844SOL    HW198164   2.605   0.389   6.852  0.2872 -0.3875 -0.6060
31844SOL    HW298165   2.467   0.329   6.830  0.4912 -1.4506  0.8573
31845SOL     OW98166   6.629   5.591   2.865  0.3032  0.9492  0.2749
31845SOL    HW198167   6.711   5.641   2.869  1.2723 -0.6414  0.9179
31845SOL    HW298168   6.645   5.524   2.799  0.7501 -1.4014  2.6022
31846SOL     OW98169   2.811   5.491   2.030  0.1532  0.1981 -0.5482
31846SOL    HW198170   2.898   5.529   2.042 -0.7958  2.0781  0.9152
31846SOL    HW298171   2.795   5.442   2.112  0.7399 -2.2421 -1.7865
31847SOL     OW98172   0.213   2.097   4.237 -0.0592 -0.1333  0.4210
31847SOL    HW198173   0.152   2.071   4.306  0.5731  0.5696  1.2621
31847SOL    HW298174   0.295   2.116   4.283  0.2735  0.6799 -0.4766
31848SOL     OW98175   1.910   0.649   5.372 -0.6898  0.2614  0.6379
31848SOL    HW198176   1.859   0.698   5.436  0.4447  0.6744  1.2593
31848SOL    HW298177   1.983   0.707   5.350 -0.4719 -0.3152 -0.2154
31849SOL     OW98178   6.767   7.123   1.126 -0.4553 -0.2449 -0.4288
31849SOL    HW198179   6.828   7.148   1.057 -0.9079  0.7240 -0.4934
31849SOL    HW298180   6.681   7.128   1.086 -0.6423 -0.9750 -0.1536
31850SOL     OW98181   8.405   0.086   8.896  0.4466  0.0133 -0.0255
31850SOL    HW198182   8.394   0.158   8.957 -0.6057  0.0008 -0.1770
31850SOL    HW298183   8.459   0.122   8.826  0.8717  0.3076  0.4475
31851SOL     OW98184   5.797   1.150   4.136 -0.3006  0.4174 -0.0405
31851SOL    HW198185   5.798   1.238   4.173  0.1103  0.3340  0.1536
31851SOL    HW298186   5.886   1.117   4.150 -0.4239  0.0096 -0.1995
31852SOL     OW98187   4.275   5.877   6.061 -0.9327 -0.1603 -0.0068
31852SOL    HW198188   4.192   5.838   6.088 -0.8875  0.4524  1.0797
31852SOL    HW298189   4.340   5.833   6.116 -0.6665  0.1612 -0.0659
31853SOL     OW98190   7.388   0.691   4.680 -0.0831 -0.4948 -0.1357
31853SOL    HW198191   7.354   0.606   4.653  1.2477 -0.2960 -2.8099
31853SOL    HW298192   7.310   0.746   4.690 -0.8387 -1.2425 -1.5258
31854SOL     OW98193   7.791   4.131   6.705  0.1718 -0.1055  0.0761
31854SOL    HW198194   7.721   4.145   6.641  0.2383 -0.5192 -0.0874
31854SOL    HW298195   7.857   4.080   6.658  1.2191  1.4455 -0.2040
31855SOL     OW98196   4.610   2.395   4.913  0.3347 -0.1834 -0.3895
31855SOL    HW198197   4.604   2.316   4.967 -0.3522 -1.3984 -2.1643
31855SOL    HW298198   4.524   2.404   4.873  0.3732  1.5440 -0.1549
31856SOL     OW98199   2.735   8.040   3.105  0.1864 -0.4999  0.3653
31856SOL    HW198200   2.708   7.971   3.044 -0.0936 -0.5831  0.5794
31856SOL    HW298201   2.802   8.089   3.058  0.0569 -0.6371  0.0352
31857SOL     OW98202   0.687   2.482   3.561 -0.0910  0.0243  0.0876
31857SOL    HW198203   0.621   2.529   3.510 -0.7464 -1.6503 -0.7083
31857SOL    HW298204   0.663   2.498   3.652 -1.0614  0.1945 -0.1788
31858SOL     OW98205   7.023   1.603  10.289  0.1788  0.1087 -0.0596
31858SOL    HW198206   6.970   1.598  10.369  1.8178  2.4506  1.2623
31858SOL    HW298207   7.001   1.522  10.242 -3.0080  0.0041  1.3307
31859SOL     OW98208   9.418   7.690   7.008 -0.0526  0.3240 -0.3041
31859SOL    HW198209   9.465   7.631   7.067  1.1436  0.2665 -1.2828
31859SOL    HW298210   9.331   7.697   7.046  0.3493 -0.6067  0.8442
31860SOL     OW98211   8.439   1.410   9.167 -0.0838  0.5389 -0.0139
31860SOL    HW198212   8.507   1.476   9.169  0.3841  0.0791 -0.4190
31860SOL    HW298213   8.484   1.328   9.185 -0.9647  0.5363  2.7126
31861SOL     OW98214   5.176   0.935   3.060  0.1699  0.3901  0.0937
31861SOL    HW198215   5.210   0.922   3.149  0.7027 -2.2470 -0.4255
31861SOL    HW298216   5.252   0.963   3.009  1.4262 -3.8092 -0.6881
31862SOL     OW98217   4.538   3.649   9.885  0.4791  0.3467  0.2530
31862SOL    HW198218   4.540   3.724   9.944 -0.5481  0.5507  0.0446
31862SOL    HW298219   4.481   3.677   9.813 -0.2896 -0.7907  0.3949
31863SOL     OW98220   6.838   9.480   0.914 -0.8384 -0.2962 -0.7392
31863SOL    HW198221   6.749   9.444   0.919  0.0594 -2.4644  2.0380
31863SOL    HW298222   6.881   9.428   0.847 -1.0450 -0.8318 -0.4637
31864SOL     OW98223   2.984   7.831   8.167  0.7962 -0.1450  0.0807
31864SOL    HW198224   2.952   7.823   8.257 -0.2769  0.5071 -0.2189
31864SOL    HW298225   3.048   7.760   8.158 -1.4576 -2.3460  0.3371
31865SOL     OW98226   7.442   1.268   4.807  0.3065 -0.5200  0.2619
31865SOL    HW198227   7.398   1.199   4.856 -0.8258  1.9072  2.9399
31865SOL    HW298228   7.373   1.308   4.753  0.8785 -1.1470 -0.9978
31866SOL     OW98229   1.011   8.143   0.152 -0.2803 -0.1965  0.2986
31866SOL    HW198230   0.998   8.049   0.162  1.7332 -0.5583 -0.1886
31866SOL    HW298231   1.102   8.153   0.125  0.1123  2.0069  2.1022
31867SOL     OW98232   5.585   3.067   2.320  0.1172 -0.3624  0.2248
31867SOL    HW198233   5.610   3.145   2.271 -2.3924  1.3860  1.4980
31867SOL    HW298234   5.650   3.061   2.390  1.3453 -0.5014 -0.8891
31868SOL     OW98235   5.336   4.552   2.116 -0.2797 -0.3906  0.5160
31868SOL    HW198236   5.399   4.558   2.188 -0.5634 -1.1657  0.8491
31868SOL    HW298237   5.280   4.478   2.140 -0.8517 -0.1810 -0.1381
31869SOL     OW98238   0.900   3.239   5.532 -0.4243  0.2219  0.2520
31869SOL    HW198239   0.841   3.257   5.606 -1.4133 -1.2837 -0.1109
31869SOL    HW298240   0.924   3.147   5.543 -0.3595  0.0520 -1.1326
31870SOL     OW98241   8.682   5.181   4.997  0.2988  0.0240  0.0781
31870SOL    HW198242   8.644   5.217   4.917  1.4112  0.4591 -0.2797
31870SOL    HW298243   8.639   5.097   5.009  0.1502 -0.0660 -1.0111
31871SOL     OW98244   8.202   2.441   7.875  1.0426  0.0527  0.4843
31871SOL    HW198245   8.185   2.535   7.883  2.5962  0.4420 -0.3444
31871SOL    HW298246   8.217   2.412   7.965  0.1363  0.5023  0.7909
31872SOL     OW98247   0.524   2.166   6.101  0.0161 -0.1008 -0.1485
31872SOL    HW198248   0.474   2.085   6.103  0.5375 -0.4370  1.5567
31872SOL    HW298249   0.574   2.165   6.183 -0.2252  2.0995  0.0877
31873SOL     OW98250   8.798   1.767   7.175 -0.3641  0.1407  0.3063
31873SOL    HW198251   8.732   1.726   7.119  2.7096 -2.2398 -1.8670
31873SOL    HW298252   8.829   1.842   7.125 -0.3004  0.2961  0.5786
31874SOL     OW98253   9.176   2.525   5.283  0.3330 -0.1587  0.3178
31874SOL    HW198254   9.249   2.473   5.318  0.0887 -0.0074  1.0719
31874SOL    HW298255   9.217   2.599   5.240  0.6054  0.9353  2.3484
31875SOL     OW98256   5.118   4.810   5.288 -0.1237  0.1301 -0.6010
31875SOL    HW198257   5.142   4.818   5.196  1.6551  0.6492 -0.1254
31875SOL    HW298258   5.134   4.897   5.325 -0.4333 -0.1766  0.2849
31876SOL     OW98259   6.924   8.538   4.527 -0.2319 -0.6111 -0.1876
31876SOL    HW198260   7.002   8.562   4.477  1.8990 -2.0135  2.2591
31876SOL    HW298261   6.882   8.622   4.547  2.1103  0.4315  0.6443
31877SOL     OW98262   5.980   1.391   5.560  0.4310  0.0635  0.3958
31877SOL    HW198263   6.052   1.441   5.599  0.7156 -0.9214  1.1737
31877SOL    HW298264   5.912   1.389   5.627 -0.7339  1.7522 -0.6653
31878SOL     OW98265   5.414   2.653   1.541  0.3735  0.4506  0.1252
31878SOL    HW198266   5.374   2.567   1.557  1.6401  0.0473  1.2889
31878SOL    HW298267   5.408   2.698   1.626  0.2038  1.3163 -0.3382
31879SOL     OW98268   2.958   8.076   6.564  0.3300 -0.8854  0.3841
31879SOL    HW198269   3.003   8.117   6.491 -0.8167  0.4694  0.3986
31879SOL    HW298270   2.954   7.983   6.540 -2.4795 -0.1572 -2.7290
31880SOL     OW98271   9.928   9.761   7.892 -0.4527 -0.0411 -0.2904
31880SOL    HW198272   9.937   9.803   7.977  0.2263 -0.9367  0.1065
31880SOL    HW298273   9.859   9.810   7.847 -0.1359  1.0516  0.3927
31881SOL     OW98274   9.573   6.538   5.714 -0.7604  0.4993  0.4580
31881SOL    HW198275   9.542   6.463   5.664 -0.2832 -0.0860  1.0110
31881SOL    HW298276   9.632   6.500   5.780 -0.1619  1.4002  0.4646
31882SOL     OW98277   6.114   5.462   5.431  0.2142  0.0539  0.0598
31882SOL    HW198278   6.193   5.501   5.469 -0.7418  1.1745  1.0074
31882SOL    HW298279   6.043   5.494   5.487 -1.0236 -0.0933 -1.3703
31883SOL     OW98280   1.223   5.123   6.405  0.1869  0.2286  0.2763
31883SOL    HW198281   1.176   5.139   6.487 -1.1513  0.8478 -0.5837
31883SOL    HW298282   1.174   5.053   6.362  1.0641 -0.3060  0.1298
31884SOL     OW98283   2.797   3.532   9.220 -0.3683 -0.3099 -0.1902
31884SOL    HW198284   2.836   3.517   9.306  0.8907 -1.2021 -0.8810
31884SOL    HW298285   2.872   3.535   9.160 -0.9165  3.2945 -0.9334
31885SOL     OW98286  10.331   1.986   9.784 -0.0061  0.1510 -0.0372
31885SOL    HW198287  10.251   1.996   9.733 -0.6037 -0.8046  0.6800
31885SOL    HW298288  10.301   1.981   9.875  1.1448  3.9955  0.7355
31886SOL     OW98289   0.463   1.961   3.018  0.3647 -0.1417 -0.1301
31886SOL    HW198290   0.508   1.877   3.024  1.2058  0.3492  0.5991
31886SOL    HW298291   0.482   2.005   3.100  0.0288  0.8165 -0.5461
31887SOL     OW98292   5.507   5.376   2.398 -0.0410  0.3895  0.8520
31887SOL    HW198293   5.471   5.446   2.344  0.2434  0.6599  1.0124
31887SOL    HW298294   5.491   5.404   2.488  1.0705  0.7969  0.9435
31888SOL     OW98295   8.359   5.604   6.864  0.0799  0.1127 -0.7065
31888SOL    HW198296   8.270   5.618   6.898  0.9793  0.2077  1.8580
31888SOL    HW298297   8.382   5.686   6.822 -0.2787  0.9046  0.5740
31889SOL     OW98298   8.039   8.447   5.763 -0.2355 -0.1755 -0.2907
31889SOL    HW198299   8.034   8.539   5.787 -1.0464 -0.0834 -0.7960
31889SOL    HW298300   7.973   8.435   5.695 -0.4622 -1.2279  0.0856
31890SOL     OW98301   2.056   8.779   0.481  0.3556 -0.1219  0.1611
31890SOL    HW198302   1.974   8.827   0.495 -0.2055 -1.2792  1.0868
31890SOL    HW298303   2.114   8.842   0.438 -1.5497  0.2233 -2.1207
31891SOL     OW98304   6.894   8.279   4.638 -0.1884 -0.1164 -0.3854
31891SOL    HW198305   6.894   8.367   4.599 -0.1402  0.2877  0.4938
31891SOL    HW298306   6.979   8.242   4.612  0.0426  0.3260 -0.2765
31892SOL     OW98307   7.434   2.323   0.077 -0.5030  0.2774  0.4215
31892SOL    HW198308   7.373   2.363   0.016  2.8701  1.3839 -2.6128
31892SOL    HW298309   7.459   2.394   0.136 -0.9162  0.2778  0.5930
31893SOL     OW98310   2.370   2.382   0.317  0.2293 -0.2330 -0.0084
31893SOL    HW198311   2.327   2.465   0.296 -1.1514 -1.0512 -0.5780
31893SOL    HW298312   2.443   2.407   0.373  1.0927  1.5699 -1.7873
31894SOL     OW98313   6.591   1.007   7.927 -0.2293 -0.0070 -0.4079
31894SOL    HW198314   6.527   0.936   7.925 -0.2416 -0.0346  0.5504
31894SOL    HW298315   6.609   1.020   8.020  0.1597  0.8971 -0.6023
31895SOL     OW98316   5.141   3.473   2.258  0.4507  0.5262  0.5366
31895SOL    HW198317   5.192   3.410   2.207 -2.5372 -0.9943 -0.8335
31895SOL    HW298318   5.193   3.554   2.255  1.9094 -0.3654 -2.3124
31896SOL     OW98319   6.535   3.427   7.782 -0.1106  0.1558  0.2809
31896SOL    HW198320   6.515   3.502   7.725  0.6754  0.9070  0.9620
31896SOL    HW298321   6.456   3.416   7.835 -0.3393  0.3209 -0.0202
31897SOL     OW98322   5.814   3.071   3.056 -0.7250  0.1127 -0.2010
31897SOL    HW198323   5.800   3.008   2.986  1.0379 -1.2215  0.5850
31897SOL    HW298324   5.904   3.056   3.084 -1.1251  1.1683  1.8032
31898SOL     OW98325   0.524   4.075   2.318 -0.0335 -0.0598  0.4227
31898SOL    HW198326   0.526   4.087   2.413 -0.9363  0.2841  0.4034
31898SOL    HW298327   0.493   3.985   2.305 -0.3785  0.0542  0.4491
31899SOL     OW98328   8.066   4.821   1.928 -0.5250  0.2862  0.4404
31899SOL    HW198329   8.029   4.883   1.991 -1.9796 -0.8063  0.7323
31899SOL    HW298330   8.002   4.817   1.857  0.7652  0.9783 -0.8053
31900SOL     OW98331  10.262   6.604   9.261  0.3785 -0.3919 -0.1649
31900SOL    HW198332  10.168   6.590   9.264  0.5188 -1.3351  0.1743
31900SOL    HW298333  10.291   6.555   9.184  0.7747 -1.3965  0.5915
31901SOL     OW98334   8.273   2.545   8.299 -0.2173  0.3480  0.2440
31901SOL    HW198335   8.248   2.632   8.267  3.6484  0.2820 -3.9379
31901SOL    HW298336   8.333   2.563   8.372  0.4400  1.2657 -0.4912
31902SOL     OW98337   4.713   8.481   9.066  0.2595 -0.0988  0.3689
31902SOL    HW198338   4.736   8.541   9.137 -0.0468  1.4344 -0.7786
31902SOL    HW298339   4.789   8.422   9.060  0.6914  0.3315  1.3522
31903SOL     OW98340   7.838   3.789   1.906  0.4812 -0.2734  0.1299
31903SOL    HW198341   7.802   3.793   1.995 -1.5370 -0.2394 -0.6503
31903SOL    HW298342   7.909   3.725   1.912  1.6258  1.0552  2.1593
31904SOL     OW98343   5.559   8.796   6.646  0.2415  0.5654 -0.0772
31904SOL    HW198344   5.613   8.783   6.568 -0.1939  1.9223 -0.6363
31904SOL    HW298345   5.613   8.848   6.705 -0.2402  1.4396 -0.4009
31905SOL     OW98346   9.469   3.315   4.477  0.0859  0.0914  0.0196
31905SOL    HW198347   9.508   3.321   4.564  0.1463 -0.4009  0.0274
31905SOL    HW298348   9.378   3.342   4.490 -0.5077 -2.0284  0.6680
31906SOL     OW98349   2.087   4.755   1.806  0.2679 -0.5240  0.1510
31906SOL    HW198350   2.115   4.754   1.715 -1.1260 -0.6178 -0.2966
31906SOL    HW298351   2.166   4.733   1.856  0.7305 -1.8723 -1.1138
31907SOL     OW98352   0.093   9.920   0.442 -0.6593 -0.2970  0.4613
31907SOL    HW198353   0.157   9.917   0.513 -0.2258 -1.7818  0.0536
31907SOL    HW298354   0.057   9.832   0.439 -2.8085  0.5313  0.7083
31908SOL     OW98355   0.982   4.496   3.119 -0.0817 -0.4220  0.3174
31908SOL    HW198356   0.990   4.444   3.039  0.6863  0.7011 -0.3596
31908SOL    HW298357   0.888   4.509   3.130 -0.1521  0.4086 -1.0810
31909SOL     OW98358   9.673   6.166   9.560  0.0130 -0.2807 -0.5063
31909SOL    HW198359   9.623   6.160   9.642 -0.3801 -0.8439 -0.7768
31909SOL    HW298360   9.622   6.113   9.498 -0.6701  1.5760 -1.6046
31910SOL     OW98361   7.987   7.415  10.004 -0.1254  0.0266  0.4294
31910SOL    HW198362   8.055   7.377  10.061 -0.1406 -1.6376 -0.5932
31910SOL    HW298363   7.989   7.509  10.023  2.6700  0.0847  0.2558
31911SOL     OW98364   9.698   8.317   3.264 -0.6953 -0.2844  0.0367
31911SOL    HW198365   9.637   8.345   3.196 -1.2497  1.1121  1.0628
31911SOL    HW298366   9.671   8.228   3.286 -1.1041 -0.3993 -0.8908
31912SOL     OW98367   8.723   6.058   5.350  0.0100  0.2085 -0.5342
31912SOL    HW198368   8.723   6.141   5.303  0.7334  1.4082  1.4497
31912SOL    HW298369   8.660   6.070   5.421  1.9830  0.1036  1.3595
31913SOL     OW98370   5.810   5.196   7.558 -1.0340  0.0237  0.2711
31913SOL    HW198371   5.806   5.104   7.584 -3.1702  0.1365  0.4827
31913SOL    HW298372   5.768   5.198   7.472  1.6814  0.3980 -1.1528
31914SOL     OW98373   3.537   8.348   3.656 -0.1058 -0.4334  0.0062
31914SOL    HW198374   3.519   8.255   3.665 -0.6140 -0.1978  1.8030
31914SOL    HW298375   3.632   8.356   3.668 -0.0312 -0.7309 -0.3724
31915SOL     OW98376  10.160   5.225   5.369 -0.1127  0.1410 -0.4741
31915SOL    HW198377  10.065   5.223   5.356 -0.1358  0.9018 -0.4504
31915SOL    HW298378  10.191   5.292   5.307  0.3988 -0.0600 -0.4372
31916SOL     OW98379   8.533   0.407   3.385 -0.1417 -0.3511  0.3568
31916SOL    HW198380   8.461   0.417   3.448  0.5090  2.6178  0.7442
31916SOL    HW298381   8.505   0.458   3.308  0.6470 -0.9453 -0.3476
31917SOL     OW98382  10.331   4.217   2.271  0.1894 -0.5559  0.1151
31917SOL    HW198383  10.302   4.252   2.355  0.8530 -2.0072  1.0041
31917SOL    HW298384  10.426   4.226   2.273  0.2183 -0.6967 -0.4356
31918SOL     OW98385   2.341   6.218   3.864  0.1222  0.0628 -0.2649
31918SOL    HW198386   2.343   6.193   3.772 -2.2946 -2.8193  0.3143
31918SOL    HW298387   2.416   6.173   3.902 -1.6196 -3.0047 -0.0895
31919SOL     OW98388   5.064   5.874   1.575  0.4222  0.2276  0.0371
31919SOL    HW198389   5.147   5.828   1.564  0.5834 -0.2373  2.4909
31919SOL    HW298390   5.086   5.950   1.630 -0.6349  0.5090  0.0883
31920SOL     OW98391   4.012   9.320   1.749  0.6583 -0.1490 -1.1045
31920SOL    HW198392   3.952   9.391   1.772  0.7843 -0.3415 -0.1633
31920SOL    HW298393   4.094   9.343   1.792  0.3866 -1.4242  0.1591
31921SOL     OW98394   1.967   2.956   7.357  0.4573  0.0425  0.1051
31921SOL    HW198395   1.941   2.864   7.358 -0.7580  0.3541  0.9718
31921SOL    HW298396   1.885   3.003   7.342  1.0868  0.9788 -0.4524
31922SOL     OW98397   4.106   8.231   5.455  0.3375  0.4738  0.0378
31922SOL    HW198398   4.167   8.205   5.523 -0.8133 -0.2981  0.8200
31922SOL    HW298399   4.161   8.264   5.384  1.6001  0.5218  1.0104
31923SOL     OW98400   0.205   5.864  10.262  0.1504 -0.3757 -0.2258
31923SOL    HW198401   0.263   5.910  10.202  0.3057 -3.1975 -2.5091
31923SOL    HW298402   0.262   5.805  10.311 -0.5026 -2.9260 -2.2477
31924SOL     OW98403   9.697   3.801   3.833  0.3163 -0.0398  0.0537
31924SOL    HW198404   9.677   3.730   3.894 -0.4358  1.0280  1.0968
31924SOL    HW298405   9.725   3.757   3.753  0.0521 -1.5019  0.7391
31925SOL     OW98406   5.135   8.502   8.121  0.0603 -0.0275  0.4112
31925SOL    HW198407   5.230   8.492   8.115  0.2720  0.5063  2.4055
31925SOL    HW298408   5.104   8.485   8.032  2.0335  0.0169 -0.3340
31926SOL     OW98409   7.862   7.276   0.386 -0.1363  0.2045  0.3404
31926SOL    HW198410   7.786   7.333   0.392  0.9424  1.7117  0.2713
31926SOL    HW298411   7.882   7.274   0.292  0.2018  0.2361  0.4117
31927SOL     OW98412   5.027   4.243   5.599 -0.4487 -0.1166  0.0778
31927SOL    HW198413   4.994   4.185   5.667  2.4311 -0.5658  1.2035
31927SOL    HW298414   5.090   4.190   5.550 -0.8090  0.8777 -1.5594
31928SOL     OW98415   8.288   7.960  10.023  0.0329  0.3379  0.1467
31928SOL    HW198416   8.229   7.995   9.956  1.7291  0.8033 -1.2053
31928SOL    HW298417   8.235   7.954  10.102 -1.6268  1.3407 -0.8354
31929SOL     OW98418   5.213   0.626   6.552 -0.1329  0.4479  0.2321
31929SOL    HW198419   5.198   0.705   6.604  0.5974  0.6837  0.0933
31929SOL    HW298420   5.253   0.657   6.471 -1.3883  0.0933 -0.5513
31930SOL     OW98421   3.145   5.345   6.039 -0.1194  0.2700 -0.9278
31930SOL    HW198422   3.059   5.304   6.044 -0.0334  0.2067  0.1601
31930SOL    HW298423   3.204   5.274   6.014 -0.1533 -0.0127 -0.2045
31931SOL     OW98424   0.091   8.559   3.188 -1.1558 -0.1957 -0.3153
31931SOL    HW198425   0.145   8.559   3.108 -1.5104  0.4621 -0.5646
31931SOL    HW298426   0.131   8.626   3.243 -2.2147  0.9267 -0.8622
31932SOL     OW98427   2.486   3.407   6.275 -1.0996 -0.5013 -0.3544
31932SOL    HW198428   2.501   3.454   6.357  0.2672 -0.9437 -0.3195
31932SOL    HW298429   2.439   3.469   6.220 -1.5948 -0.0229  0.5880
31933SOL     OW98430   0.869  10.332   9.670  0.2407  0.1522 -0.2821
31933SOL    HW198431   0.775  10.350   9.672 -0.1820 -1.7208 -0.7346
31933SOL    HW298432   0.902  10.387   9.600 -0.4938  0.9488 -0.0198
31934SOL     OW98433   6.671   1.225   3.593 -0.5376 -0.1713 -0.2932
31934SOL    HW198434   6.716   1.299   3.634  0.5616 -0.6902 -0.5266
31934SOL    HW298435   6.597   1.264   3.547 -0.1925  0.7396 -0.0883
31935SOL     OW98436   7.080   8.795   9.840  0.7897 -0.6718  0.3083
31935SOL    HW198437   7.110   8.866   9.896  3.3493 -1.3880 -0.0289
31935SOL    HW298438   7.005   8.758   9.886 -0.1065  1.6858  0.8737
31936SOL     OW98439   4.199   6.169   1.500 -0.3904 -0.0954  0.4015
31936SOL    HW198440   4.220   6.219   1.579  0.9534 -1.5678  1.0418
31936SOL    HW298441   4.167   6.085   1.532 -2.1944  0.1379 -0.6499
31937SOL     OW98442   3.450   9.089  10.155 -0.1519 -0.5250  0.5235
31937SOL    HW198443   3.415   9.003  10.179  0.4421 -0.2663  2.5254
31937SOL    HW298444   3.539   9.088  10.189  0.4405  0.2818 -0.9464
31938SOL     OW98445   4.208   7.179   4.078 -0.2425  0.7694 -0.1134
31938SOL    HW198446   4.240   7.211   4.162  0.3264 -0.0848  0.0063
31938SOL    HW298447   4.285   7.180   4.021 -0.1331 -0.6614 -0.0196
31939SOL     OW98448   2.792   0.690   7.790  0.3177 -0.1419 -0.3001
31939SOL    HW198449   2.741   0.761   7.751  0.8427  0.3842 -0.0507
31939SOL    HW298450   2.866   0.678   7.731 -0.2572 -1.1414 -0.8473
31940SOL     OW98451   4.359   5.035   5.261 -0.1410  0.3495  0.1495
31940SOL    HW198452   4.381   5.112   5.209 -0.3276  1.2429  1.3317
31940SOL    HW298453   4.274   5.057   5.301 -1.4007 -1.4757 -1.3605
31941SOL     OW98454   4.750   0.375   6.199  0.2003 -0.6127  0.2929
31941SOL    HW198455   4.723   0.467   6.207  1.9784 -0.0428  0.2706
31941SOL    HW298456   4.705   0.330   6.271 -0.3016  0.3635  0.6055
31942SOL     OW98457   2.592   6.183   2.858  0.5638  0.1872 -0.0643
31942SOL    HW198458   2.661   6.226   2.809 -0.2129  1.1149 -0.3806
31942SOL    HW298459   2.522   6.168   2.794  0.7651 -1.5110  0.0462
31943SOL     OW98460   9.591   3.021   4.747  0.3441  0.5242 -0.6159
31943SOL    HW198461   9.512   3.032   4.800  0.0185  0.3774 -1.0657
31943SOL    HW298462   9.644   3.098   4.768  0.4583  0.2061  0.3164
31944SOL     OW98463   4.889   6.509   1.313  0.2581  0.0125 -0.1102
31944SOL    HW198464   4.831   6.580   1.340  0.6725  0.5089 -0.5040
31944SOL    HW298465   4.938   6.486   1.391  0.2502  0.2819 -0.0287
31945SOL     OW98466   4.637   0.226   7.964  0.0671 -0.2130  0.5258
31945SOL    HW198467   4.546   0.197   7.952 -0.1634  0.0016  1.6332
31945SOL    HW298468   4.630   0.301   8.023  0.6407  2.1394 -2.1480
31946SOL     OW98469   7.845   3.245   2.843  0.2370  0.5146 -0.0630
31946SOL    HW198470   7.757   3.214   2.821  0.1408  1.0842 -0.5250
31946SOL    HW298471   7.885   3.173   2.891  0.3348 -0.6635 -1.8228
31947SOL     OW98472   9.862   8.779   3.956  0.2891 -0.0390  0.3297
31947SOL    HW198473   9.841   8.869   3.981 -0.2902 -0.3311  0.9432
31947SOL    HW298474   9.907   8.787   3.872 -1.8901  0.6887 -0.8552
31948SOL     OW98475   6.634   9.013  10.288 -0.1400 -0.8152  0.2925
31948SOL    HW198476   6.562   9.060  10.330  1.1544  0.5496  1.1004
31948SOL    HW298477   6.666   9.073  10.220  1.2181 -0.6840  1.0026
31949SOL     OW98478   4.673   1.932   1.717 -0.0575 -0.3642  0.3860
31949SOL    HW198479   4.618   1.994   1.669 -1.4879 -1.7765  0.1399
31949SOL    HW298480   4.623   1.910   1.795  0.7053 -0.7523  0.7787
31950SOL     OW98481   8.941   4.602   1.612 -0.2274 -0.4869 -0.0804
31950SOL    HW198482   8.975   4.688   1.637 -0.5584 -1.0608  2.7157
31950SOL    HW298483   8.900   4.569   1.692 -0.4267 -3.0981 -1.1686
31951SOL     OW98484   1.591   6.721   6.903 -0.2829  0.4807 -0.2514
31951SOL    HW198485   1.549   6.688   6.823 -0.8211  1.5212 -0.4144
31951SOL    HW298486   1.676   6.754   6.874 -0.2927  0.4503 -0.3153
31952SOL     OW98487   7.563   2.254   0.425 -0.2797 -0.1822  0.4931
31952SOL    HW198488   7.603   2.297   0.351 -2.3309 -0.8792 -1.1334
31952SOL    HW298489   7.630   2.254   0.493  1.5079  0.9007 -1.1874
31953SOL     OW98490  10.179   6.257   8.652 -0.2400  0.0276  1.1433
31953SOL    HW198491  10.242   6.190   8.625  0.2672  0.9966 -0.1427
31953SOL    HW298492  10.158   6.304   8.572 -1.6900  0.5067  1.7774
31954SOL     OW98493   9.028   5.227   2.461 -0.3579 -0.0090 -0.1573
31954SOL    HW198494   9.009   5.174   2.383 -0.3863  0.1712 -0.2723
31954SOL    HW298495   8.963   5.298   2.458 -0.5889 -0.2007  0.2190
31955SOL     OW98496   1.687   1.143   0.164  0.0323 -0.0824  0.4655
31955SOL    HW198497   1.757   1.181   0.111 -0.0482  0.1200  0.5033
31955SOL    HW298498   1.686   1.050   0.139  0.4596 -0.1320  0.6278
31956SOL     OW98499   0.966   0.237   8.635  0.0669 -0.4528  0.3930
31956SOL    HW198500   1.009   0.323   8.627 -1.0395  0.2336  1.4609
31956SOL    HW298501   0.892   0.242   8.575  0.2109 -0.8108  0.1838
31957SOL     OW98502   7.743   7.798   2.213 -0.3406 -0.3715 -0.4317
31957SOL    HW198503   7.776   7.711   2.235  0.2184 -0.6991 -2.3449
31957SOL    HW298504   7.822   7.853   2.206 -0.5217 -0.1672 -1.0020
31958SOL     OW98505   5.135   7.539   1.328 -0.0381  0.8079 -0.3591
31958SOL    HW198506   5.154   7.630   1.305  0.9701  0.4036 -1.2200
31958SOL    HW298507   5.174   7.527   1.414 -1.2421  1.5126  0.3101
31959SOL     OW98508   5.035   2.851   6.476  0.3096  0.5906 -0.0627
31959SOL    HW198509   4.990   2.767   6.489  0.1724  0.7349  0.4411
31959SOL    HW298510   5.001   2.884   6.393  1.5565 -0.5895 -1.0623
31960SOL     OW98511   9.969   5.839   7.005 -0.3434  0.4917  0.2245
31960SOL    HW198512   9.952   5.869   6.916 -0.6292 -0.4417 -0.0399
31960SOL    HW298513   9.894   5.783   7.026  0.2607 -0.1673  0.6557
31961SOL     OW98514   5.544   3.238   3.828 -0.0140 -0.3053  0.5340
31961SOL    HW198515   5.576   3.198   3.747  0.5732 -0.0186  0.6159
31961SOL    HW298516   5.476   3.298   3.800 -0.6824 -1.1145  0.3768
31962SOL     OW98517   5.449   2.800   3.694  0.3669  0.6457  0.1317
31962SOL    HW198518   5.440   2.832   3.605 -1.8442 -0.6841 -0.2115
31962SOL    HW298519   5.418   2.872   3.749 -1.3918  0.3506 -0.4153
31963SOL     OW98520   0.672   4.066   9.055 -0.3487 -0.3071  0.0866
31963SOL    HW198521   0.694   4.127   8.985  0.5966 -0.6840  0.0366
31963SOL    HW298522   0.608   4.006   9.016 -0.7271  0.1946 -0.0799
31964SOL     OW98523   4.996   0.175   7.347  0.1080  0.2731 -0.5706
31964SOL    HW198524   4.926   0.241   7.351 -0.1386  0.1087 -1.6473
31964SOL    HW298525   4.953   0.093   7.369  0.3214  0.3974  0.3429
31965SOL     OW98526   1.274   5.880   9.579  0.1842  0.1678 -0.0962
31965SOL    HW198527   1.256   5.895   9.672 -0.1065  1.4979 -0.3490
31965SOL    HW298528   1.245   5.960   9.535  1.0223 -0.1245 -1.2506
31966SOL     OW98529   6.321   3.709   4.214 -0.5892  0.3171  0.1875
31966SOL    HW198530   6.250   3.646   4.213 -0.5432  0.2490  0.7884
31966SOL    HW298531   6.321   3.745   4.303 -0.3804  0.8953 -0.0356
31967SOL     OW98532   2.452  10.341   7.745 -0.5185 -0.4376 -0.5120
31967SOL    HW198533   2.371  10.352   7.795 -0.7561 -0.5414 -0.8664
31967SOL    HW298534   2.461  10.423   7.696  1.3169  0.9444  1.9435
31968SOL     OW98535   6.548  10.172   9.669  0.3790  0.3964  0.0480
31968SOL    HW198536   6.609  10.184   9.596 -0.1120 -3.7280 -1.2744
31968SOL    HW298537   6.602  10.136   9.740  0.3074  1.5865  0.7423
31969SOL     OW98538   1.420   3.636   0.400  0.4963 -0.3353  0.0450
31969SOL    HW198539   1.490   3.637   0.465 -1.4805 -0.6519  2.3400
31969SOL    HW298540   1.420   3.547   0.365  2.0519  0.0446 -0.9901
31970SOL     OW98541   1.695   0.944   8.683 -0.3471  0.6258  0.3680
31970SOL    HW198542   1.710   0.995   8.603 -1.0832  2.1231  1.1459
31970SOL    HW298543   1.745   0.990   8.751 -0.1099 -0.3531  0.8740
31971SOL     OW98544   3.328   8.528   0.056  0.0036  0.0928  0.5245
31971SOL    HW198545   3.305   8.610   0.013 -1.5827 -0.9723 -0.8080
31971SOL    HW298546   3.332   8.549   0.149 -0.5639  1.6280  0.2247
31972SOL     OW98547   6.310   8.577   1.566  0.2860  0.5105  0.1978
31972SOL    HW198548   6.357   8.494   1.560 -1.3981 -0.6125  1.4492
31972SOL    HW298549   6.224   8.558   1.527 -0.3105  1.4846  1.0014
31973SOL     OW98550   0.574   7.623   5.756  0.0602 -0.9849 -0.0635
31973SOL    HW198551   0.613   7.682   5.691 -1.5961 -2.1353 -2.2534
31973SOL    HW298552   0.603   7.657   5.840  2.4591  0.5186 -1.3758
31974SOL     OW98553   6.614   5.611   5.155  0.0880  0.1953 -0.0356
31974SOL    HW198554   6.575   5.604   5.242 -3.1025  0.9944 -1.2566
31974SOL    HW298555   6.540   5.613   5.095  2.0252  2.1076 -2.6290
31975SOL     OW98556   9.108   2.408   3.457 -0.3183  0.0399  0.3128
31975SOL    HW198557   9.107   2.447   3.545  0.1678  0.2857  0.2084
31975SOL    HW298558   9.026   2.438   3.417  0.3698  1.5327 -0.0201
31976SOL     OW98559   4.095   4.131   8.484 -0.0118 -0.0760  0.5208
31976SOL    HW198560   4.118   4.130   8.391 -2.2177 -0.3977 -0.0706
31976SOL    HW298561   4.155   4.068   8.523  2.2777  1.4626 -0.2834
31977SOL     OW98562   8.580   1.224  10.185 -0.5158  0.7979 -0.0279
31977SOL    HW198563   8.662   1.176  10.186 -1.2137 -0.4718 -0.7653
31977SOL    HW298564   8.600   1.307  10.140  0.6796  1.1802  1.1593
31978SOL     OW98565   8.198   6.591   0.696  0.1186  0.1044 -0.2158
31978SOL    HW198566   8.286   6.612   0.665  0.8179  0.7071  1.9753
31978SOL    HW298567   8.211   6.558   0.785 -2.0712  3.9698  1.8124
31979SOL     OW98568   0.335   0.739   9.879 -0.1877  0.0652  0.1887
31979SOL    HW198569   0.273   0.672   9.850 -0.2685  0.7178 -1.1946
31979SOL    HW298570   0.421   0.699   9.864 -0.2116  0.5915 -1.5318
31980SOL     OW98571   5.928  10.088   0.665  0.7347 -0.4330  0.1891
31980SOL    HW198572   5.839  10.118   0.683  1.0796  0.9209 -0.2708
31980SOL    HW298573   5.925  10.053   0.576  0.6627 -0.4165  0.1853
31981SOL     OW98574   6.853   8.638   7.776 -0.0760 -0.0968 -0.1086
31981SOL    HW198575   6.793   8.570   7.746 -0.6390  0.2391  0.2256
31981SOL    HW298576   6.811   8.675   7.854  0.0119  0.8984 -0.5094
31982SOL     OW98577   5.423   8.004   8.678  0.0399  0.2371  0.1567
31982SOL    HW198578   5.445   8.072   8.615 -0.8790  0.1064 -0.3342
31982SOL    HW298579   5.340   7.968   8.646 -0.3461  0.0296  1.3319
31983SOL     OW98580   7.025   7.284   6.775  0.0194  0.0801 -0.1417
31983SOL    HW198581   7.020   7.225   6.850  0.7398 -1.0003 -0.9134
31983SOL    HW298582   6.936   7.319   6.766 -0.6777 -1.6524 -0.2624
31984SOL     OW98583  10.334   4.337   7.979  0.1025  0.2222  0.3891
31984SOL    HW198584  10.318   4.425   8.012  0.7001  1.0922 -1.5174
31984SOL    HW298585  10.388   4.349   7.902  1.0432 -1.9103  0.6354
31985SOL     OW98586   3.568   0.056   9.912 -0.3885  0.0596 -0.4844
31985SOL    HW198587   3.511   0.100   9.975  0.1964  0.3117 -0.1226
31985SOL    HW298588   3.510   0.031   9.840 -0.5623  2.4142 -1.2351
31986SOL     OW98589   9.061   8.646  10.069 -0.4909  0.3124  0.1200
31986SOL    HW198590   8.999   8.687  10.130 -1.2020 -0.7721  0.1425
31986SOL    HW298591   9.005   8.602  10.004  0.2359 -1.3750  0.5976
31987SOL     OW98592  10.285   6.041   7.061  0.2161  0.6447 -0.4797
31987SOL    HW198593  10.320   6.019   6.974 -1.1693  0.6084 -1.0558
31987SOL    HW298594  10.208   6.095   7.043  1.3950  2.9053  0.8199
31988SOL     OW98595   3.379   5.316   8.585  0.0151 -0.2906  0.5313
31988SOL    HW198596   3.397   5.389   8.645  0.4807  1.3999 -1.5530
31988SOL    HW298597   3.458   5.310   8.531 -0.8544 -0.9408 -0.7114
31989SOL     OW98598   6.483   1.210   4.011  0.1370  0.3309  0.8850
31989SOL    HW198599   6.396   1.242   3.988  0.4542  1.4801  1.2086
31989SOL    HW298600   6.486   1.213   4.106 -0.0011 -1.2255  0.9737
31990SOL     OW98601   9.995   8.886   3.674  0.2698  0.0624  0.0803
31990SOL    HW198602   9.913   8.915   3.633 -0.2371 -0.7069  0.5369
31990SOL    HW298603   9.994   8.791   3.664  2.2046  0.1669 -1.9596
31991SOL     OW98604   6.540   9.515  10.133 -0.2307  0.4475  0.4819
31991SOL    HW198605   6.610   9.577  10.155  0.6077  1.0330 -3.1806
31991SOL    HW298606   6.460   9.559  10.160  0.5551  1.6932  0.9108
31992SOL     OW98607   3.675   6.566   2.532 -0.0931 -0.0924  0.0452
31992SOL    HW198608   3.688   6.650   2.577 -0.5748  0.4527 -0.8007
31992SOL    HW298609   3.744   6.509   2.565  1.0506  1.0417 -0.3254
31993SOL     OW98610   0.417   4.434   6.939  0.3983  0.0953 -0.0715
31993SOL    HW198611   0.392   4.514   6.985  0.1499 -0.7568  1.3427
31993SOL    HW298612   0.358   4.367   6.973  0.5742 -0.6935 -1.2544
31994SOL     OW98613   1.440   4.116   7.818  0.4591 -0.2007 -0.0785
31994SOL    HW198614   1.498   4.185   7.851 -1.0001  1.6822 -1.2313
31994SOL    HW298615   1.373   4.163   7.769 -0.2025 -2.5290 -1.5592
31995SOL     OW98616   9.002   3.281   7.826 -0.2709 -0.2396  0.1622
31995SOL    HW198617   9.089   3.274   7.866 -0.5724 -1.0393  0.7040
31995SOL    HW298618   9.019   3.317   7.739  0.5119  0.4597  0.5895
31996SOL     OW98619   8.622   1.474   1.810 -0.4034  0.0171  0.2275
31996SOL    HW198620   8.662   1.387   1.806  1.8980  1.0078 -0.2114
31996SOL    HW298621   8.580   1.485   1.725  0.5183 -0.1609 -0.2666
31997SOL     OW98622   0.051   1.177   8.206 -0.0378  0.5134 -0.6020
31997SOL    HW198623   0.038   1.103   8.146 -1.6207  0.2491  0.0215
31997SOL    HW298624   0.120   1.147   8.265  1.0633  0.5139 -1.8516
31998SOL     OW98625   2.052   3.303   5.310 -0.5111  0.0259  0.5448
31998SOL    HW198626   2.031   3.394   5.331 -0.0519 -0.1313  1.7560
31998SOL    HW298627   1.985   3.252   5.357 -0.7426 -0.2673 -0.0929
31999SOL     OW98628   4.986   1.218   5.428 -0.7663 -0.5214  0.5480
31999SOL    HW198629   5.035   1.162   5.368  0.6832  1.5370 -0.3369
31999SOL    HW298630   5.025   1.201   5.514 -2.4431 -3.0432  0.8963
32000SOL     OW98631   1.445   9.226   6.922 -0.0426  0.1187  0.4612
32000SOL    HW198632   1.403   9.312   6.920  0.6540  0.4617  0.5449
32000SOL    HW298633   1.537   9.243   6.905  0.3034 -0.4833  1.6069
32001SOL     OW98634   4.316   2.495   6.532 -0.0603 -0.2945 -0.0392
32001SOL    HW198635   4.267   2.573   6.556  0.4669  0.2771 -0.7547
32001SOL    HW298636   4.263   2.422   6.564 -0.5165  0.3540  0.7166
32002SOL     OW98637   2.216   5.974   2.735 -0.3971 -0.2174 -0.2203
32002SOL    HW198638   2.255   5.889   2.756  3.0422  1.6357  1.9158
32002SOL    HW298639   2.156   5.991   2.807 -0.3882 -0.4641 -0.1544
32003SOL     OW98640   7.533   4.407   3.294 -0.0453  0.0946  0.4124
32003SOL    HW198641   7.445   4.375   3.273 -0.5396  1.1838  0.7637
32003SOL    HW298642   7.561   4.354   3.369 -0.3631 -0.3086  0.2485
32004SOL     OW98643   4.770   1.291   9.743 -0.7089  0.0004  0.3914
32004SOL    HW198644   4.850   1.344   9.745 -0.3702 -0.5308  1.8914
32004SOL    HW298645   4.760   1.259   9.833 -1.1802 -2.0731 -0.3484
32005SOL     OW98646   3.406   1.808   4.153 -0.1572  0.0509 -0.1559
32005SOL    HW198647   3.469   1.854   4.097 -0.9414  0.6027 -0.6127
32005SOL    HW298648   3.333   1.870   4.162 -1.4044 -1.2394 -1.0669
32006SOL     OW98649   8.402   8.178   3.557 -0.1228  0.1153 -0.1131
32006SOL    HW198650   8.427   8.213   3.472  1.2414 -1.2837 -0.3436
32006SOL    HW298651   8.373   8.088   3.538 -1.0580  0.2145  0.7466
32007SOL     OW98652   5.056   7.551   9.353  0.1224  0.2586  0.3811
32007SOL    HW198653   5.135   7.601   9.369  1.6480 -1.7111 -0.5766
32007SOL    HW298654   5.041   7.503   9.435  0.7785 -0.4691  0.0807
32008SOL     OW98655   6.904   3.521   9.519  0.2874 -0.1783 -0.4960
32008SOL    HW198656   6.816   3.557   9.531  0.8910  1.1955  0.1099
32008SOL    HW298657   6.936   3.560   9.438  0.5039 -0.3157 -0.4791
32009SOL     OW98658   6.421   3.006   9.454 -0.1420  0.1602  0.2060
32009SOL    HW198659   6.471   2.939   9.408 -1.2914 -0.9019  0.4537
32009SOL    HW298660   6.466   3.018   9.538  0.0466 -0.3279  0.1730
32010SOL     OW98661   5.181   0.914   7.867  0.3846 -0.2007  0.0640
32010SOL    HW198662   5.276   0.918   7.877  0.3951 -0.1059 -0.0675
32010SOL    HW298663   5.167   0.881   7.778  0.2937 -1.3897  0.4935
32011SOL     OW98664   6.243   1.447   1.432  0.7039 -0.1957  0.0134
32011SOL    HW198665   6.166   1.398   1.402  0.8663 -0.7054  0.4188
32011SOL    HW298666   6.278   1.486   1.352  0.0717 -0.0251 -0.1875
32012SOL     OW98667   2.415   4.209   7.099 -0.2170 -0.4845 -0.1339
32012SOL    HW198668   2.333   4.259   7.104 -0.4143 -0.8940  2.5251
32012SOL    HW298669   2.401   4.147   7.028 -1.1793  1.1234 -1.4349
32013SOL     OW98670   0.001   1.520   5.368 -0.0368 -0.7736 -0.1900
32013SOL    HW198671   0.080   1.545   5.321 -0.3713  1.1223  0.1533
32013SOL    HW298672   0.033   1.472   5.444  0.6336 -1.9197 -1.1703
32014SOL     OW98673   6.307   4.263   5.674  0.0381  0.4247 -0.4511
32014SOL    HW198674   6.271   4.251   5.586 -1.7836  0.2050  0.2816
32014SOL    HW298675   6.373   4.194   5.682  0.2024  0.4243 -1.6124
32015SOL     OW98676   4.013   7.121   8.290 -0.9029 -0.9912 -0.0868
32015SOL    HW198677   4.048   7.070   8.217  0.1311  1.0323 -1.0567
32015SOL    HW298678   3.919   7.126   8.272 -0.7224 -0.8687 -1.0415
32016SOL     OW98679   5.141   8.049   5.432 -0.1965 -0.0426 -0.7178
32016SOL    HW198680   5.049   8.050   5.407 -0.4770 -0.8550  0.2126
32016SOL    HW298681   5.149   8.118   5.498 -0.4087 -0.6952  0.0168
32017SOL     OW98682   4.121   8.020   1.625 -0.7880  0.0228 -0.0146
32017SOL    HW198683   4.184   7.952   1.648 -0.2201  0.2288 -0.8962
32017SOL    HW298684   4.083   7.992   1.542  0.3575  1.3314 -1.0461
32018SOL     OW98685   5.995   8.693   3.505  0.1771 -0.8489 -0.3145
32018SOL    HW198686   6.080   8.653   3.486 -0.0045 -1.0151 -0.7720
32018SOL    HW298687   6.017   8.777   3.544  0.5534 -0.5342 -1.1892
32019SOL     OW98688   5.770   9.323   6.177 -0.3037  0.0157  0.7682
32019SOL    HW198689   5.684   9.332   6.136 -0.1248  0.5443  0.5072
32019SOL    HW298690   5.825   9.386   6.131  0.4979 -1.0781  0.2087
32020SOL     OW98691   4.634   9.418   6.669  0.1299 -0.4062  0.0570
32020SOL    HW198692   4.618   9.325   6.650  0.7380 -0.6363  0.6280
32020SOL    HW298693   4.699   9.417   6.739 -0.2896  0.4530  0.4655
32021SOL     OW98694  10.357   8.619   2.081  0.3232  0.4815  0.4078
32021SOL    HW198695  10.285   8.594   2.139  0.4790  1.5942  1.1330
32021SOL    HW298696  10.412   8.542   2.076 -0.1899  0.0671  0.9945
32022SOL     OW98697   4.615   3.639   4.559 -0.0109  0.1960  0.5367
32022SOL    HW198698   4.675   3.693   4.507 -0.6056  1.3189  0.9644
32022SOL    HW298699   4.594   3.694   4.635 -0.7254 -0.6099  0.9373
32023SOL     OW98700   4.155   5.563   6.497  0.2087 -0.1498  0.0525
32023SOL    HW198701   4.134   5.542   6.588 -0.8039  1.8614  0.3464
32023SOL    HW298702   4.246   5.591   6.499  0.7495 -1.7903  0.0967
32024SOL     OW98703   4.234   3.854   3.934 -0.4572 -0.0940 -0.1576
32024SOL    HW198704   4.312   3.875   3.883 -0.3958  0.1956  0.0528
32024SOL    HW298705   4.268   3.821   4.017 -0.5572  0.5724  0.1526
32025SOL     OW98706   5.863   2.406   8.811 -0.4473  0.2900 -0.6408
32025SOL    HW198707   5.851   2.338   8.744  2.0041 -0.1837 -0.6742
32025SOL    HW298708   5.819   2.371   8.888  0.7436 -1.3715 -0.6613
32026SOL     OW98709   2.995   8.614   1.634  0.2003  0.1173  0.1037
32026SOL    HW198710   2.926   8.637   1.572  1.5338 -1.0288 -1.8909
32026SOL    HW298711   3.044   8.696   1.647 -0.3732  0.4772  0.0669
32027SOL     OW98712   9.156   5.327   3.466  0.3061 -0.1225 -0.3756
32027SOL    HW198713   9.126   5.380   3.392 -1.8166 -1.1421 -0.3112
32027SOL    HW298714   9.088   5.337   3.532  0.7509 -1.4985  0.3397
32028SOL     OW98715   8.408   0.129   4.929 -0.1130 -0.1811  0.4177
32028SOL    HW198716   8.404   0.046   4.977 -0.4181 -0.8911 -0.7805
32028SOL    HW298717   8.457   0.108   4.850 -1.0173  0.5446 -0.3603
32029SOL     OW98718   8.679   2.282   0.804 -0.0170  0.5148  0.2154
32029SOL    HW198719   8.599   2.327   0.830  0.6855  1.8650  0.1124
32029SOL    HW298720   8.747   2.349   0.806  1.1074 -0.5706  0.1943
32030SOL     OW98721   2.865   2.376   8.555 -0.5073 -0.1963  0.3299
32030SOL    HW198722   2.865   2.470   8.539 -0.6519 -0.5513 -2.2923
32030SOL    HW298723   2.781   2.346   8.519  0.4352 -1.5653 -0.8573
32031SOL     OW98724   7.543   3.283   5.463 -0.0009 -0.4125  0.2004
32031SOL    HW198725   7.543   3.374   5.494  2.0165 -0.9030  1.8670
32031SOL    HW298726   7.462   3.275   5.414 -0.8893  1.9169  1.1239
32032SOL     OW98727   3.992   3.568   6.538 -0.7204  0.1935  0.0764
32032SOL    HW198728   4.033   3.642   6.493  0.9680 -0.8422 -0.1846
32032SOL    HW298729   3.955   3.606   6.617  1.1325  1.1789  0.5317
32033SOL     OW98730   2.786   3.257   3.080 -0.1587 -0.6397  0.0641
32033SOL    HW198731   2.763   3.350   3.079 -2.1576 -1.0948 -0.8548
32033SOL    HW298732   2.870   3.254   3.125 -0.5041  1.5070  0.9844
32034SOL     OW98733   4.548   7.032   2.603 -0.4141  0.8089 -0.2294
32034SOL    HW198734   4.603   7.111   2.610 -0.6181  0.9018  0.3310
32034SOL    HW298735   4.598   6.964   2.648  0.6924  0.0924 -2.3787
32035SOL     OW98736   3.890   4.648   9.693 -0.2313 -0.1118 -0.3085
32035SOL    HW198737   3.929   4.562   9.711  0.3974 -0.0764 -1.4436
32035SOL    HW298738   3.910   4.666   9.601  0.4287  1.6455  0.1268
32036SOL     OW98739   5.873   3.889   0.926  0.8529 -0.1207  0.3402
32036SOL    HW198740   5.860   3.798   0.900  2.1828 -0.1389 -0.3838
32036SOL    HW298741   5.794   3.913   0.974 -0.0125 -1.2943 -0.4599
32037SOL     OW98742   6.567   3.151   2.584  0.0881 -0.0722  0.7278
32037SOL    HW198743   6.553   3.097   2.507  1.6836 -0.2634  0.5299
32037SOL    HW298744   6.516   3.230   2.569  0.8048  0.1253 -0.7848
32038SOL     OW98745   8.467   6.576   6.342 -0.1133 -0.2358 -0.0024
32038SOL    HW198746   8.546   6.562   6.290 -1.0666 -3.2204 -0.7917
32038SOL    HW298747   8.396   6.545   6.287 -1.3871 -1.6487  2.3053
32039SOL     OW98748   4.098   7.852   8.254 -0.1840 -0.3996 -0.6635
32039SOL    HW198749   4.102   7.822   8.345 -1.7590 -2.4700 -1.2211
32039SOL    HW298750   4.022   7.909   8.251 -0.2459 -0.4857 -0.7268
32040SOL     OW98751   4.285   9.933   1.311 -0.0920 -0.0518 -0.4870
32040SOL    HW198752   4.264   9.885   1.230 -0.0740  0.0354 -0.5434
32040SOL    HW298753   4.335  10.009   1.281  1.4466 -0.9258 -0.2446
32041SOL     OW98754   8.097   7.778   9.105  0.4911 -0.5181  0.0978
32041SOL    HW198755   8.041   7.829   9.163  0.6469 -0.1254 -0.0898
32041SOL    HW298756   8.074   7.687   9.122 -0.5730 -0.3463 -0.3403
32042SOL     OW98757   3.632   5.231   5.870  0.1312 -0.0173 -0.0464
32042SOL    HW198758   3.572   5.228   5.944  0.0993  1.4815  0.0204
32042SOL    HW298759   3.716   5.199   5.905  0.0830  0.5588  0.5957
32043SOL     OW98760   4.254   9.217   1.140 -0.0742 -0.2251 -0.5464
32043SOL    HW198761   4.261   9.131   1.098 -0.1381  0.0241 -1.0707
32043SOL    HW298762   4.226   9.197   1.230  1.1513 -0.8314 -0.2743
32044SOL     OW98763   3.074   7.416   9.901 -0.1583  0.1331 -0.1162
32044SOL    HW198764   3.147   7.396   9.843 -0.0046  0.5944 -0.0859
32044SOL    HW298765   3.052   7.507   9.882 -1.8545 -0.4902 -1.3594
32045SOL     OW98766   5.371  10.229   2.848  0.5629  0.0778 -0.2155
32045SOL    HW198767   5.462  10.220   2.878  0.6260 -3.8918 -0.9931
32045SOL    HW298768   5.318  10.212   2.926  0.5350  0.3010 -0.1864
32046SOL     OW98769   9.344   0.301   4.688  0.3792 -0.9782 -0.1703
32046SOL    HW198770   9.321   0.278   4.778 -0.8869  0.4100 -0.1043
32046SOL    HW298771   9.278   0.258   4.634  0.4607 -0.8667 -0.3597
32047SOL     OW98772   4.279   2.257   5.946 -0.6860 -0.4112  0.1906
32047SOL    HW198773   4.296   2.183   5.889 -2.7493 -0.2999 -0.6140
32047SOL    HW298774   4.209   2.228   6.004 -2.5106  1.2643 -1.0281
32048SOL     OW98775   6.174   0.181   8.116 -0.0279  0.1393  0.4561
32048SOL    HW198776   6.160   0.244   8.045  0.2872 -0.7973 -0.4771
32048SOL    HW298777   6.122   0.214   8.189 -1.2478  0.5480 -0.5654
32049SOL     OW98778   1.612   5.830   4.975  0.2606  0.0302  0.1722
32049SOL    HW198779   1.636   5.905   5.028 -2.9869  0.1718  1.7142
32049SOL    HW298780   1.614   5.755   5.035  1.6623 -0.8421 -0.8866
32050SOL     OW98781   8.406   0.247   3.098  0.1626  0.3836  0.0305
32050SOL    HW198782   8.331   0.215   3.149 -1.5204  1.9931 -1.3027
32050SOL    HW298783   8.481   0.198   3.133 -1.2854 -0.4208  2.2665
32051SOL     OW98784   2.170   9.122   6.744 -0.3162  0.3706 -0.2102
32051SOL    HW198785   2.091   9.170   6.769  0.5279  1.4179  0.5032
32051SOL    HW298786   2.218   9.110   6.825  1.3906  1.8495 -0.9400
32052SOL     OW98787   7.537   2.978   3.792 -0.5604 -0.4082 -0.0114
32052SOL    HW198788   7.454   3.026   3.784 -0.1716  0.1000 -1.3482
32052SOL    HW298789   7.524   2.920   3.867 -2.6066 -1.2624 -0.9385
32053SOL     OW98790   9.522   2.572   7.294  0.0169 -0.3242 -0.2887
32053SOL    HW198791   9.521   2.663   7.264 -2.5866 -0.1465  0.0329
32053SOL    HW298792   9.456   2.528   7.240  0.7529 -1.8687  0.0170
32054SOL     OW98793   0.330   6.684   0.677  0.1101  0.0596  0.0241
32054SOL    HW198794   0.362   6.766   0.640  1.3123 -0.2977  0.2458
32054SOL    HW298795   0.408   6.637   0.705 -0.6419 -0.4256  1.4752
32055SOL     OW98796   9.533   6.972   9.492  0.3960 -0.7825  0.2874
32055SOL    HW198797   9.537   6.883   9.527 -0.8412 -0.6198  0.9038
32055SOL    HW298798   9.582   7.024   9.555 -0.2435 -0.7898  0.8071
32056SOL     OW98799   2.197   2.059   6.061  0.7422 -0.3484  0.8151
32056SOL    HW198800   2.196   2.088   6.152  0.5344 -1.5960  1.2252
32056SOL    HW298801   2.289   2.036   6.044  0.6926 -0.5945  0.8734
32057SOL     OW98802   0.845   7.339   5.323  0.0480  0.6180  0.3264
32057SOL    HW198803   0.849   7.374   5.234  2.0012 -0.7997 -0.2179
32057SOL    HW298804   0.867   7.247   5.314 -0.2687  0.3084  2.2333
32058SOL     OW98805   4.510   1.413   0.771 -0.1097  0.3194 -0.3691
32058SOL    HW198806   4.482   1.379   0.856  1.8416 -1.2511 -0.3018
32058SOL    HW298807   4.451   1.487   0.755 -1.1401  0.0758  1.8895
32059SOL     OW98808   0.781   5.580   7.496 -0.1470  0.3975 -0.1583
32059SOL    HW198809   0.728   5.615   7.568 -2.9999  0.0095 -1.9074
32059SOL    HW298810   0.778   5.648   7.429  1.5040  0.2925 -0.3593
32060SOL     OW98811   0.166   8.071   7.000 -0.3019 -0.6193 -0.2073
32060SOL    HW198812   0.154   8.017   7.078 -0.5931  0.0672  0.2237
32060SOL    HW298813   0.124   8.021   6.930  0.9660 -1.8026 -0.1809
32061SOL     OW98814   4.251   9.922   7.723  0.4822  0.1762  0.1407
32061SOL    HW198815   4.257   9.873   7.805  0.9171  0.6193  0.3765
32061SOL    HW298816   4.197   9.866   7.666 -0.7843  0.3804  1.0865
32062SOL     OW98817   0.351   9.167   2.416  0.4444  0.4753  0.4191
32062SOL    HW198818   0.431   9.176   2.365  0.9947 -1.3450  0.8767
32062SOL    HW298819   0.318   9.080   2.394  0.5926 -0.2916  2.9453
32063SOL     OW98820   3.245   6.112   9.268  0.2433 -0.4160  0.4245
32063SOL    HW198821   3.203   6.071   9.191 -0.0685 -1.3335  1.0598
32063SOL    HW298822   3.337   6.118   9.244  0.0809 -0.2792 -0.1943
32064SOL     OW98823   6.924  10.243   4.470 -0.2423  0.4241 -0.0485
32064SOL    HW198824   6.935  10.159   4.515 -0.0563 -0.3344 -1.4478
32064SOL    HW298825   6.881  10.299   4.535 -2.3083 -1.3824  0.2741
32065SOL     OW98826   4.703   5.081   1.823  0.2598 -0.2903 -0.1332
32065SOL    HW198827   4.660   5.053   1.903 -1.4289  0.0087 -0.8905
32065SOL    HW298828   4.691   5.008   1.762  0.6511 -0.1139 -0.4256
32066SOL     OW98829   8.693   2.167   3.038  0.8072 -1.0274 -0.6014
32066SOL    HW198830   8.740   2.102   3.090  1.2929 -0.1939  0.0244
32066SOL    HW298831   8.756   2.238   3.026 -0.3932  0.2856  0.5750
32067SOL     OW98832   1.027   0.196   6.122 -0.1554  0.3463  0.2117
32067SOL    HW198833   0.950   0.173   6.070  1.2673 -0.6625 -1.5510
32067SOL    HW298834   1.011   0.287   6.149 -0.6631  1.2155 -2.6713
32068SOL     OW98835   6.454  10.003   5.701  0.1583  0.0082  0.5811
32068SOL    HW198836   6.463   9.908   5.706 -0.0776 -0.1410 -1.2294
32068SOL    HW298837   6.539  10.037   5.730  0.0327 -0.7027  1.8719
32069SOL     OW98838   1.914   1.242   5.610  0.1879  0.7150 -0.4532
32069SOL    HW198839   1.956   1.198   5.536  0.1988  2.1303 -1.3464
32069SOL    HW298840   1.876   1.321   5.571  1.1437  2.0832  1.2365
32070SOL     OW98841   8.138   9.001   0.913  0.5168 -0.4576  0.5729
32070SOL    HW198842   8.218   8.998   0.860  1.3400  1.5508  1.5701
32070SOL    HW298843   8.169   8.983   1.002 -0.4197 -1.2043  0.7608
32071SOL     OW98844   9.851   8.467   6.892 -0.1045  0.0054  0.5411
32071SOL    HW198845   9.817   8.410   6.823 -2.7106  0.7995  1.0648
32071SOL    HW298846   9.773   8.506   6.932  1.4672  2.1704  1.7168
32072SOL     OW98847   2.525   1.735   1.930 -0.2064 -0.0845 -0.3969
32072SOL    HW198848   2.609   1.779   1.944 -0.2132  0.2202 -1.2697
32072SOL    HW298849   2.492   1.771   1.847 -1.2240 -0.1618 -0.0397
32073SOL     OW98850   9.064   5.333   0.447 -0.2099 -0.1070 -0.2326
32073SOL    HW198851   9.111   5.388   0.510 -0.6745 -0.5097  0.4750
32073SOL    HW298852   9.039   5.393   0.377  2.0026 -0.0060 -1.0223
32074SOL     OW98853   1.954   6.061   5.838  0.3457  0.4583  0.4916
32074SOL    HW198854   1.893   5.988   5.846  1.1915 -0.5444 -1.5329
32074SOL    HW298855   2.026   6.039   5.897  0.6607 -0.4497 -0.2093
32075SOL     OW98856   4.265   5.570   1.402  0.4274 -0.5337 -0.3595
32075SOL    HW198857   4.270   5.495   1.343  0.5809 -1.6638  1.0399
32075SOL    HW298858   4.195   5.625   1.365  2.4154  0.2956 -3.1811
32076SOL     OW98859   1.958   6.015   6.656 -0.1071  0.1394 -0.8120
32076SOL    HW198860   1.971   5.938   6.712  0.0851 -1.1290 -2.4965
32076SOL    HW298861   1.904   5.983   6.583 -0.6543  1.8056 -1.1926
32077SOL     OW98862   4.233   3.426   9.174 -0.3520 -0.7153  0.0640
32077SOL    HW198863   4.203   3.410   9.084  0.4833 -2.8538  0.1073
32077SOL    HW298864   4.154   3.456   9.220 -0.6777  0.9405 -1.4640
32078SOL     OW98865   4.908   0.353   2.216 -0.3717  0.4200 -0.1024
32078SOL    HW198866   4.890   0.290   2.145 -0.4137  1.5352 -1.1087
32078SOL    HW298867   4.985   0.317   2.260  0.4134  0.3203 -1.4916
32079SOL     OW98868   0.955   7.736   7.662 -0.4012 -0.2163  0.1693
32079SOL    HW198869   1.041   7.726   7.620 -0.5060 -1.5997  0.2531
32079SOL    HW298870   0.976   7.769   7.750 -0.0038  0.1184 -0.0454
32080SOL     OW98871   1.766   5.185   7.939 -0.4345  0.2391  0.1365
32080SOL    HW198872   1.780   5.158   7.848  0.1684  0.6475  0.1014
32080SOL    HW298873   1.779   5.280   7.937 -0.7342  0.2920  0.5961
32081SOL     OW98874   6.780   4.209   4.627 -0.1908 -0.6927 -0.1582
32081SOL    HW198875   6.713   4.276   4.624  0.3109 -0.1864 -0.1826
32081SOL    HW298876   6.855   4.247   4.580 -0.0818 -1.4688 -0.6352
32082SOL     OW98877   6.856   1.420   4.411 -0.1133  0.0314  0.3849
32082SOL    HW198878   6.823   1.441   4.498 -1.6675 -0.3141 -0.0892
32082SOL    HW298879   6.925   1.485   4.395  0.8741 -0.5072  2.2350
32083SOL     OW98880   6.247   4.895   8.284 -0.5615  0.6714 -0.2253
32083SOL    HW198881   6.316   4.828   8.287 -0.4635  0.8168  1.5505
32083SOL    HW298882   6.185   4.869   8.351  0.1621  3.0632  1.4983
32084SOL     OW98883   0.428   4.822   3.213  0.7401 -0.0893 -0.4303
32084SOL    HW198884   0.357   4.790   3.156  0.7578  0.0866 -0.5522
32084SOL    HW298885   0.398   4.907   3.244  1.1648  0.2770 -0.9862
32085SOL     OW98886   6.814   4.667   4.580 -0.0489 -0.4836  0.0321
32085SOL    HW198887   6.780   4.743   4.532  1.5713 -1.0435 -2.1684
32085SOL    HW298888   6.896   4.697   4.618  0.6693 -1.1104 -0.9628
32086SOL     OW98889   7.801   7.443   1.021 -0.1226 -0.2827  0.3129
32086SOL    HW198890   7.881   7.447   0.970  0.1765 -0.4652  0.7655
32086SOL    HW298891   7.790   7.350   1.042 -0.7381 -0.3373 -0.1949
32087SOL     OW98892   8.276   4.431   8.065  0.8112  0.2248  0.2154
32087SOL    HW198893   8.223   4.352   8.058  1.3342 -0.2143  1.0926
32087SOL    HW298894   8.216   4.502   8.039  0.7343 -0.5593 -1.9395
32088SOL     OW98895   7.316   4.595   4.964 -0.4502  0.1071  0.7712
32088SOL    HW198896   7.268   4.607   5.046  0.3865 -0.8626  1.4309
32088SOL    HW298897   7.405   4.575   4.992  0.3114  1.6785 -0.4182
32089SOL     OW98898  10.053   0.358   7.099 -0.0779 -0.0158  0.1816
32089SOL    HW198899  10.080   0.266   7.102 -1.3049 -0.4059 -0.1925
32089SOL    HW298900  10.086   0.395   7.181  0.5820 -0.7396  0.2565
32090SOL     OW98901   7.456   0.900   4.057 -0.0628 -0.2922 -0.0316
32090SOL    HW198902   7.403   0.964   4.105 -0.9208  0.2187 -1.6128
32090SOL    HW298903   7.524   0.952   4.016 -0.2494 -0.5047 -0.6169
32091SOL     OW98904  10.129   8.190   0.028 -0.1823  0.2758 -0.0828
32091SOL    HW198905  10.074   8.181  -0.050 -0.2860  2.8099 -0.3853
32091SOL    HW298906  10.096   8.124   0.089  0.3880 -2.3347 -2.3798
32092SOL     OW98907   0.667   2.086   2.162  0.3343 -0.6545 -0.1129
32092SOL    HW198908   0.633   2.117   2.078  3.0663 -0.4370 -1.2376
32092SOL    HW298909   0.761   2.102   2.158  0.3351  2.0580  4.1756
32093SOL     OW98910   0.117   8.625   2.423  0.0014  0.2476 -0.6274
32093SOL    HW198911   0.187   8.561   2.415 -0.5800 -0.8075  1.7370
32093SOL    HW298912   0.039   8.581   2.390 -0.1066  0.2950 -0.4413
32094SOL     OW98913   4.091   5.153   3.401 -0.2140  0.3188 -0.0173
32094SOL    HW198914   4.010   5.175   3.446 -0.4199 -0.0430 -0.2022
32094SOL    HW298915   4.127   5.079   3.450  0.3269  0.8755  0.4347
32095SOL     OW98916  10.000   9.922   4.175  0.7489  0.1591  0.1387
32095SOL    HW198917   9.931   9.891   4.118  1.0861 -0.7736  0.2116
32095SOL    HW298918   9.972   9.896   4.263  0.9171  0.2854  0.2312
32096SOL     OW98919   8.110   3.600   6.589  0.2681  0.1705 -0.6226
32096SOL    HW198920   8.047   3.644   6.646  0.6743  2.5812 -1.9011
32096SOL    HW298921   8.182   3.663   6.581  1.4158 -1.2219 -1.6867
32097SOL     OW98922   2.542   7.130   9.784  0.2827  0.1845 -0.4990
32097SOL    HW198923   2.572   7.152   9.696  1.2100  1.9178  0.2047
32097SOL    HW298924   2.579   7.198   9.840 -2.2757  0.5390  0.9173
32098SOL     OW98925   6.885   1.119   7.379 -0.1572  0.7150 -0.0967
32098SOL    HW198926   6.933   1.037   7.374  1.3430  1.4290  1.4121
32098SOL    HW298927   6.793   1.095   7.369  0.3240 -1.0078 -0.5775
32099SOL     OW98928   7.435   5.589   1.365  0.2709 -0.1658 -0.1975
32099SOL    HW198929   7.429   5.622   1.275  0.5945 -0.2444 -0.2465
32099SOL    HW298930   7.470   5.662   1.415 -1.0735  0.3149  0.1059
32100SOL     OW98931   9.356   2.822   6.571 -0.2483  0.0244 -0.1259
32100SOL    HW198932   9.430   2.798   6.627  0.4390  0.8695 -0.6436
32100SOL    HW298933   9.334   2.910   6.598 -0.3719  0.1716 -0.6944
32101SOL     OW98934   8.803   1.200   2.459 -0.1028  0.1250  0.7699
32101SOL    HW198935   8.852   1.163   2.532  0.5480 -0.1285  0.2161
32101SOL    HW298936   8.804   1.295   2.474 -3.2927 -0.0549  3.1526
32102SOL     OW98937   5.145   0.323   3.132  0.2841  0.5740  0.4376
32102SOL    HW198938   5.197   0.374   3.070  2.2714 -0.8746  0.7874
32102SOL    HW298939   5.183   0.344   3.217 -0.1331 -0.0383  0.7823
32103SOL     OW98940   7.052   9.361   4.434  0.2651 -0.4113 -0.0651
32103SOL    HW198941   7.126   9.331   4.382 -0.0739  1.7523 -1.9309
32103SOL    HW298942   7.011   9.430   4.382 -1.6640  0.1090  1.9496
32104SOL     OW98943   7.167   0.185   5.318 -0.2102  0.4276 -0.1525
32104SOL    HW198944   7.188   0.231   5.238  1.3041 -1.0094 -0.6503
32104SOL    HW298945   7.114   0.110   5.290  1.0294 -0.5565  0.0279
32105SOL     OW98946   3.193   6.932   8.694  0.2006 -0.3537  0.2132
32105SOL    HW198947   3.106   6.968   8.707  0.8919  1.1285  0.9807
32105SOL    HW298948   3.190   6.845   8.735 -1.1626 -0.7043 -0.6003
32106SOL     OW98949   1.096   4.688   1.064  0.0901 -0.3649 -0.5182
32106SOL    HW198950   1.113   4.762   1.122  0.2661 -0.2755 -0.6796
32106SOL    HW298951   1.076   4.728   0.979  0.5024 -0.5017 -0.6873
32107SOL     OW98952   2.344   2.223   3.700 -0.3964 -0.8185 -0.6457
32107SOL    HW198953   2.394   2.267   3.769  0.1687  1.2312 -2.2737
32107SOL    HW298954   2.405   2.160   3.662 -0.3246 -1.0850 -0.0997
32108SOL     OW98955   9.024  10.185   0.250  0.2392 -0.1559 -0.1722
32108SOL    HW198956   8.973  10.262   0.224 -1.2774 -0.2120  2.2809
32108SOL    HW298957   9.090  10.220   0.310  1.2750 -0.4613 -1.1157
32109SOL     OW98958   7.122   0.184   2.875  0.1161  0.0259  0.3902
32109SOL    HW198959   7.123   0.163   2.781 -0.8381  3.7529 -0.6058
32109SOL    HW298960   7.214   0.182   2.900  0.8400  2.4123 -1.6378
32110SOL     OW98961   2.001   1.069   6.224 -0.2289  0.5275  0.4033
32110SOL    HW198962   1.917   1.024   6.230 -0.4759  0.7333 -1.1730
32110SOL    HW298963   1.995   1.141   6.288 -0.7157 -0.2564  1.2591
32111SOL     OW98964   0.458   8.197   8.631 -0.0887 -0.5300  0.0745
32111SOL    HW198965   0.444   8.114   8.676 -0.0898 -1.6357 -1.8474
32111SOL    HW298966   0.411   8.262   8.684  0.4179 -1.6107  1.9481
32112SOL     OW98967   1.788   4.169   5.968  0.3905  0.5725  0.0387
32112SOL    HW198968   1.821   4.242   5.915  2.5574 -0.4240 -0.1243
32112SOL    HW298969   1.843   4.169   6.046 -0.4670 -0.0674  0.6582
32113SOL     OW98970   1.309   0.223   6.406 -0.5549  0.1291  0.5763
32113SOL    HW198971   1.378   0.222   6.472 -0.1407  1.2084  0.1880
32113SOL    HW298972   1.239   0.171   6.444  0.5718 -1.2662  0.8545
32114SOL     OW98973   3.885   5.701   6.836  0.5323  0.1293  0.3405
32114SOL    HW198974   3.934   5.620   6.824  1.2088  0.6073 -0.1731
32114SOL    HW298975   3.800   5.685   6.794  0.5744 -0.3904  0.4516
32115SOL     OW98976   3.345   0.065   4.868  0.1500 -0.2243  0.3070
32115SOL    HW198977   3.397   0.022   4.801  0.3324  0.9941 -0.3628
32115SOL    HW298978   3.256   0.031   4.856  0.4780 -1.1569  0.4598
32116SOL     OW98979   6.589   3.364   8.895  0.1294 -0.0286 -0.8229
32116SOL    HW198980   6.605   3.389   8.804 -0.2156 -0.3522 -0.9782
32116SOL    HW298981   6.540   3.438   8.932  1.8343  0.9202 -0.3703
32117SOL     OW98982   7.875   1.920   8.298 -0.1803 -0.5788  0.2272
32117SOL    HW198983   7.939   1.869   8.247 -2.4998 -2.5607 -0.9332
32117SOL    HW298984   7.791   1.903   8.254 -1.6473  1.2513  2.1334
32118SOL     OW98985   7.305   3.762   6.069 -0.5769  0.1572 -0.0616
32118SOL    HW198986   7.279   3.854   6.075 -1.6003 -0.0249 -1.3421
32118SOL    HW298987   7.394   3.765   6.034 -0.4355  0.6604  0.3240
32119SOL     OW98988   2.310   1.391   3.723 -0.3137 -0.1772 -0.5067
32119SOL    HW198989   2.382   1.412   3.663  0.0611 -0.0229 -0.0079
32119SOL    HW298990   2.345   1.322   3.779 -0.4827  0.0392 -0.1312
32120SOL     OW98991   6.274   4.811   2.664 -0.4021 -0.3773 -0.2327
32120SOL    HW198992   6.294   4.782   2.752  0.3091 -0.6254 -0.4694
32120SOL    HW298993   6.359   4.812   2.619 -0.6051  0.7091 -0.6316
32121SOL     OW98994   4.482   1.826   1.909  0.1424 -0.2770 -0.1068
32121SOL    HW198995   4.497   1.737   1.941  0.5355  0.0956  0.7502
32121SOL    HW298996   4.454   1.875   1.986 -0.6604  0.2141 -0.6920
32122SOL     OW98997   0.305   9.081   0.777 -0.1997  0.5022 -0.2927
32122SOL    HW198998   0.322   9.151   0.713  0.0614  0.1184 -0.6494
32122SOL    HW298999   0.376   9.019   0.764  0.0001  0.5420  0.5618
32123SOL     OW99000   5.510   1.977   1.172 -0.2845  0.2611 -0.4687
32123SOL    HW199001   5.464   2.060   1.184 -1.3528 -0.2163 -1.0510
32123SOL    HW299002   5.602   2.000   1.161 -0.6727  1.4236 -1.3827
32124SOL     OW99003   0.291   3.938  10.143 -0.4370  0.0815  0.2746
32124SOL    HW199004   0.287   3.859  10.197  0.4069  0.3651  0.7635
32124SOL    HW299005   0.384   3.949  10.123 -0.5333  1.0240  0.3160
32125SOL     OW99006   7.929   7.433   8.794  0.4036  0.1051 -0.1527
32125SOL    HW199007   7.868   7.381   8.847  0.2209 -1.2851 -1.6588
32125SOL    HW299008   7.877   7.507   8.764 -0.3182 -0.5987 -0.6898
32126SOL     OW99009   2.302   5.729   5.431  0.0856  0.1044 -0.3925
32126SOL    HW199010   2.358   5.670   5.482 -1.3853 -0.7336  0.3334
32126SOL    HW299011   2.214   5.691   5.439 -0.4557  0.8305 -2.2777
32127SOL     OW99012   3.479   6.465   6.460 -0.2679 -0.5507 -0.0643
32127SOL    HW199013   3.449   6.449   6.371 -1.3518 -1.8942  0.5051
32127SOL    HW299014   3.408   6.517   6.499  0.5662  0.7384 -0.1836
32128SOL     OW99015   5.878   4.323   8.189  0.3338 -0.5559  0.4608
32128SOL    HW199016   5.836   4.277   8.116  1.2232  0.3722 -0.6756
32128SOL    HW299017   5.917   4.401   8.149  0.2308  0.3594  2.0584
32129SOL     OW99018   3.911   7.752   0.877 -0.2137 -0.3584  0.3138
32129SOL    HW199019   3.960   7.760   0.796 -0.6805 -1.4052 -0.0819
32129SOL    HW299020   3.824   7.786   0.856 -0.4132 -0.8779  0.3075
32130SOL     OW99021   0.332   6.762   8.603 -0.0056  0.5605 -0.2193
32130SOL    HW199022   0.289   6.698   8.546 -0.9943  0.9429  0.0816
32130SOL    HW299023   0.281   6.842   8.592 -0.1251  0.6868  1.0899
32131SOL     OW99024   6.417   6.578   5.852 -0.4131  0.0354  0.0698
32131SOL    HW199025   6.501   6.577   5.807  0.0041 -0.3770  0.8456
32131SOL    HW299026   6.369   6.503   5.818  0.4903 -1.1808  1.3891
32132SOL     OW99027   2.915   7.856   0.247 -0.1784  0.5081  0.1672
32132SOL    HW199028   2.875   7.879   0.330  0.8189  0.8232  0.5709
32132SOL    HW299029   2.857   7.788   0.211 -0.7213  0.5004  1.0208
32133SOL     OW99030   4.992   7.859   9.813 -0.1207  0.7705  0.1664
32133SOL    HW199031   5.053   7.813   9.871  0.0178  0.4413 -0.2279
32133SOL    HW299032   4.983   7.946   9.851 -0.2591  0.4645  0.8353
32134SOL     OW99033   1.087   5.535   8.918  0.9411  0.0095  0.2906
32134SOL    HW199034   1.150   5.582   8.863  1.1161 -0.3498  0.1848
32134SOL    HW299035   1.120   5.546   9.007  0.0810  1.5114  0.4621
32135SOL     OW99036   7.162   4.530   4.222 -0.1930  0.8694  0.1824
32135SOL    HW199037   7.107   4.570   4.154  1.1841  1.6738 -0.5161
32135SOL    HW299038   7.227   4.597   4.242 -0.6092  0.6791  2.4113
32136SOL     OW99039   2.799   4.920   5.802  0.1464 -0.3075 -0.0803
32136SOL    HW199040   2.848   4.854   5.753  0.2456 -1.2759  1.2712
32136SOL    HW299041   2.708   4.894   5.794  0.2961 -1.5235  1.6875
32137SOL     OW99042   5.667   8.701   1.821 -0.1811  0.4428  0.9069
32137SOL    HW199043   5.736   8.646   1.857 -0.0935 -0.8507 -1.0890
32137SOL    HW299044   5.712   8.758   1.759 -0.6828  0.7315  0.8052
32138SOL     OW99045   5.324   8.083   4.405 -0.5240  0.1906  0.0234
32138SOL    HW199046   5.259   8.027   4.447  0.0126 -1.4760 -1.2791
32138SOL    HW299047   5.360   8.136   4.477 -0.2011 -1.9551  1.5326
32139SOL     OW99048   7.980   7.405   7.408 -0.0160  0.4862  0.1963
32139SOL    HW199049   7.896   7.450   7.404 -0.1744  0.1050 -0.9309
32139SOL    HW299050   7.964   7.318   7.371  1.5245  1.4602 -3.1559
32140SOL     OW99051   3.639   8.523   5.584 -0.5119 -0.4276 -0.2325
32140SOL    HW199052   3.681   8.486   5.662 -0.1857 -0.0809 -0.2392
32140SOL    HW299053   3.636   8.451   5.521 -1.3971 -0.9013  0.3353
32141SOL     OW99054   6.944   2.116   5.579  0.2505 -0.1249  0.4949
32141SOL    HW199055   6.861   2.125   5.625 -0.1337 -0.0279 -0.2190
32141SOL    HW299056   7.009   2.107   5.650 -0.2560  0.6045  1.0695
32142SOL     OW99057   0.152   5.192   4.926  0.0111 -0.0674  0.4897
32142SOL    HW199058   0.136   5.104   4.961 -1.1235  0.0391  0.2820
32142SOL    HW299059   0.243   5.190   4.897  0.0987 -1.0720  0.7911
32143SOL     OW99060   3.635   4.424   6.385  0.2564 -0.4939  0.0903
32143SOL    HW199061   3.608   4.370   6.311  2.7938 -1.3852 -0.2742
32143SOL    HW299062   3.717   4.465   6.357 -0.6269  2.1952  1.0436
32144SOL     OW99063   0.861   3.128   3.158 -0.4873  0.1906 -0.3967
32144SOL    HW199064   0.808   3.157   3.084 -0.7528 -2.1592 -1.2412
32144SOL    HW299065   0.944   3.101   3.118 -0.4739 -0.6929  0.1856
32145SOL     OW99066   2.744   9.415   1.318  0.8497  0.0506 -1.0363
32145SOL    HW199067   2.733   9.419   1.223 -2.5547 -1.4904 -0.8506
32145SOL    HW299068   2.752   9.322   1.337 -0.7619  0.1353  0.2984
32146SOL     OW99069   4.856   2.343   8.062  0.1487 -0.3146 -0.3583
32146SOL    HW199070   4.785   2.335   7.999  0.1215 -2.1013 -0.1392
32146SOL    HW299071   4.909   2.265   8.049  0.0215 -0.8563  1.9451
32147SOL     OW99072   3.737   3.600   8.206 -0.2349  0.0334 -0.0892
32147SOL    HW199073   3.806   3.665   8.196  0.9442 -1.2502 -0.7109
32147SOL    HW299074   3.727   3.590   8.301  0.8350 -0.1277  0.0260
32148SOL     OW99075   2.238   8.783   6.528  0.1069 -0.7666 -0.1290
32148SOL    HW199076   2.199   8.854   6.477 -0.8115 -1.3167 -0.2307
32148SOL    HW299077   2.325   8.770   6.491 -0.1757 -0.4898 -0.8895
32149SOL     OW99078   7.040   6.454   2.335 -0.2139 -0.1925 -0.5134
32149SOL    HW199079   7.102   6.475   2.405 -0.3575 -0.4403 -0.3103
32149SOL    HW299080   7.094   6.446   2.257  0.0477 -0.6975 -0.2849
32150SOL     OW99081   5.670   3.721   0.599  0.0626 -0.3463 -0.0627
32150SOL    HW199082   5.627   3.737   0.683 -1.9931  0.2295 -1.1764
32150SOL    HW299083   5.751   3.773   0.604  0.0274 -0.3973  1.5740
32151SOL     OW99084   3.180   5.011   2.128  0.0335  0.4313  0.3467
32151SOL    HW199085   3.265   4.980   2.095  1.1460  1.3938  2.1207
32151SOL    HW299086   3.180   5.105   2.109  0.1924  0.7775  1.9059
32152SOL     OW99087   2.857   9.990   7.920 -0.4094  0.2162  0.0087
32152SOL    HW199088   2.810   9.997   7.837  1.7811 -0.9155 -1.4326
32152SOL    HW299089   2.854  10.079   7.957 -0.8254  0.9307 -1.6459
32153SOL     OW99090   7.403   3.259   9.355 -0.5800  0.6237  0.2794
32153SOL    HW199091   7.357   3.335   9.391  0.1243  0.5794  1.3308
32153SOL    HW299092   7.472   3.242   9.419  0.9305  0.7253 -1.2674
32154SOL     OW99093   9.590   4.754   6.030 -0.2915 -0.0824  0.6639
32154SOL    HW199094   9.513   4.767   5.975  0.0047 -1.5133 -0.1477
32154SOL    HW299095   9.645   4.830   6.013 -0.8950  0.2431  0.1453
32155SOL     OW99096  10.127   8.747   4.856 -0.8002 -0.3304 -0.3528
32155SOL    HW199097  10.106   8.654   4.849 -1.5579 -0.1847 -0.1549
32155SOL    HW299098  10.125   8.779   4.766 -4.8245  0.3588 -0.2120
32156SOL     OW99099   8.172   0.046   0.664  0.5136  0.1534 -0.2838
32156SOL    HW199100   8.128   0.011   0.742  2.0160  2.3209  1.6627
32156SOL    HW299101   8.129   0.129   0.646  0.3495 -0.1983 -1.6671
32157SOL     OW99102   3.628   6.826   8.955  0.3894 -0.1366  0.0666
32157SOL    HW199103   3.721   6.847   8.955  0.3366  0.1056 -0.2774
32157SOL    HW299104   3.599   6.846   9.044  0.5643  0.2445  0.0392
32158SOL     OW99105   4.825   4.996   3.937  0.2756 -0.2350 -0.0401
32158SOL    HW199106   4.792   5.084   3.955  0.6308 -0.2657  0.8406
32158SOL    HW299107   4.918   5.001   3.960  0.0552 -1.1301  1.1638
32159SOL     OW99108   4.662   0.070   9.353  0.2225 -0.3001 -0.0636
32159SOL    HW199109   4.649   0.117   9.270  0.2801  0.5629  0.4049
32159SOL    HW299110   4.706  -0.011   9.328  1.3250  0.4849 -0.7693
32160SOL     OW99111   2.966  10.009   7.106  0.6596 -0.0433 -0.7633
32160SOL    HW199112   3.049  10.023   7.150  1.3406 -0.2294 -1.9390
32160SOL    HW299113   2.987  10.013   7.012 -0.8394  1.0314 -1.1001
32161SOL     OW99114   1.504   7.561   4.420  0.1042  0.0152 -0.2033
32161SOL    HW199115   1.552   7.644   4.426  1.7558 -0.9105 -0.0372
32161SOL    HW299116   1.429   7.572   4.479 -0.2611  1.7090 -0.9124
32162SOL     OW99117   6.693   2.309   4.173 -0.3337 -0.0696 -0.0726
32162SOL    HW199118   6.755   2.356   4.117  1.3400 -1.5484  0.4474
32162SOL    HW299119   6.658   2.240   4.116  1.0082 -1.2727  0.4922
32163SOL     OW99120   0.726   5.107   5.386  0.1574  0.1942 -0.2327
32163SOL    HW199121   0.728   5.067   5.473 -1.3192  0.2984 -0.1306
32163SOL    HW299122   0.791   5.177   5.391 -0.0095  0.2901  0.8391
32164SOL     OW99123   7.137   4.062   7.768  0.3418  0.3266  0.4435
32164SOL    HW199124   7.186   3.982   7.750  2.9199  1.9946 -0.4361
32164SOL    HW299125   7.175   4.096   7.849  0.3405  1.4327 -0.0003
32165SOL     OW99126   8.364   1.262   8.947  0.1413  0.1465 -0.0025
32165SOL    HW199127   8.402   1.336   8.994  1.1632 -0.7520  0.6501
32165SOL    HW299128   8.312   1.217   9.013 -0.5052  0.3057 -0.4055
32166SOL     OW99129   0.496   2.102   3.242 -0.3718 -0.6711  0.2386
32166SOL    HW199130   0.430   2.160   3.204 -2.7500 -2.0769  1.9952
32166SOL    HW299131   0.562   2.161   3.278 -0.5252  0.7782 -1.7145
32167SOL     OW99132   8.772   9.027   9.525 -0.5562 -0.5968 -0.3225
32167SOL    HW199133   8.748   9.113   9.492 -0.0395  0.0852  0.9769
32167SOL    HW299134   8.718   9.015   9.603 -0.1729 -1.1647 -0.1339
32168SOL     OW99135   8.925   9.302   9.428 -0.4370  0.2849  0.0621
32168SOL    HW199136   8.860   9.366   9.400 -1.2917 -1.3864 -2.0720
32168SOL    HW299137   9.010   9.345   9.413 -0.9843  0.9456 -1.2508
32169SOL     OW99138   5.506   3.777   4.474  0.0635  0.4962 -0.0722
32169SOL    HW199139   5.578   3.839   4.472 -0.4570  1.1550  0.8059
32169SOL    HW299140   5.497   3.753   4.566 -0.7151  0.2803 -0.1963
32170SOL     OW99141   3.339   2.503   4.878 -0.2570  0.0865 -0.0048
32170SOL    HW199142   3.284   2.519   4.954  0.8154 -0.1096  0.8495
32170SOL    HW299143   3.292   2.542   4.805 -1.5306 -0.1226  0.6768
32171SOL     OW99144   0.097   6.198   5.079  0.3355  0.1303  0.1431
32171SOL    HW199145   0.101   6.150   5.162  0.2019 -0.0659  0.0347
32171SOL    HW299146   0.171   6.164   5.028  1.2404  1.1986  0.6896
32172SOL     OW99147   4.798   1.712   4.024  0.2863  0.0608 -0.2001
32172SOL    HW199148   4.736   1.651   4.064  0.7818 -1.1334 -1.1896
32172SOL    HW299149   4.743   1.785   3.993 -0.3887 -0.1456  0.4820
32173SOL     OW99150   1.456   2.849   4.754  0.1521 -0.0000 -0.4028
32173SOL    HW199151   1.467   2.828   4.661  0.0137 -0.2187 -0.3720
32173SOL    HW299152   1.412   2.934   4.755 -1.9330 -1.0137 -0.5703
32174SOL     OW99153   5.966   7.120   0.146  0.8015 -0.4972 -0.0998
32174SOL    HW199154   5.920   7.093   0.067  1.3343 -0.7727 -0.3189
32174SOL    HW299155   6.049   7.073   0.143  0.2236 -1.6836  1.3809
32175SOL     OW99156   4.180   2.996   6.933 -0.2207  0.1102 -0.4841
32175SOL    HW199157   4.273   2.976   6.921  0.6715  2.6719  1.2377
32175SOL    HW299158   4.178   3.058   7.006 -3.2419  0.6569 -0.8865
32176SOL     OW99159   6.803   2.362   9.905 -0.2009 -0.7598  0.2426
32176SOL    HW199160   6.864   2.296   9.938 -0.7087 -0.8595  1.0036
32176SOL    HW299161   6.760   2.397   9.983 -2.1699 -1.7312 -0.3289
32177SOL     OW99162   3.467   3.292   8.348  0.5130  0.5226 -0.5192
32177SOL    HW199163   3.539   3.240   8.312  0.3429 -1.4823  1.7707
32177SOL    HW299164   3.417   3.230   8.401  0.1233  2.9467  2.1853
32178SOL     OW99165   2.432   9.879   6.438  0.2589  0.9778 -0.4386
32178SOL    HW199166   2.429   9.830   6.520 -0.4859 -0.5705 -1.3566
32178SOL    HW299167   2.352   9.932   6.439  0.2819  1.0095 -0.1503
32179SOL     OW99168   5.844   2.652   6.266 -0.1581  0.0546  0.4847
32179SOL    HW199169   5.767   2.621   6.220  0.9413 -1.9160 -0.1311
32179SOL    HW299170   5.886   2.573   6.301  0.9079  1.1761  1.9089
32180SOL     OW99171   4.673   5.752   1.401  0.1840  0.7703  0.1953
32180SOL    HW199172   4.666   5.790   1.489 -0.0236 -0.7232  0.8632
32180SOL    HW299173   4.760   5.777   1.371  0.0878  1.6799  0.6397
32181SOL     OW99174   2.918   1.746   7.647 -0.3698  0.2129 -0.5044
32181SOL    HW199175   2.834   1.789   7.635 -0.7888 -0.1470  0.8937
32181SOL    HW299176   2.915   1.713   7.737  1.4336  0.5772 -0.2705
32182SOL     OW99177   9.410   0.063   1.532  0.4197 -0.2682 -0.1575
32182SOL    HW199178   9.426  -0.026   1.501  1.8269 -0.2948  0.5394
32182SOL    HW299179   9.353   0.102   1.466  1.0093 -1.2125 -1.2614
32183SOL     OW99180   5.306   8.084   9.672 -0.2339  0.1753  0.2204
32183SOL    HW199181   5.333   8.078   9.764  1.9099 -2.2210 -0.4575
32183SOL    HW299182   5.382   8.119   9.626 -2.0717  3.7743 -0.4824
32184SOL     OW99183   3.592   6.823   9.253 -0.7024  0.1764  0.8918
32184SOL    HW199184   3.656   6.895   9.254 -1.5751  0.9577  1.2645
32184SOL    HW299185   3.627   6.760   9.316  0.5445 -0.1613 -0.0976
32185SOL     OW99186   9.080   4.516   7.349 -0.2600  0.4307 -0.3911
32185SOL    HW199187   9.091   4.602   7.389  1.6373 -0.1214  0.3587
32185SOL    HW299188   8.985   4.506   7.341 -0.5624  2.0442  0.6841
32186SOL     OW99189  10.279   5.721   2.088  0.2594 -0.6390 -0.2001
32186SOL    HW199190  10.264   5.661   2.162 -1.5119 -0.7548 -0.6014
32186SOL    HW299191  10.193   5.728   2.046  0.0190  3.1068  0.5227
32187SOL     OW99192   4.253   4.240   1.210  0.0037  0.3894  0.0028
32187SOL    HW199193   4.273   4.307   1.274  2.0815  0.7959 -0.9669
32187SOL    HW299194   4.210   4.170   1.260 -2.2116  2.3637  1.0236
32188SOL     OW99195   9.968   5.908   7.688 -0.5876  0.0853  0.4526
32188SOL    HW199196   9.875   5.920   7.667 -0.7490 -0.3174  0.9207
32188SOL    HW299197   9.981   5.958   7.768 -0.6054 -0.5541  0.8615
32189SOL     OW99198   5.151   6.703   5.165 -0.5250 -0.0730 -0.7923
32189SOL    HW199199   5.120   6.613   5.153 -0.1088 -0.4733  0.8931
32189SOL    HW299200   5.079   6.747   5.210  0.2520 -0.2621  0.6659
32190SOL     OW99201   7.102   5.257   4.159 -0.2698  0.0579  0.0315
32190SOL    HW199202   7.081   5.164   4.160 -0.1671 -0.1231 -2.9953
32190SOL    HW299203   7.197   5.261   4.166  0.1534 -0.4777 -3.4405
32191SOL     OW99204   9.520   6.687   7.830  0.1669 -0.3108 -0.0691
32191SOL    HW199205   9.576   6.676   7.906 -1.5606 -0.0610  1.3046
32191SOL    HW299206   9.510   6.782   7.820  0.3168 -0.3431 -0.5605
32192SOL     OW99207   0.539   8.415   9.567 -0.7217 -0.4456 -0.1299
32192SOL    HW199208   0.475   8.485   9.579 -1.3544 -1.2935  1.9219
32192SOL    HW299209   0.532   8.362   9.647  0.7567 -2.0213 -0.9729
32193SOL     OW99210   7.458   3.993   5.875 -0.1432  0.3635  0.4138
32193SOL    HW199211   7.425   4.083   5.882 -1.5224 -0.1972  1.4298
32193SOL    HW299212   7.404   3.953   5.807 -0.6676 -0.1692  1.1312
32194SOL     OW99213   4.057   0.179   0.529 -0.5810 -0.3180  0.6031
32194SOL    HW199214   4.117   0.191   0.455 -0.3296 -0.1864  0.8230
32194SOL    HW299215   4.011   0.097   0.511 -0.3818 -0.3846  0.3989
32195SOL     OW99216   6.434   0.785   1.455 -0.2724  0.4946 -0.2894
32195SOL    HW199217   6.512   0.763   1.405 -1.2698  0.5098 -1.9306
32195SOL    HW299218   6.411   0.873   1.427 -1.4460  0.1014 -0.6147
32196SOL     OW99219   5.682   9.062   1.454 -0.5907  0.6895  0.3971
32196SOL    HW199220   5.705   9.111   1.375  0.6083  0.4579  0.5945
32196SOL    HW299221   5.587   9.076   1.463 -0.4915  1.9464 -0.2347
32197SOL     OW99222   6.382   9.507   6.621 -0.0412  0.3258 -0.2452
32197SOL    HW199223   6.319   9.489   6.550  0.5932  0.4536 -0.8502
32197SOL    HW299224   6.358   9.445   6.690  0.8275 -1.4860 -1.5073
32198SOL     OW99225   7.877   5.360   7.989  0.3099  0.0872  0.5095
32198SOL    HW199226   7.872   5.384   8.081  0.7721 -1.2083  0.8895
32198SOL    HW299227   7.851   5.268   7.986 -1.2860  0.5283 -0.8743
32199SOL     OW99228   0.742   6.416   9.623 -0.0122 -0.4866  0.1082
32199SOL    HW199229   0.690   6.428   9.702  1.0213 -1.6563  1.0077
32199SOL    HW299230   0.742   6.321   9.609  0.6013 -0.3695 -0.7521
32200SOL     OW99231   5.824   0.150   5.215 -0.6243 -0.2345  0.0556
32200SOL    HW199232   5.755   0.210   5.187  0.1166  0.3386 -0.5872
32200SOL    HW299233   5.881   0.141   5.139  0.8608  0.5354  1.0295
32201SOL     OW99234   8.384   0.740   4.028 -0.6210 -0.5874 -0.1655
32201SOL    HW199235   8.412   0.771   3.942 -1.0953  0.9714  0.2206
32201SOL    HW299236   8.430   0.796   4.090  0.0234 -1.9495  0.6454
32202SOL     OW99237   3.310   0.169   2.046  0.6664 -0.3651  0.4670
32202SOL    HW199238   3.344   0.088   2.083 -1.6373 -0.4314  2.6874
32202SOL    HW299239   3.284   0.221   2.122 -0.7704  1.1396 -0.9723
32203SOL     OW99240   5.350   3.268   7.284 -0.3746  0.0871 -0.6851
32203SOL    HW199241   5.308   3.250   7.200  0.4645 -1.0114 -0.8995
32203SOL    HW299242   5.417   3.200   7.292 -1.8765 -1.2492  1.8899
32204SOL     OW99243   4.161   6.724  10.072 -0.6860 -0.1428  0.3796
32204SOL    HW199244   4.112   6.802  10.100 -0.5516 -0.7438  2.5024
32204SOL    HW299245   4.253   6.748  10.087 -0.4981 -0.0079 -0.9199
32205SOL     OW99246   8.930   8.084   0.231 -0.4932  1.2794 -0.1745
32205SOL    HW199247   8.972   8.017   0.284 -0.6138  1.8333  0.6367
32205SOL    HW299248   8.895   8.037   0.156  2.9284  0.9508 -1.7728
32206SOL     OW99249   9.373   3.973   6.935 -0.0845 -0.3075 -0.3395
32206SOL    HW199250   9.444   4.009   6.988 -1.9674  0.1257  2.0697
32206SOL    HW299251   9.333   4.049   6.894  0.3960 -0.4817 -1.1509
32207SOL     OW99252   4.299   0.314   4.266 -0.2725 -0.5568 -0.1923
32207SOL    HW199253   4.262   0.262   4.338  0.0128  0.5180  0.7513
32207SOL    HW299254   4.322   0.398   4.305  0.2687 -0.0799 -1.4578
32208SOL     OW99255   3.072   5.912   2.147 -0.2056 -0.5452  0.2671
32208SOL    HW199256   3.167   5.929   2.144 -0.1232 -1.1008 -0.8822
32208SOL    HW299257   3.058   5.864   2.228  0.5092 -0.5018  0.4216
32209SOL     OW99258   6.723   8.475   6.270 -0.1762 -0.1665 -0.0505
32209SOL    HW199259   6.792   8.455   6.206 -0.2386  0.2161 -0.2410
32209SOL    HW299260   6.655   8.519   6.218  0.4873  1.6620  0.5774
32210SOL     OW99261   2.431   8.852   0.630  0.4325 -0.6035 -0.2129
32210SOL    HW199262   2.435   8.781   0.694  0.3389 -1.1916 -0.8488
32210SOL    HW299263   2.516   8.850   0.587  0.2101 -0.7282 -0.6517
32211SOL     OW99264   0.337   0.775   7.446 -0.4140 -0.0612  0.1714
32211SOL    HW199265   0.323   0.705   7.383 -2.2740 -1.6402  2.2107
32211SOL    HW299266   0.249   0.806   7.468  0.2181  0.8845  1.5050
32212SOL     OW99267   1.183   6.770   5.974 -0.5120 -0.5981 -0.7762
32212SOL    HW199268   1.108   6.714   5.953 -1.8316  0.5986  0.4442
32212SOL    HW299269   1.178   6.841   5.910 -0.4983 -0.4589 -0.6232
32213SOL     OW99270   6.911   0.702   7.606 -0.2896 -0.2433  0.1104
32213SOL    HW199271   6.889   0.621   7.560 -0.8664 -0.4218  0.6952
32213SOL    HW299272   6.901   0.682   7.698 -1.0079  0.6466  0.2491
32214SOL     OW99273   3.946   7.252   7.756  0.2882 -0.0701  0.2187
32214SOL    HW199274   3.999   7.275   7.679  1.4718 -0.0109  1.0183
32214SOL    HW299275   3.900   7.172   7.731  2.2915 -1.2726  0.1436
32215SOL     OW99276   5.650   6.449   2.451 -0.4328  0.3597 -0.1271
32215SOL    HW199277   5.731   6.447   2.501 -0.1654 -0.7592 -0.5822
32215SOL    HW299278   5.678   6.460   2.360 -0.9132  2.3849 -0.0775
32216SOL     OW99279   5.568   0.648   1.143  0.2227  0.2407  0.6689
32216SOL    HW199280   5.618   0.635   1.062 -0.3030  0.5176  0.2942
32216SOL    HW299281   5.482   0.678   1.113 -0.9143 -2.2405  1.1666
32217SOL     OW99282   7.052   1.262   4.078 -0.6012  0.3742 -0.1491
32217SOL    HW199283   7.137   1.249   4.035 -0.4299  1.8222 -0.2783
32217SOL    HW299284   6.992   1.286   4.007 -1.2453 -1.0589 -0.1236
32218SOL     OW99285   3.307   3.725   6.872  0.0631 -0.1888  0.0830
32218SOL    HW199286   3.259   3.750   6.951  0.6256 -0.0269  0.3791
32218SOL    HW299287   3.284   3.791   6.807  0.9261  0.6728  0.6247
32219SOL     OW99288   8.296   4.672   6.821  0.0645  0.2175  0.4063
32219SOL    HW199289   8.318   4.692   6.913  1.4473  0.0779  0.1214
32219SOL    HW299290   8.230   4.603   6.827 -0.6474  0.9424  1.3107
32220SOL     OW99291   5.612   6.916   7.069 -0.1400 -0.0924  0.4929
32220SOL    HW199292   5.518   6.904   7.065  0.0676 -1.5820 -0.3726
32220SOL    HW299293   5.629   6.939   7.161 -1.2207 -0.9278  0.9283
32221SOL     OW99294   8.447   1.742   4.370 -0.6083  0.1400 -0.1186
32221SOL    HW199295   8.380   1.674   4.358 -2.4948  1.4338  2.2243
32221SOL    HW299296   8.417   1.816   4.317 -0.1871  0.2163 -0.2594
32222SOL     OW99297   0.031   3.608   0.453 -0.1233  0.1696 -0.4150
32222SOL    HW199298   0.028   3.690   0.504  1.0646  1.0054 -1.5980
32222SOL    HW299299  -0.059   3.578   0.451 -0.4712  1.0166  0.7291
32223SOL     OW99300   3.066   6.340   9.449 -0.1139  0.1876 -0.5108
32223SOL    HW199301   3.060   6.410   9.384  1.0129  0.3190 -0.4952
32223SOL    HW299302   3.039   6.381   9.531  0.1021  0.4808 -0.5839
32224SOL     OW99303   6.980   3.951   3.896 -0.3678 -0.3053 -0.4629
32224SOL    HW199304   6.935   3.972   3.815 -1.4988 -1.4087 -0.1579
32224SOL    HW299305   6.998   3.857   3.890 -0.6428 -0.4473  0.6259
32225SOL     OW99306   4.253   2.883   4.784  0.5002  0.5773  0.1745
32225SOL    HW199307   4.188   2.836   4.836  1.2021  0.2576  0.7742
32225SOL    HW299308   4.202   2.948   4.735 -0.5500 -1.1239 -1.0716
32226SOL     OW99309   3.483   7.887   5.532 -0.3927 -0.4630 -1.0452
32226SOL    HW199310   3.455   7.919   5.618  2.6620 -0.5329  0.1008
32226SOL    HW299311   3.499   7.794   5.545 -1.0383 -0.7360 -2.0695
32227SOL     OW99312   5.353   4.344   2.927  0.4387 -0.4158  0.2234
32227SOL    HW199313   5.274   4.289   2.923 -0.6787  1.0813  0.7344
32227SOL    HW299314   5.354   4.379   3.015 -0.8433  3.0379 -0.9709
32228SOL     OW99315   4.768   6.594   2.440 -0.4830 -0.0195  0.0840
32228SOL    HW199316   4.766   6.686   2.415  0.1298 -0.2721 -0.9565
32228SOL    HW299317   4.827   6.553   2.377  0.0223 -0.9572  1.1186
32229SOL     OW99318   0.987   9.994   1.777  0.2137 -0.2336  0.1576
32229SOL    HW199319   0.943  10.018   1.696 -2.4444 -0.9967  1.2650
32229SOL    HW299320   1.003  10.077   1.822 -0.8624  0.0351  0.0674
32230SOL     OW99321   8.819   3.368   3.277  0.0806 -0.1601 -0.0362
32230SOL    HW199322   8.851   3.326   3.357  2.9104  1.4111 -0.2372
32230SOL    HW299323   8.808   3.296   3.215  1.4639 -1.0178  0.6583
32231SOL     OW99324   8.216   7.144   2.146 -0.1749 -0.0506  0.0117
32231SOL    HW199325   8.267   7.065   2.166  0.9769  0.6536 -0.0182
32231SOL    HW299326   8.173   7.125   2.062  0.9976 -0.2472 -0.5686
32232SOL     OW99327   3.335   7.833   6.121 -0.1058 -0.4163  0.0694
32232SOL    HW199328   3.359   7.770   6.190 -2.5698  1.7050  3.1879
32232SOL    HW299329   3.242   7.817   6.106 -0.1785  0.8212 -0.9213
32233SOL     OW99330   8.719   2.631   4.620  0.7826 -0.8503  0.4246
32233SOL    HW199331   8.703   2.546   4.579  2.2004 -1.0000  0.0946
32233SOL    HW299332   8.732   2.611   4.712 -0.0718 -0.8256  0.5556
32234SOL     OW99333   7.548  10.261   9.842  0.3032 -0.1312 -0.0177
32234SOL    HW199334   7.622  10.209   9.811  0.0921  0.2849 -1.2721
32234SOL    HW299335   7.586  10.319   9.908  1.3402  0.7791 -1.3482
32235SOL     OW99336   6.934   7.563   0.275 -0.5762 -0.0918 -0.7828
32235SOL    HW199337   7.025   7.559   0.246 -0.3454  0.1311 -0.0938
32235SOL    HW299338   6.926   7.647   0.320 -0.1972 -1.4746  2.1090
32236SOL     OW99339   6.452  10.192   3.398 -0.0544 -0.0588  0.1064
32236SOL    HW199340   6.415  10.275   3.427 -0.7171  0.2841 -1.6598
32236SOL    HW299341   6.394  10.126   3.436 -1.2912  0.4043 -0.9169
32237SOL     OW99342   6.804   1.956   5.256  0.4815  0.5467  0.4885
32237SOL    HW199343   6.779   1.954   5.163 -0.5348  1.2508  0.7260
32237SOL    HW299344   6.789   2.047   5.283  0.4486  0.2739  1.4277
32238SOL     OW99345   6.788   9.892   0.590  0.2856 -0.1168 -0.5273
32238SOL    HW199346   6.693   9.890   0.579  0.3069  0.5590 -0.8453
32238SOL    HW299347   6.805   9.972   0.639  0.8516  0.7846 -2.1524
32239SOL     OW99348   6.640   2.822   9.608  0.0218 -0.3341  0.0269
32239SOL    HW199349   6.674   2.911   9.602 -0.5577 -0.1500 -0.7733
32239SOL    HW299350   6.569   2.828   9.672 -0.1114 -0.1833 -0.1329
32240SOL     OW99351   6.059   0.772   5.055  0.0190 -0.8882  0.7711
32240SOL    HW199352   6.115   0.701   5.023  1.8553  0.1443  1.5044
32240SOL    HW299353   6.077   0.774   5.150  1.0349  1.3510  0.5862
32241SOL     OW99354   5.916   6.875   9.291  0.2930  0.1212 -0.3258
32241SOL    HW199355   5.959   6.854   9.374  0.5539  0.8659 -0.2703
32241SOL    HW299356   5.859   6.799   9.274  0.6575 -0.2867  0.2453
32242SOL     OW99357   7.897   4.580   9.700 -0.1689  0.0278 -0.2052
32242SOL    HW199358   7.812   4.588   9.656  0.0387  0.6319 -0.5203
32242SOL    HW299359   7.892   4.498   9.748 -0.6687 -0.3002 -0.7982
32243SOL     OW99360   4.776   0.337   9.408 -0.0201 -0.0284 -0.2599
32243SOL    HW199361   4.793   0.251   9.369  0.0519  0.0504 -0.4042
32243SOL    HW299362   4.740   0.318   9.494  2.3982 -0.2119  0.7821
32244SOL     OW99363   8.390   8.700   7.700  0.7095  0.2865  0.1804
32244SOL    HW199364   8.484   8.685   7.687  0.7595 -2.3265  2.5576
32244SOL    HW299365   8.349   8.669   7.620  1.6843 -3.1011  0.8229
32245SOL     OW99366   0.944   8.881   3.940  0.1710  0.1380 -0.5139
32245SOL    HW199367   0.976   8.922   4.020  2.0417 -2.4145  0.1611
32245SOL    HW299368   0.879   8.943   3.906  1.7151  2.8737  1.1485
32246SOL     OW99369   1.424   0.969   4.920 -0.3899 -0.2645 -0.0265
32246SOL    HW199370   1.340   0.959   4.875 -0.0789  0.8972 -0.9268
32246SOL    HW299371   1.471   1.035   4.868  1.1449 -0.9996  0.3620
32247SOL     OW99372   7.899   5.086   3.890 -0.0947  0.2349  0.2176
32247SOL    HW199373   7.949   5.089   3.808  2.1103  0.5414  1.4981
32247SOL    HW299374   7.883   5.178   3.912  0.7005  0.2212  0.9008
32248SOL     OW99375   1.270   5.401   0.133  0.0038  0.4084  0.1723
32248SOL    HW199376   1.321   5.454   0.071  1.3279 -0.6819  0.2913
32248SOL    HW299377   1.330   5.385   0.205  0.7252 -3.5977 -1.0833
32249SOL     OW99378   8.592   7.894   1.417 -0.7127 -0.0101  0.8413
32249SOL    HW199379   8.598   7.973   1.470 -2.3747 -0.6336  2.0545
32249SOL    HW299380   8.527   7.916   1.350  1.3825  0.7791 -1.0695
32250SOL     OW99381   5.350   2.472   6.110 -0.0991 -0.1625  0.2261
32250SOL    HW199382   5.324   2.485   6.201  0.5135 -0.5448  0.4584
32250SOL    HW299383   5.303   2.540   6.062 -0.5147 -0.0298  0.8098
32251SOL     OW99384   6.247   8.930   6.653  0.2098  0.2415 -0.4888
32251SOL    HW199385   6.174   8.931   6.715  1.7922  0.8119  1.4579
32251SOL    HW299386   6.218   8.985   6.581 -1.4542  0.0530 -0.0079
32252SOL     OW99387   4.049   9.954   9.534  0.2176  0.3893 -0.5075
32252SOL    HW199388   4.034   9.911   9.618  1.4903 -0.7473 -0.8199
32252SOL    HW299389   4.004  10.038   9.541 -0.8917 -0.2699  0.7759
32253SOL     OW99390   3.768   6.451   9.585  0.1076 -0.3849  0.2230
32253SOL    HW199391   3.701   6.383   9.572  1.1897 -1.4101 -0.2096
32253SOL    HW299392   3.815   6.423   9.664 -0.1906  0.5121  0.7242
32254SOL     OW99393   6.466   5.574   6.028 -0.2681 -0.5969 -0.2497
32254SOL    HW199394   6.525   5.506   6.061 -0.5179  0.0982  1.7184
32254SOL    HW299395   6.386   5.527   6.005 -0.5251 -0.9774  1.3216
32255SOL     OW99396   3.040   6.388   3.257 -0.6431  0.6120 -0.1771
32255SOL    HW199397   3.114   6.332   3.235  0.6198  1.5686  1.3434
32255SOL    HW299398   2.972   6.328   3.287  0.9172 -0.1736  2.0837
32256SOL     OW99399   2.978   4.243   3.847 -0.0037  0.0545  0.7350
32256SOL    HW199400   3.059   4.236   3.897  0.1292 -0.0895  0.5030
32256SOL    HW299401   3.006   4.236   3.756 -0.2384  0.3761  0.6387
32257SOL     OW99402   8.740   3.696   4.176  0.0174  0.7590 -0.2745
32257SOL    HW199403   8.723   3.685   4.083  0.5905  1.3687 -0.4533
32257SOL    HW299404   8.759   3.608   4.208  2.0855  0.8306 -1.1968
32258SOL     OW99405   1.916   1.656   6.844  0.6916 -0.0871 -0.0306
32258SOL    HW199406   1.901   1.739   6.887  2.4141  0.4175 -0.3345
32258SOL    HW299407   1.835   1.607   6.857 -0.6217  1.8712 -0.4362
32259SOL     OW99408   9.109   5.467   3.231 -0.0071 -0.2271 -0.0562
32259SOL    HW199409   9.028   5.434   3.194 -0.2009  0.0251  0.1382
32259SOL    HW299410   9.178   5.420   3.185 -0.2833 -1.0811  0.3863
32260SOL     OW99411   2.974   3.963   3.624  0.2598  0.4673  0.3526
32260SOL    HW199412   2.957   4.005   3.540  0.6505  0.7041  0.3891
32260SOL    HW299413   3.035   4.022   3.668 -0.1517  0.4741  0.9147
32261SOL     OW99414   7.973   6.495   8.208  0.0977  0.3552  0.6852
32261SOL    HW199415   8.030   6.478   8.133 -0.4927 -2.4188  0.7729
32261SOL    HW299416   7.913   6.562   8.177 -0.7734 -1.3866 -1.7545
32262SOL     OW99417   5.607   2.839   6.786  0.4438 -0.1403 -0.2683
32262SOL    HW199418   5.556   2.814   6.863 -2.5136  2.4141 -1.1868
32262SOL    HW299419   5.630   2.930   6.802 -0.2059  0.4229 -2.3442
32263SOL     OW99420   2.077   9.947   4.635 -0.3034 -0.5696  0.1958
32263SOL    HW199421   1.983   9.952   4.651 -0.3195  0.0023 -0.0554
32263SOL    HW299422   2.115  10.012   4.694 -0.0526 -0.8778  0.3776
32264SOL     OW99423   2.171   5.226   5.140  0.5067 -0.5749  0.3615
32264SOL    HW199424   2.137   5.260   5.223  1.6518 -2.1105  1.5359
32264SOL    HW299425   2.130   5.139   5.132 -1.7015  0.5700 -2.1149
32265SOL     OW99426   5.306   3.613   7.836 -0.3667 -0.0865 -0.3251
32265SOL    HW199427   5.364   3.540   7.813 -0.4820 -0.6433  1.0643
32265SOL    HW299428   5.223   3.572   7.859 -0.6939  0.5531 -0.3277
32266SOL     OW99429   4.832   5.226   1.616  0.0773 -0.5575  0.0873
32266SOL    HW199430   4.789   5.206   1.699 -1.4373 -1.0591 -0.7827
32266SOL    HW299431   4.772   5.193   1.549  1.2631 -0.1722 -1.2190
32267SOL     OW99432   9.862   3.803   5.951 -0.2860  0.0169  0.4194
32267SOL    HW199433   9.943   3.853   5.955 -0.5369  0.4718 -0.1472
32267SOL    HW299434   9.818   3.833   5.872 -0.9051 -0.3884  0.5983
32268SOL     OW99435  10.133   7.696   7.575  0.3017 -0.2437 -0.3910
32268SOL    HW199436  10.110   7.653   7.492 -2.0063  0.6253 -0.2801
32268SOL    HW299437  10.052   7.695   7.625  1.9776 -2.0067  2.5077
32269SOL     OW99438   9.814   3.097   5.932  0.0760  0.3456 -0.1146
32269SOL    HW199439   9.779   3.009   5.917 -0.0587  0.3218  0.3398
32269SOL    HW299440   9.888   3.104   5.872 -0.6783  0.3794 -1.0778
32270SOL     OW99441   0.498   5.448   6.941 -0.4858 -0.0837 -0.0341
32270SOL    HW199442   0.490   5.366   6.891 -1.6929  0.7947 -1.3689
32270SOL    HW299443   0.519   5.420   7.030  1.5942 -1.7302 -0.9616
32271SOL     OW99444   3.257   3.480   5.909  0.1226  0.1516  0.0450
32271SOL    HW199445   3.174   3.487   5.862  0.0819 -0.0224  0.0942
32271SOL    HW299446   3.315   3.431   5.850 -1.3419 -4.5535  2.0652
32272SOL     OW99447   9.235   5.364   2.991  0.3060  0.0528  0.5849
32272SOL    HW199448   9.200   5.279   2.966 -0.1542 -0.2116  2.0375
32272SOL    HW299449   9.242   5.413   2.909 -3.1460  0.0090  0.1141
32273SOL     OW99450   8.761   1.688   2.728 -0.0526  0.2848 -0.0942
32273SOL    HW199451   8.728   1.775   2.752 -4.5107 -1.1292 -0.1471
32273SOL    HW299452   8.810   1.659   2.805 -0.2202  2.0760  0.7256
32274SOL     OW99453   6.276   9.690   9.977 -0.7282 -0.0916  0.6946
32274SOL    HW199454   6.257   9.763   9.917  0.1795 -0.7637 -0.4574
32274SOL    HW299455   6.266   9.612   9.923 -0.4309 -0.7492  1.5778
32275SOL     OW99456   5.806   2.311   6.391  0.4019 -0.4277  0.5537
32275SOL    HW199457   5.787   2.340   6.301 -2.1820  0.7243  1.3695
32275SOL    HW299458   5.740   2.244   6.409  0.9882 -0.7605  1.5695
32276SOL     OW99459   6.428   1.544   0.807 -0.0647 -0.1183  0.0523
32276SOL    HW199460   6.399   1.459   0.775  0.3344  0.2535 -1.3547
32276SOL    HW299461   6.363   1.606   0.774 -0.0730  0.1888  0.6344
32277SOL     OW99462   4.799   0.351   3.740  0.1650 -0.1220 -0.2799
32277SOL    HW199463   4.795   0.399   3.657  3.1690  1.0475  0.1004
32277SOL    HW299464   4.719   0.373   3.786 -0.8961  0.3513 -2.2753
32278SOL     OW99465   3.837   5.276   7.238 -0.0258  0.0863  0.1790
32278SOL    HW199466   3.822   5.303   7.147  2.5931 -1.9982 -1.0045
32278SOL    HW299467   3.842   5.358   7.287 -0.9119  1.2891 -1.6297
32279SOL     OW99468   7.604   0.394   0.628  0.0668 -0.6987  0.0771
32279SOL    HW199469   7.663   0.426   0.696  1.0138 -0.4030 -0.8522
32279SOL    HW299470   7.631   0.441   0.549 -0.2153 -1.9048 -0.7658
32280SOL     OW99471   1.359   9.447   9.365 -0.4150 -0.7058 -0.4599
32280SOL    HW199472   1.286   9.415   9.417 -0.0280 -2.4968 -0.9168
32280SOL    HW299473   1.325   9.448   9.275 -0.4657  0.3809 -0.4358
32281SOL     OW99474  10.347   8.999   0.391  0.0632  0.2509 -0.1829
32281SOL    HW199475  10.264   8.959   0.363  0.1896 -1.0339  1.1409
32281SOL    HW299476  10.405   8.925   0.406  0.8813  1.0405  0.6615
32282SOL     OW99477   5.217   0.177   8.425 -0.0047 -0.1623 -0.4247
32282SOL    HW199478   5.278   0.243   8.392 -1.4255  0.4641 -1.9633
32282SOL    HW299479   5.132   0.222   8.426 -0.3679 -0.7286  2.4961
32283SOL     OW99480   9.791   3.434   8.803 -0.4137 -1.0434  0.5727
32283SOL    HW199481   9.875   3.390   8.793  1.4059  1.6179  2.8455
32283SOL    HW299482   9.786   3.495   8.729 -0.6730 -1.6189  0.1055
32284SOL     OW99483  10.282   4.348   9.685 -0.2818 -0.0715  0.1005
32284SOL    HW199484  10.194   4.374   9.659 -0.4960  0.8609  1.6193
32284SOL    HW299485  10.300   4.401   9.763  1.3047 -0.8372  0.2841
32285SOL     OW99486   5.464   1.349   6.048  0.1544  0.4349 -0.3017
32285SOL    HW199487   5.516   1.415   6.094  1.8086 -0.4374 -0.8582
32285SOL    HW299488   5.390   1.398   6.012 -0.8545  1.2748  2.6272
32286SOL     OW99489   5.767   3.349   5.927  0.1615 -0.2510 -0.0144
32286SOL    HW199490   5.741   3.310   5.843  0.4600 -1.6574  0.5159
32286SOL    HW299491   5.785   3.274   5.984  1.1151  0.6687  0.9524
32287SOL     OW99492   5.287   4.828   7.944  0.1723  0.5743 -0.3105
32287SOL    HW199493   5.236   4.779   7.879  2.6214 -1.0582 -1.1518
32287SOL    HW299494   5.324   4.901   7.894  1.7778 -0.4860 -0.7281
32288SOL     OW99495   4.428   5.774   1.583 -0.3934 -0.5048 -0.0220
32288SOL    HW199496   4.333   5.788   1.582 -0.1125  2.2390  1.0934
32288SOL    HW299497   4.455   5.798   1.672  1.5445  0.6535 -0.8516
32289SOL     OW99498   2.351   2.292   2.252 -0.1206  0.1318  0.0776
32289SOL    HW199499   2.431   2.241   2.261 -0.0194  0.3250  0.2924
32289SOL    HW299500   2.281   2.227   2.247 -0.0178 -0.0206  0.5967
32290SOL     OW99501   6.916   6.131   6.761 -0.7083 -0.1429  0.2905
32290SOL    HW199502   6.959   6.046   6.770 -0.7291 -0.2496 -0.5757
32290SOL    HW299503   6.826   6.110   6.735 -1.4944  0.0534  2.6219
32291SOL     OW99504   7.389   3.183   9.889 -0.2799 -0.0570  0.4769
32291SOL    HW199505   7.317   3.129   9.857 -0.5397  0.9963 -0.8323
32291SOL    HW299506   7.455   3.121   9.920 -0.8132 -1.0990 -0.4233
32292SOL     OW99507   7.555   5.786   1.522  0.6523 -0.0647 -0.4083
32292SOL    HW199508   7.533   5.863   1.573 -1.4984 -0.7251 -0.2603
32292SOL    HW299509   7.642   5.804   1.487 -0.3511  3.0522 -1.5760
32293SOL     OW99510   6.794   2.529   2.291 -0.6214  0.1753  0.0768
32293SOL    HW199511   6.726   2.464   2.310  0.8583 -1.2633  0.6500
32293SOL    HW299512   6.856   2.520   2.363  3.2640 -2.7511 -3.1857
32294SOL     OW99513   4.798   9.630   1.536  0.1035  0.2362 -0.0220
32294SOL    HW199514   4.780   9.628   1.630 -2.0000  1.1504 -0.3321
32294SOL    HW299515   4.861   9.702   1.525 -1.1516  1.4635  0.5284
32295SOL     OW99516   2.293   1.680   6.867 -0.0501  0.7583 -0.0122
32295SOL    HW199517   2.281   1.640   6.953 -0.4755 -1.3375 -0.9859
32295SOL    HW299518   2.235   1.757   6.868 -0.3752  0.5262  1.3987
32296SOL     OW99519   3.612   0.821   0.028  0.0068 -0.3129  0.3685
32296SOL    HW199520   3.550   0.808  -0.044 -0.4586  1.8300  0.3308
32296SOL    HW299521   3.639   0.912   0.020  3.7373 -1.2768 -0.0453
32297SOL     OW99522   0.147   5.835   1.170 -0.3547  0.0542  0.3030
32297SOL    HW199523   0.084   5.799   1.232 -1.2308  1.8167  0.4988
32297SOL    HW299524   0.175   5.918   1.209 -1.0281  1.2967 -1.6690
32298SOL     OW99525   7.470   9.041   0.237 -0.3840 -0.3425 -0.3560
32298SOL    HW199526   7.390   8.989   0.229 -0.7408  0.3309 -1.4770
32298SOL    HW299527   7.441   9.132   0.223  0.3812  0.0449  0.5039
32299SOL     OW99528   5.207   1.610   9.254 -0.0644  0.1969  0.3062
32299SOL    HW199529   5.295   1.599   9.290 -0.1947  0.3957  0.6895
32299SOL    HW299530   5.171   1.521   9.251  0.0562  0.1453  0.3860
32300SOL     OW99531   7.803   1.634   2.224  0.5110 -0.0185  0.1123
32300SOL    HW199532   7.865   1.561   2.228 -0.7662 -1.0876  1.5700
32300SOL    HW299533   7.809   1.675   2.310 -1.2823 -0.6059  0.5660
32301SOL     OW99534   6.539   9.752   8.967 -0.5337  0.3790  0.5298
32301SOL    HW199535   6.526   9.767   9.060 -0.4785  3.1492  0.1664
32301SOL    HW299536   6.634   9.754   8.955 -0.5589  0.5737  0.3472
32302SOL     OW99537   2.114   0.055   2.262 -0.4576 -0.3949 -0.4943
32302SOL    HW199538   2.177   0.024   2.327 -1.7170 -1.1858  0.3931
32302SOL    HW299539   2.129  -0.001   2.186 -0.3678 -0.8652 -0.1359
32303SOL     OW99540   8.873   6.433   2.484 -0.3389  0.1749  0.3619
32303SOL    HW199541   8.907   6.345   2.500 -0.7879  0.0722  0.7585
32303SOL    HW299542   8.795   6.439   2.539 -1.1487  0.2957 -0.7465
32304SOL     OW99543   7.262   3.499   3.640 -0.4257  0.2832  0.1286
32304SOL    HW199544   7.170   3.474   3.638 -0.3803  0.1298 -0.1629
32304SOL    HW299545   7.307   3.428   3.593 -0.0359 -0.1531  1.1389
32305SOL     OW99546   3.554   2.717   4.851  0.0664  0.1084 -0.2108
32305SOL    HW199547   3.515   2.730   4.938  1.4348 -0.9399  0.6051
32305SOL    HW299548   3.503   2.645   4.813 -1.7159  1.7541 -1.0701
32306SOL     OW99549   1.410   5.630   9.909  0.1313  0.4855  0.6950
32306SOL    HW199550   1.486   5.663   9.861  1.8831 -0.4676  2.6562
32306SOL    HW299551   1.437   5.629  10.000 -2.2174 -0.0472  1.4644
32307SOL     OW99552   0.581   5.383   0.025 -0.1060  0.5304 -0.2869
32307SOL    HW199553   0.619   5.371   0.112  0.2575  1.9030 -0.2439
32307SOL    HW299554   0.575   5.477   0.014  0.8907  0.4198 -2.1989
32308SOL     OW99555   1.943   3.762   7.738 -0.4721 -0.0014  0.0372
32308SOL    HW199556   1.941   3.858   7.730  0.8997 -0.0200 -0.9760
32308SOL    HW299557   2.024   3.737   7.694 -0.7660 -1.6318  0.3838
32309SOL     OW99558   2.157   2.565   9.142  0.1501  0.0788  0.3042
32309SOL    HW199559   2.106   2.487   9.122  0.2990 -0.5807  2.3058
32309SOL    HW299560   2.244   2.533   9.163  0.0713  0.6880  1.6964
32310SOL     OW99561   6.838   9.834   9.246 -0.2685  0.2865  0.1465
32310SOL    HW199562   6.812   9.760   9.300  0.1149 -0.1454 -0.2398
32310SOL    HW299563   6.817   9.807   9.156 -0.1734  0.6630  0.0061
32311SOL     OW99564   1.017   4.024   2.866  0.3537  0.1734  0.4552
32311SOL    HW199565   1.031   4.065   2.951 -2.2926 -0.3040  1.2345
32311SOL    HW299566   0.946   4.074   2.826  1.2911  0.1508 -1.3367
32312SOL     OW99567  10.093   2.903   3.750  0.1535  0.7067  0.5689
32312SOL    HW199568  10.065   2.979   3.699 -1.3702  0.7093  1.3654
32312SOL    HW299569  10.181   2.884   3.717 -0.4412  1.2106 -1.4538
32313SOL     OW99570   5.224   3.060   1.316 -0.1844  0.2913  0.1707
32313SOL    HW199571   5.134   3.045   1.346  0.0972  0.8171  1.3337
32313SOL    HW299572   5.279   3.018   1.383  0.4353 -0.5094 -0.8191
32314SOL     OW99573   0.951   8.983   8.156  0.2254 -0.6225 -0.2206
32314SOL    HW199574   0.950   8.968   8.250  1.5316 -0.2424 -0.1293
32314SOL    HW299575   0.929   8.898   8.118 -1.1788 -0.5624  0.4300
32315SOL     OW99576   4.126   6.546   6.938 -0.2034  0.3742  0.2327
32315SOL    HW199577   4.070   6.468   6.937  0.5485 -0.2406 -2.6956
32315SOL    HW299578   4.069   6.614   6.974 -1.3841 -1.1537  1.4446
32316SOL     OW99579  10.152   9.305   3.052 -0.1705 -0.0498  0.4193
32316SOL    HW199580  10.147   9.377   3.115 -0.5930 -1.9405  2.6521
32316SOL    HW299581  10.083   9.244   3.080 -2.4226  0.2728 -3.6244
32317SOL     OW99582   8.291   0.273   5.765 -0.2720 -0.0744  0.0391
32317SOL    HW199583   8.377   0.314   5.771 -0.6883  0.9332 -0.7291
32317SOL    HW299584   8.294   0.222   5.684  0.3613 -1.9131  1.1523
32318SOL     OW99585   3.816   7.120   3.202  0.6081  0.1010  0.0071
32318SOL    HW199586   3.879   7.078   3.261 -0.1881 -0.6760  0.3217
32318SOL    HW299587   3.864   7.128   3.119  1.6249  0.9036  0.6351
32319SOL     OW99588   5.410   4.848   4.358 -0.0759 -0.7224  0.7567
32319SOL    HW199589   5.477   4.827   4.423  0.4843 -1.8189 -0.1477
32319SOL    HW299590   5.444   4.927   4.314  0.7067 -1.3368  0.2228
32320SOL     OW99591   4.174   0.151   6.289  0.4423  0.0235  0.4880
32320SOL    HW199592   4.253   0.174   6.240  0.6843 -1.1052  0.3239
32320SOL    HW299593   4.190   0.185   6.377  1.9935 -1.8823  1.0011
32321SOL     OW99594   6.953   8.986   9.316  0.0193 -0.3579  0.2180
32321SOL    HW199595   6.868   9.028   9.326  0.0810 -0.3618  0.7881
32321SOL    HW299596   6.965   8.936   9.397  1.1260  0.6868  0.7317
32322SOL     OW99597   2.072   6.219   8.333  0.3387  0.3486 -0.2772
32322SOL    HW199598   1.997   6.224   8.393  0.4408  1.2434 -0.2064
32322SOL    HW299599   2.071   6.130   8.301 -0.7460  0.3403 -0.2563
32323SOL     OW99600   1.373   6.480   7.319  0.0044 -0.1784 -0.4149
32323SOL    HW199601   1.418   6.506   7.239 -2.0469 -0.8659 -1.8854
32323SOL    HW299602   1.440   6.437   7.372  1.5522  0.7954 -1.4908
32324SOL     OW99603   4.522   4.908  10.332  0.5168 -0.0901  0.1865
32324SOL    HW199604   4.427   4.902  10.342  0.4500  1.0920  0.3748
32324SOL    HW299605   4.535   4.928  10.239  0.6124 -0.6696  0.0700
32325SOL     OW99606   7.868   8.169   1.703  0.2226  0.1233 -0.5423
32325SOL    HW199607   7.879   8.123   1.786  1.3614  1.9892  0.4176
32325SOL    HW299608   7.921   8.248   1.712 -1.9886  1.9164 -1.8576
32326SOL     OW99609   6.423   6.099   8.505  0.2368 -0.1981  0.2874
32326SOL    HW199610   6.466   6.066   8.583  1.6884 -0.7589 -0.7085
32326SOL    HW299611   6.429   6.195   8.513 -0.2748 -0.2267  1.1775
32327SOL     OW99612   7.809   1.113   1.149  0.2295 -0.8299  0.3804
32327SOL    HW199613   7.828   1.142   1.238 -0.3590  1.4712 -0.1563
32327SOL    HW299614   7.727   1.158   1.127  0.6775 -0.8682 -1.5095
32328SOL     OW99615   4.563   6.577   3.931  0.1881  0.2103  0.3532
32328SOL    HW199616   4.652   6.603   3.954  0.1840  1.0407 -0.5021
32328SOL    HW299617   4.515   6.580   4.014  0.9821 -0.3613  0.8383
32329SOL     OW99618   7.350   6.820   8.176 -0.0484  0.4907  0.5280
32329SOL    HW199619   7.402   6.857   8.248 -0.6563  0.6826  0.8761
32329SOL    HW299620   7.384   6.731   8.166  1.8044  1.2564 -0.6839
32330SOL     OW99621   6.137   3.374  10.128  0.3112 -0.0871  0.0559
32330SOL    HW199622   6.197   3.302  10.107 -0.5713 -0.7604 -0.2136
32330SOL    HW299623   6.070   3.333  10.183  0.2346  0.7155  0.5711
32331SOL     OW99624   7.645   4.335   3.842 -0.1964 -0.8729  0.0489
32331SOL    HW199625   7.725   4.285   3.858  1.1130  1.3380  0.8210
32331SOL    HW299626   7.580   4.296   3.901  1.0086 -1.1501  1.2349
32332SOL     OW99627   7.550   2.592   7.315  0.0666 -0.2593 -0.3393
32332SOL    HW199628   7.471   2.603   7.262  0.7437  1.2199 -1.1189
32332SOL    HW299629   7.546   2.664   7.379 -0.0238 -1.1659  0.7099
32333SOL     OW99630   3.536   3.187   7.710  0.1444 -0.0178 -0.0481
32333SOL    HW199631   3.525   3.279   7.731  0.2589 -0.0030 -0.0487
32333SOL    HW299632   3.601   3.186   7.640 -0.7574 -0.0212 -0.9031
32334SOL     OW99633   8.437   4.480   4.489  0.0096 -0.6610  0.6432
32334SOL    HW199634   8.519   4.435   4.468 -0.0510 -0.2810 -0.4767
32334SOL    HW299635   8.464   4.565   4.524  0.0939 -0.8499  1.0489
32335SOL     OW99636   5.979   8.391   9.717 -0.1702 -0.1607 -0.0194
32335SOL    HW199637   6.029   8.318   9.754  0.8187  0.6378  0.2623
32335SOL    HW299638   6.007   8.396   9.626  1.2740  1.0949  0.4609
32336SOL     OW99639   6.404   2.378   8.618 -0.5962  0.0243  0.5894
32336SOL    HW199640   6.444   2.440   8.679 -1.0248  0.9281 -0.0404
32336SOL    HW299641   6.425   2.292   8.655  2.1269  0.4318  0.2062
32337SOL     OW99642   6.706   0.260   3.345  0.2281  0.4507  0.3645
32337SOL    HW199643   6.802   0.257   3.344  0.2495 -0.4269  1.9236
32337SOL    HW299644   6.684   0.340   3.296  1.8455  2.1035  2.1733
32338SOL     OW99645   0.053   7.743   0.140 -0.2833 -0.0727 -0.2220
32338SOL    HW199646   0.126   7.754   0.201  0.9671  0.9766 -1.8260
32338SOL    HW299647   0.024   7.832   0.121 -0.0951 -0.3045 -1.7494
32339SOL     OW99648   6.493   4.664   7.980 -0.0247 -0.4217 -0.1034
32339SOL    HW199649   6.513   4.671   8.073 -0.8451 -0.7121  0.1058
32339SOL    HW299650   6.413   4.611   7.977 -0.8282  0.7938 -0.8662
32340SOL     OW99651   6.872  10.237   6.580 -0.1774 -0.2754 -0.4328
32340SOL    HW199652   6.871  10.146   6.609 -0.2290 -0.3677 -0.7203
32340SOL    HW299653   6.783  10.254   6.550 -0.6465  0.3965  1.2086
32341SOL     OW99654   3.690   4.473   9.479  0.1633 -0.0869  0.2018
32341SOL    HW199655   3.693   4.393   9.532  0.3433  0.3447  0.8526
32341SOL    HW299656   3.649   4.445   9.397  0.3100 -0.8679  0.3802
32342SOL     OW99657   1.820  10.090   7.950 -0.3114  0.6891  0.2076
32342SOL    HW199658   1.773  10.118   8.028 -0.4247  1.1894 -0.0406
32342SOL    HW299659   1.758  10.102   7.878 -0.1783  0.3124  0.0239
32343SOL     OW99660   1.788   0.705   0.733 -0.2401 -0.0150 -0.3117
32343SOL    HW199661   1.802   0.651   0.810  1.8070  1.9671  0.8252
32343SOL    HW299662   1.706   0.751   0.750 -0.2358 -0.2209  0.2764
32344SOL     OW99663   6.002   9.251   9.051 -0.0916  0.1303  0.8520
32344SOL    HW199664   6.049   9.247   9.135 -1.1278  0.7238  1.4751
32344SOL    HW299665   6.051   9.192   8.994  0.3435 -0.6843  2.0250
32345SOL     OW99666   9.282   4.612   2.299  0.3748  0.1769 -0.0497
32345SOL    HW199667   9.349   4.649   2.357  1.3002  1.0978 -1.6206
32345SOL    HW299668   9.224   4.686   2.280  0.6817  0.1716 -1.0759
32346SOL     OW99669   0.945   9.884   3.858 -0.1501 -0.0090  0.3205
32346SOL    HW199670   1.023   9.873   3.804  1.0310  1.4046  1.6746
32346SOL    HW299671   0.933   9.798   3.899  1.2254 -0.0091  0.7721
32347SOL     OW99672  10.112   3.582   9.540 -0.2740 -0.1155 -0.4399
32347SOL    HW199673  10.131   3.488   9.540 -2.2242 -0.5857  0.6741
32347SOL    HW299674  10.126   3.609   9.631 -1.5528  0.1874 -0.3036
32348SOL     OW99675   2.564   4.899   0.236  0.1081  0.3161  0.8304
32348SOL    HW199676   2.497   4.959   0.202  1.0222  0.8333 -0.1061
32348SOL    HW299677   2.611   4.949   0.302  0.0668  0.2130  0.9384
32349SOL     OW99678   0.188   7.931   3.112 -0.4427 -0.4306 -0.0279
32349SOL    HW199679   0.209   7.893   3.197 -1.1886 -1.2047 -0.1787
32349SOL    HW299680   0.156   8.019   3.132  2.0503  0.5083  0.2659
32350SOL     OW99681   8.418   5.723   5.070  0.5085 -0.1067 -0.2326
32350SOL    HW199682   8.432   5.642   5.119  1.5986  0.6401  0.7310
32350SOL    HW299683   8.493   5.778   5.092 -1.2784  2.0216  0.8831
32351SOL     OW99684   9.789   5.377   0.393  0.0341 -0.5098  0.0506
32351SOL    HW199685   9.735   5.336   0.325  0.1082  0.7692 -0.8189
32351SOL    HW299686   9.826   5.454   0.350 -1.2960  1.3219  2.0228
32352SOL     OW99687   9.968   3.283   6.947  0.2040  0.5869  0.4242
32352SOL    HW199688   9.954   3.198   6.904 -0.8148  1.3699 -0.8701
32352SOL    HW299689   9.881   3.322   6.952  0.7089  1.7345  0.6507
32353SOL     OW99690   1.084   5.688   6.563 -0.3051 -0.1278 -0.3617
32353SOL    HW199691   1.092   5.698   6.658 -0.4905  0.0893 -0.3694
32353SOL    HW299692   1.132   5.608   6.543  2.1441  1.2425 -0.4137
32354SOL     OW99693   7.003   6.120   5.210 -0.6118 -0.0892  0.2151
32354SOL    HW199694   6.992   6.111   5.305  1.0492 -1.0084  0.3556
32354SOL    HW299695   6.917   6.100   5.173 -1.0680 -0.5323  1.4838
32355SOL     OW99696   7.751   2.259  10.171  0.2436  0.6168  0.0363
32355SOL    HW199697   7.749   2.168  10.142  0.9702  1.0040 -1.3288
32355SOL    HW299698   7.670   2.297  10.139  0.4808  0.7333 -0.4394
32356SOL     OW99699   1.086   2.936   8.095 -0.3765 -0.3093  0.0759
32356SOL    HW199700   1.053   2.865   8.040 -0.0162  0.3167 -0.9796
32356SOL    HW299701   1.180   2.940   8.076 -0.5019  0.8605 -0.3782
32357SOL     OW99702   5.281   2.267   9.651  0.0738  0.2159  0.8614
32357SOL    HW199703   5.239   2.191   9.690  1.9820 -1.7056 -0.6027
32357SOL    HW299704   5.319   2.314   9.725 -1.7329  0.1854  1.8590
32358SOL     OW99705   9.729   8.485   6.557  0.5417  0.5124  0.2613
32358SOL    HW199706   9.762   8.395   6.565  1.3401  0.8800  1.2511
32358SOL    HW299707   9.663   8.492   6.626  0.6565  0.7682  0.3437
32359SOL     OW99708   4.714   8.353   8.435 -0.0871  0.5823 -0.1458
32359SOL    HW199709   4.646   8.359   8.367 -1.1875  0.3833  0.8984
32359SOL    HW299710   4.665   8.359   8.517  1.3101  1.8951  0.6311
32360SOL     OW99711   2.255   7.447   5.775 -0.4705  0.2646  0.0186
32360SOL    HW199712   2.318   7.381   5.804  2.0842  1.4330 -2.3646
32360SOL    HW299713   2.205   7.403   5.706 -0.2388  0.1726 -0.0941
32361SOL     OW99714   4.694   4.653   7.473 -0.1386  0.4545  0.0705
32361SOL    HW199715   4.674   4.703   7.552 -0.0164 -0.5467  0.7626
32361SOL    HW299716   4.656   4.703   7.402  1.2429  2.2966  0.5478
32362SOL     OW99717   8.785   3.838   2.324 -0.2220  0.3245  0.1605
32362SOL    HW199718   8.715   3.862   2.386 -1.6576  1.3027 -1.7523
32362SOL    HW299719   8.844   3.913   2.325  1.2557 -0.7716  2.2686
32363SOL     OW99720   4.187   7.079   0.795 -0.2267  0.0237 -0.2537
32363SOL    HW199721   4.180   7.165   0.755 -0.0850  0.5199  0.7633
32363SOL    HW299722   4.136   7.085   0.876  0.6573 -0.5016  0.3641
32364SOL     OW99723   2.649  10.083   1.164  0.4913 -0.1175 -0.6015
32364SOL    HW199724   2.728  10.070   1.110  0.4459  0.3703 -0.7893
32364SOL    HW299725   2.587  10.018   1.131  0.2379  0.6067 -1.5811
32365SOL     OW99726   3.391   3.759  10.010 -0.4570 -0.5306  0.4074
32365SOL    HW199727   3.321   3.739   9.947 -0.2163 -1.8043  0.5204
32365SOL    HW299728   3.429   3.674  10.032  0.5844  0.0588  0.9922
32366SOL     OW99729   7.995   4.480   0.288 -0.2329  0.4393  0.1254
32366SOL    HW199730   7.922   4.488   0.226 -1.6542 -2.7115  1.1827
32366SOL    HW299731   8.073   4.481   0.233 -1.2793  0.3179 -1.4387
32367SOL     OW99732   4.583   9.446   5.742  0.2027 -0.0958 -0.2340
32367SOL    HW199733   4.554   9.357   5.722 -1.4001  0.6167 -1.3165
32367SOL    HW299734   4.557   9.460   5.833  2.4831 -1.4449  0.7148
32368SOL     OW99735   0.673   8.909   0.079  0.1440 -0.6304  0.1937
32368SOL    HW199736   0.601   8.872   0.029 -0.9968  1.1380  0.4422
32368SOL    HW299737   0.650   8.891   0.171 -0.4885  0.7255  0.3248
32369SOL     OW99738   0.527   6.140   7.401 -0.1837 -0.4478 -0.4830
32369SOL    HW199739   0.512   6.050   7.428  0.1415 -0.1940  0.5898
32369SOL    HW299740   0.590   6.134   7.329 -1.4644 -1.1733 -1.5787
32370SOL     OW99741   7.421   1.925   2.691 -0.1650 -0.0282  0.2754
32370SOL    HW199742   7.404   1.991   2.759 -1.3120 -0.5520  0.5298
32370SOL    HW299743   7.450   1.848   2.739  0.3397  0.0247  0.0536
32371SOL     OW99744   5.147   6.723   0.494  0.2597  0.1649  0.5353
32371SOL    HW199745   5.198   6.692   0.420 -0.4605  2.6534 -1.1481
32371SOL    HW299746   5.211   6.767   0.550  0.3709  1.0848 -0.2914
32372SOL     OW99747   2.995   5.531   2.359  0.0520  0.6018 -0.3304
32372SOL    HW199748   3.000   5.456   2.300 -1.0327  0.2180  0.0452
32372SOL    HW299749   3.074   5.526   2.412  2.7476  2.6842 -3.6975
32373SOL     OW99750   2.336   9.457   2.855  0.1533  0.4348 -0.3490
32373SOL    HW199751   2.296   9.445   2.941 -0.3635  0.3845 -0.5981
32373SOL    HW299752   2.290   9.395   2.798  0.4011  0.5646 -0.6929
32374SOL     OW99753   4.024   4.772  10.100  0.0050  0.6283  0.3262
32374SOL    HW199754   4.113   4.788  10.069 -0.7156 -0.3432 -2.4865
32374SOL    HW299755   3.978   4.854  10.084  0.7380  1.9187  3.7852
32375SOL     OW99756   0.754   2.109   6.303 -0.4373 -0.0526 -0.3597
32375SOL    HW199757   0.833   2.162   6.308  0.9791 -1.7687 -2.5329
32375SOL    HW299758   0.738   2.081   6.393  2.2860 -0.7772 -0.0007
32376SOL     OW99759   6.499  10.002   2.557 -0.2739 -0.2757  0.2021
32376SOL    HW199760   6.573   9.943   2.545 -0.5086 -0.2783 -1.3267
32376SOL    HW299761   6.528  10.086   2.522 -0.8008 -0.1350  0.0867
32377SOL     OW99762   8.381   5.714   0.606 -0.5307  0.2108  0.6845
32377SOL    HW199763   8.445   5.643   0.615 -1.0335 -0.2346  0.7831
32377SOL    HW299764   8.385   5.760   0.690  1.1671  1.4910 -0.0296
32378SOL     OW99765   0.978   7.289   0.479  0.4156 -0.1609 -0.6187
32378SOL    HW199766   0.908   7.349   0.451  0.9852  0.3406 -1.0071
32378SOL    HW299767   1.059   7.331   0.449  1.0051 -0.0331  1.0553
32379SOL     OW99768  10.024   7.356   5.425 -0.1203  0.3657 -0.0339
32379SOL    HW199769   9.932   7.356   5.399 -0.6264  0.0134  1.6118
32379SOL    HW299770  10.054   7.444   5.406 -1.3288  1.0534  1.0525
32380SOL     OW99771   2.059   1.470   2.803 -0.1570 -0.2227  0.7288
32380SOL    HW199772   2.001   1.538   2.837  0.5178  0.0994  1.2517
32380SOL    HW299773   2.092   1.506   2.720  0.0542  0.0049  0.9121
32381SOL     OW99774   2.477   8.534   7.013 -0.1752  0.1940 -0.0999
32381SOL    HW199775   2.456   8.448   7.049 -1.0618  0.3654 -0.1897
32381SOL    HW299776   2.526   8.515   6.932 -0.2019 -0.2206 -0.0199
32382SOL     OW99777   5.522   1.597  10.033 -0.1922 -0.2530  0.2450
32382SOL    HW199778   5.599   1.615   9.980 -0.1685  0.3273  0.4702
32382SOL    HW299779   5.475   1.528   9.986  0.1627 -0.1970 -0.1907
32383SOL     OW99780   3.863   1.886   7.681  0.7794  0.3122  0.8369
32383SOL    HW199781   3.806   1.941   7.627  0.6387  0.1441  0.8114
32383SOL    HW299782   3.898   1.945   7.747 -0.7025  0.0847  1.8611
32384SOL     OW99783   8.892   5.835   6.185  0.8438 -0.3988 -0.3720
32384SOL    HW199784   8.823   5.784   6.229  0.6794 -0.8839 -1.1671
32384SOL    HW299785   8.907   5.910   6.243 -0.0717 -0.4955  0.0128
32385SOL     OW99786   2.091   0.271   8.737 -0.5704 -0.4662  0.6483
32385SOL    HW199787   2.092   0.177   8.754 -0.6208 -1.3578 -3.2184
32385SOL    HW299788   2.169   0.285   8.682 -1.0677  1.5748  0.3946
32386SOL     OW99789   6.898   2.016   4.358  0.4475  0.1086  0.2924
32386SOL    HW199790   6.805   2.016   4.383 -0.4213  1.5463 -2.5216
32386SOL    HW299791   6.920   1.923   4.350 -0.6871 -0.2642  1.1977
32387SOL     OW99792   6.070   4.095   0.727  0.7431 -0.2124 -0.6548
32387SOL    HW199793   6.130   4.159   0.766 -1.4218  1.1806  0.6322
32387SOL    HW299794   6.035   4.047   0.802  0.0101 -0.7517 -1.3300
32388SOL     OW99795   5.878   8.139   2.631  0.4853 -0.6609 -0.3245
32388SOL    HW199796   5.957   8.169   2.676  0.7725 -0.5214 -0.9109
32388SOL    HW299797   5.844   8.069   2.686 -0.5714  1.1555  1.4261
32389SOL     OW99798   3.232   3.074   1.995  0.4123  0.0807 -0.5486
32389SOL    HW199799   3.138   3.077   2.013  0.2067  3.1826 -1.5749
32389SOL    HW299800   3.238   3.034   1.908 -0.0740  0.9196 -0.9776
32390SOL     OW99801   4.988   2.434   1.292  0.3626 -0.3356  0.1574
32390SOL    HW199802   4.993   2.491   1.214 -0.1229 -1.3540 -0.6470
32390SOL    HW299803   4.923   2.476   1.348 -0.0379 -0.1206 -0.4552
32391SOL     OW99804   1.940   8.522   8.179 -0.0217  0.1282 -0.3065
32391SOL    HW199805   1.867   8.460   8.176  0.6320 -0.7050  0.4400
32391SOL    HW299806   1.926   8.572   8.259  0.6771 -0.6277  0.3050
32392SOL     OW99807   1.012   9.039   3.529 -0.3798 -0.1809 -0.1054
32392SOL    HW199808   1.050   8.988   3.458  1.1270 -1.4246  1.5080
32392SOL    HW299809   1.087   9.075   3.576 -1.3219  0.4264  0.9971
32393SOL     OW99810   8.848   0.050   6.558 -0.5063 -0.2135  0.3720
32393SOL    HW199811   8.854  -0.041   6.586 -0.3954 -0.6650 -1.0080
32393SOL    HW299812   8.868   0.047   6.464 -0.8188  1.1910  0.2368
32394SOL     OW99813   2.354   0.319   8.670  0.1361 -0.2923 -0.2885
32394SOL    HW199814   2.319   0.406   8.691 -0.4738 -0.6490  0.1686
32394SOL    HW299815   2.428   0.338   8.612  0.4323  0.5740  0.3379
32395SOL     OW99816   9.418   3.039   6.378  1.2799 -0.2414 -0.2767
32395SOL    HW199817   9.369   2.961   6.403  1.4542 -0.5362 -0.8420
32395SOL    HW299818   9.417   3.038   6.282  0.5174  0.9206 -0.3138
32396SOL     OW99819  10.212   8.872   4.605 -0.0244  0.0669  0.0691
32396SOL    HW199820  10.217   8.874   4.509  1.2644 -0.0705  0.1149
32396SOL    HW299821  10.177   8.958   4.629 -0.8354 -0.0836 -0.5396
32397SOL     OW99822   0.221   4.813   8.492 -0.0220 -0.4612 -0.0568
32397SOL    HW199823   0.274   4.770   8.559  1.0816  0.4884 -0.2978
32397SOL    HW299824   0.131   4.794   8.518  0.4047 -1.1663  0.9863
32398SOL     OW99825   6.827   8.065   6.408  0.0988  0.4126  0.8369
32398SOL    HW199826   6.827   8.158   6.385  1.4526 -0.0466 -1.3458
32398SOL    HW299827   6.835   8.020   6.324 -2.7393 -1.7930  1.6023
32399SOL     OW99828   3.404   6.738   9.699  0.5405  0.1849  0.0500
32399SOL    HW199829   3.469   6.729   9.630 -0.7641  1.4584 -1.4059
32399SOL    HW299830   3.434   6.811   9.752  0.9855 -0.1058  0.2010
32400SOL     OW99831   5.031   1.057   9.164 -0.1634  0.2997  0.0415
32400SOL    HW199832   4.990   0.976   9.132 -0.2485  0.6265 -0.6906
32400SOL    HW299833   5.081   1.089   9.090 -0.0532  0.8768  0.3605
32401SOL     OW99834   9.212   0.713   7.259  0.0523 -0.4821 -0.4632
32401SOL    HW199835   9.244   0.713   7.168 -0.3790 -1.8155 -0.6352
32401SOL    HW299836   9.221   0.622   7.287 -0.0713 -0.1293  0.7492
32402SOL     OW99837   4.024   0.448   8.517  0.0308 -0.2910 -0.4932
32402SOL    HW199838   4.014   0.517   8.583  1.1319 -0.3109 -0.2939
32402SOL    HW299839   3.999   0.490   8.435  0.6050  0.3180 -0.3582
32403SOL     OW99840   6.327   8.844   0.674  0.0329 -0.0579 -0.7072
32403SOL    HW199841   6.406   8.846   0.727 -0.6043 -1.0725  0.3364
32403SOL    HW299842   6.346   8.779   0.606 -0.3827 -1.3704  0.3915
32404SOL     OW99843   4.648   3.881   8.971  0.2520  0.1983 -0.6987
32404SOL    HW199844   4.595   3.931   8.909 -1.4223  0.6876  1.0183
32404SOL    HW299845   4.601   3.798   8.981  0.6900 -0.0148 -0.3552
32405SOL     OW99846   9.389   2.174   4.730 -0.2200 -0.1506  0.1877
32405SOL    HW199847   9.473   2.136   4.705 -0.2216 -0.3686  0.5075
32405SOL    HW299848   9.326   2.135   4.669 -0.1582 -0.3365  0.2419
32406SOL     OW99849   7.106   9.850   6.832 -0.3444  0.4565  0.1922
32406SOL    HW199850   7.019   9.845   6.870 -0.4468  0.0775 -0.0738
32406SOL    HW299851   7.148   9.767   6.857 -0.6323 -0.0709 -1.0157
32407SOL     OW99852   0.904   5.241   7.687  0.2406  0.2023  0.1418
32407SOL    HW199853   0.926   5.155   7.723 -1.3550 -0.5617 -0.5680
32407SOL    HW299854   0.826   5.267   7.736  1.7013  2.1031  1.5775
32408SOL     OW99855   4.737   9.819   4.803  0.1975  0.4378 -0.5857
32408SOL    HW199856   4.768   9.776   4.723  1.7996  0.3123  0.0815
32408SOL    HW299857   4.778   9.906   4.801  1.1452  0.0441  0.6162
32409SOL     OW99858   9.009   7.682  10.326  0.2308  0.6008 -0.0642
32409SOL    HW199859   9.036   7.771  10.348 -0.6584  1.4935 -2.3549
32409SOL    HW299860   8.916   7.688  10.308  0.5513 -0.2579 -2.4432
32410SOL     OW99861   4.161   5.046   3.133  0.8961  0.4412 -0.1237
32410SOL    HW199862   4.138   5.128   3.089 -0.8385  0.3767  0.5915
32410SOL    HW299863   4.144   5.062   3.225  0.7226 -0.6479  0.0539
32411SOL     OW99864   6.297   3.819   6.007  0.7297  0.0781 -0.0054
32411SOL    HW199865   6.316   3.772   6.088  3.7659 -0.7037 -1.0592
32411SOL    HW299866   6.381   3.854   5.979 -0.5869  2.0239 -1.8547
32412SOL     OW99867   7.885   8.784   9.406 -0.7614  0.3822 -0.1062
32412SOL    HW199868   7.933   8.864   9.384 -1.4679  0.6830 -0.5938
32412SOL    HW299869   7.812   8.814   9.461  0.6648 -0.2953  2.2898
32413SOL     OW99870   8.172   4.348   8.859 -0.0797 -0.2217 -0.4902
32413SOL    HW199871   8.212   4.412   8.918  1.7288 -0.4810 -1.3456
32413SOL    HW299872   8.221   4.358   8.778 -1.0062 -1.4322 -1.2197
32414SOL     OW99873   8.344   5.080   1.247  0.0822 -0.0843 -0.0588
32414SOL    HW199874   8.371   4.991   1.226 -0.0473  0.2756 -1.8661
32414SOL    HW299875   8.425   5.126   1.267  0.2876 -0.2749 -0.4487
32415SOL     OW99876   6.624   8.406   9.739 -0.1650  0.4873  0.5217
32415SOL    HW199877   6.654   8.492   9.709 -0.7480  0.3912 -0.3636
32415SOL    HW299878   6.668   8.393   9.823  1.5657  0.7344 -0.3194
32416SOL     OW99879   1.823   2.928   4.139 -0.7678 -0.2298 -0.0461
32416SOL    HW199880   1.896   2.914   4.079  0.0336 -1.5195  1.1650
32416SOL    HW299881   1.831   3.019   4.167 -0.5319  0.0744 -1.0493
32417SOL     OW99882   0.325   5.441   4.784 -0.6810 -0.0854  0.2636
32417SOL    HW199883   0.336   5.356   4.826  1.9618  0.1380  0.1653
32417SOL    HW299884   0.394   5.496   4.821  1.1536  0.4429 -3.4625
32418SOL     OW99885   6.907   2.161   6.018  0.2070 -0.2589 -0.0206
32418SOL    HW199886   6.848   2.087   6.030  0.7400 -0.3719  2.2514
32418SOL    HW299887   6.960   2.137   5.941 -0.9194 -1.3161 -0.5005
32419SOL     OW99888  10.142   8.674   7.817 -0.3775 -0.0547  0.0434
32419SOL    HW199889  10.090   8.634   7.748  0.5180  0.1246 -0.7608
32419SOL    HW299890  10.230   8.682   7.779 -0.2598  1.5884  0.5879
32420SOL     OW99891   5.762   1.170   3.596 -0.2944  0.7170 -0.1033
32420SOL    HW199892   5.669   1.165   3.618 -0.1044 -0.4168  0.4793
32420SOL    HW299893   5.808   1.149   3.678  0.4659  0.0839 -0.6781
32421SOL     OW99894   3.300   3.088   4.342  0.2904 -0.0015  0.2028
32421SOL    HW199895   3.248   3.162   4.374  1.1331  0.4862  0.4737
32421SOL    HW299896   3.380   3.090   4.394  0.1646 -1.3434  0.4738
32422SOL     OW99897   7.861   2.527   2.314  0.1712 -0.1247  0.1184
32422SOL    HW199898   7.956   2.535   2.325  0.0038  0.6366  1.2324
32422SOL    HW299899   7.837   2.449   2.363 -0.1182  1.3225  2.4453
32423SOL     OW99900   9.687   0.734   4.037 -0.6483  0.3317  0.1841
32423SOL    HW199901   9.703   0.812   3.984  1.0642  0.0460  0.2307
32423SOL    HW299902   9.737   0.749   4.117  0.5173 -1.1999 -0.2076
32424SOL     OW99903   4.060   4.468   7.561 -0.3134  0.0486 -0.2086
32424SOL    HW199904   4.084   4.388   7.609  1.1469 -0.3776 -1.5616
32424SOL    HW299905   4.001   4.438   7.492  1.3345 -0.1747 -1.6100
32425SOL     OW99906   7.206   2.195   9.262  0.0185 -0.6938  0.5410
32425SOL    HW199907   7.282   2.186   9.320  0.0370 -0.2868  0.5779
32425SOL    HW299908   7.180   2.286   9.270 -0.6421 -0.8966  0.7286
32426SOL     OW99909   5.589   0.589   6.103  0.3022  0.4643  0.9307
32426SOL    HW199910   5.631   0.504   6.108 -0.5813 -0.0383  0.2131
32426SOL    HW299911   5.657   0.651   6.127  1.4513 -0.3180 -0.1579
32427SOL     OW99912   8.627  10.051   1.764 -0.7802  0.3418  0.5354
32427SOL    HW199913   8.585  10.095   1.838  0.2541  1.8738  0.2642
32427SOL    HW299914   8.704  10.009   1.802 -1.4604 -0.8079  0.6923
32428SOL     OW99915   4.401   1.711   2.925  0.2266  0.1433  0.3435
32428SOL    HW199916   4.332   1.647   2.941 -0.6562  0.7626 -0.8028
32428SOL    HW299917   4.482   1.666   2.949 -0.3679 -1.3988 -0.4217
32429SOL     OW99918   7.055   3.294   1.947  0.3854 -0.7068  0.0553
32429SOL    HW199919   7.069   3.199   1.955  0.0457 -0.6063  2.4615
32429SOL    HW299920   7.102   3.318   1.868  1.4378 -2.6998  0.0041
32430SOL     OW99921   0.234   0.948   6.121 -0.0689 -0.6800  0.2660
32430SOL    HW199922   0.210   0.937   6.029  0.3905 -0.8189  0.1610
32430SOL    HW299923   0.329   0.937   6.123  0.1490  1.0094  0.4985
32431SOL     OW99924   9.296   9.564   6.720 -0.1880 -0.3537 -0.5373
32431SOL    HW199925   9.250   9.641   6.752 -0.3511 -0.8528  0.4566
32431SOL    HW299926   9.379   9.564   6.768 -0.2563 -0.8868 -0.4164
32432SOL     OW99927   5.343   9.471   7.370  0.1800  0.3752  0.1457
32432SOL    HW199928   5.325   9.565   7.364  0.5777  0.3719 -1.5483
32432SOL    HW299929   5.258   9.432   7.390 -0.6913  0.8581 -2.2128
32433SOL     OW99930   3.290   7.394   6.819  0.1099 -0.3288  0.2804
32433SOL    HW199931   3.347   7.425   6.748 -0.2602 -0.0148  0.1138
32433SOL    HW299932   3.319   7.444   6.896 -2.0622  2.3723 -0.4747
32434SOL     OW99933   7.415   4.752   2.506  0.0537  0.0844  0.2274
32434SOL    HW199934   7.400   4.663   2.537 -0.3339  0.1255  0.1560
32434SOL    HW299935   7.329   4.793   2.506  0.3091  0.6231  0.7466
32435SOL     OW99936   3.733   0.244   0.591 -0.3092  0.5120 -0.2645
32435SOL    HW199937   3.806   0.297   0.625 -0.1048  0.4021 -0.5313
32435SOL    HW299938   3.774   0.163   0.561 -0.7228 -0.1581  0.9056
32436SOL     OW99939   9.943   2.968   2.344 -0.4641 -0.1262 -0.3891
32436SOL    HW199940   9.927   3.004   2.431 -2.5666 -1.3798 -0.1866
32436SOL    HW299941   9.873   3.004   2.289 -0.8138 -1.4795 -0.8774
32437SOL     OW99942   8.501   8.158   4.807 -0.8970  0.1702 -0.7934
32437SOL    HW199943   8.509   8.211   4.886  0.5889  1.2712 -1.6346
32437SOL    HW299944   8.584   8.170   4.761 -1.2886 -1.3369 -1.9816
32438SOL     OW99945   9.542   9.367   2.644 -0.3997  0.2160 -0.0040
32438SOL    HW199946   9.516   9.460   2.643 -1.4860 -0.0721 -0.6971
32438SOL    HW299947   9.461   9.320   2.625  0.4575 -0.8067 -1.2681
32439SOL     OW99948   3.581   3.591   1.829  0.6359 -0.1177 -0.5037
32439SOL    HW199949   3.654   3.564   1.774  1.7615 -0.4896  1.1163
32439SOL    HW299950   3.537   3.660   1.778  2.7875  0.9325 -1.0393
32440SOL     OW99951   8.917   3.357   7.047 -0.0067  0.3961  0.4639
32440SOL    HW199952   8.976   3.433   7.048  0.4622  0.0510 -0.4344
32440SOL    HW299953   8.892   3.347   6.955  0.0844 -0.6518  0.5456
32441SOL     OW99954   5.465   3.925   7.318 -0.2374 -0.0479  0.8776
32441SOL    HW199955   5.409   3.970   7.381 -0.0455 -1.2764  1.9725
32441SOL    HW299956   5.545   3.978   7.314 -0.4036  0.2399  1.3768
32442SOL     OW99957   6.240   2.234   0.523 -0.3630 -0.5959 -1.1873
32442SOL    HW199958   6.264   2.239   0.430 -0.1900 -0.6841 -1.1476
32442SOL    HW299959   6.317   2.197   0.565  0.3624  1.3494 -0.6974
32443SOL     OW99960   9.374   2.562   7.592 -0.2411 -0.2212 -0.1188
32443SOL    HW199961   9.424   2.644   7.587  0.3843 -0.6508 -1.4335
32443SOL    HW299962   9.305   2.572   7.526  0.4125 -1.1056 -0.9652
32444SOL     OW99963   2.858   1.036   9.696  0.8801 -0.3874 -0.4354
32444SOL    HW199964   2.843   0.949   9.660 -2.1088  0.2234 -0.9851
32444SOL    HW299965   2.845   1.026   9.790 -1.7847 -0.2302 -0.7152
32445SOL     OW99966   0.965   5.175   5.619 -0.0819  0.0111  0.2040
32445SOL    HW199967   0.969   5.080   5.635  0.6166  0.1365  0.8859
32445SOL    HW299968   0.994   5.185   5.529 -0.2632 -0.4388  0.0927
32446SOL     OW99969   5.168   5.927   2.007  0.4864 -0.3835  0.2669
32446SOL    HW199970   5.152   6.015   1.974  1.1066 -0.9714 -1.7436
32446SOL    HW299971   5.081   5.892   2.025 -0.0244 -0.4137 -1.9398
32447SOL     OW99972   4.511   0.035   3.655  0.0678  0.6618  0.2553
32447SOL    HW199973   4.565   0.052   3.577 -0.9897 -0.8508 -0.8785
32447SOL    HW299974   4.431  -0.005   3.620  0.2761 -1.7194  2.2144
32448SOL     OW99975   5.084   2.750   5.614  0.1178 -0.1823  0.2364
32448SOL    HW199976   5.097   2.775   5.706 -0.6635  1.8287 -0.1526
32448SOL    HW299977   5.173   2.738   5.580  0.4396 -0.3292  1.1054
32449SOL     OW99978   9.410   4.316  10.212  0.8707  0.7795 -0.7826
32449SOL    HW199979   9.497   4.354  10.218  1.0691  0.1305  0.8348
32449SOL    HW299980   9.369   4.335  10.296  0.1774 -0.6160 -0.7674
32450SOL     OW99981   5.902   3.247   8.211 -0.1664  0.2735  0.3488
32450SOL    HW199982   5.892   3.269   8.304  3.8311  1.0505  0.7819
32450SOL    HW299983   5.913   3.152   8.210  1.0309  0.3972  0.8602
32451SOL     OW99984   4.378   6.533   8.768 -0.0567 -0.4787 -0.2480
32451SOL    HW199985   4.371   6.513   8.674 -0.1547 -0.3770 -0.2628
32451SOL    HW299986   4.446   6.474   8.800  0.0841 -0.4088 -0.4150
32452SOL     OW99987   1.180   7.746   4.110 -0.1176  0.0707  0.4644
32452SOL    HW199988   1.230   7.666   4.124  0.1644  0.4382  1.6352
32452SOL    HW299989   1.189   7.763   4.016  1.8188  0.0248  0.6019
32453SOL     OW99990   4.671   0.721   8.604 -0.1038  0.0068  0.1451
32453SOL    HW199991   4.736   0.704   8.672 -0.7872  0.6757  0.9790
32453SOL    HW299992   4.653   0.815   8.611 -0.2654  0.0726 -0.8985
32454SOL     OW99993   5.567   7.807   0.924  0.3656 -0.7805 -0.0645
32454SOL    HW199994   5.530   7.749   0.857  0.7083 -1.1907  0.0972
32454SOL    HW299995   5.498   7.815   0.990 -0.6218  0.9329 -1.2093
32455SOL     OW99996   5.176   7.436   8.546 -0.8674 -0.2531 -0.3351
32455SOL    HW199997   5.119   7.380   8.598  0.4999 -1.8938 -0.5262
32455SOL    HW299998   5.209   7.501   8.608 -1.5820 -0.3425  0.1465
32456SOL     OW99999   1.824   6.874   1.353  0.2851  0.3786 -0.4867
32456SOL    HW1    0   1.835   6.841   1.264 -0.9696 -1.5145 -0.0121
32456SOL    HW2    1   1.782   6.802   1.400 -0.5102  1.8908  1.2483
32457SOL     OW    2   4.962   5.537   1.962  0.6295  0.4954 -0.2450
32457SOL    HW1    3   4.929   5.454   1.996 -2.4981  0.3093 -3.1611
32457SOL    HW2    4   5.045   5.515   1.920  0.2962 -1.0019 -0.1777
32458SOL     OW    5   6.924   4.093   1.092 -0.5167  0.4763  0.5775
32458SOL    HW1    6   6.878   4.009   1.094  0.2910  0.0283  0.5319
32458SOL    HW2    7   6.854   4.159   1.103 -0.8685 -0.2539  3.4229
32459SOL     OW    8   3.255   7.028  10.059 -0.3737 -0.0379 -0.0354
32459SOL    HW1    9   3.216   7.054   9.975  1.7690 -0.0487 -1.1015
32459SOL    HW2   10   3.337   6.985  10.035  0.2671 -0.1154  2.0808
32460SOL     OW   11   2.619   9.049  10.240  0.2754 -0.3331 -0.1277
32460SOL    HW1   12   2.645   8.986  10.307  1.5261  1.0339  0.7354
32460SOL    HW2   13   2.610   9.132  10.287 -0.8838  0.2537 -1.3032
32461SOL     OW   14   6.931   8.308   2.769  0.1688  0.0638  0.2229
32461SOL    HW1   15   6.904   8.275   2.855  1.3720  0.8008  0.9158
32461SOL    HW2   16   6.985   8.238   2.733  0.9692  0.3905  0.7670
32462SOL     OW   17  10.221   2.927   9.736 -0.1110  0.5224 -0.4357
32462SOL    HW1   18  10.141   2.889   9.774  0.7202 -0.2201  0.6404
32462SOL    HW2   19  10.192   2.967   9.654 -2.0104  2.1497  0.9223
32463SOL     OW   20   4.193   0.913   4.893  0.0026 -0.0075  0.0670
32463SOL    HW1   21   4.179   0.836   4.948  2.2331  0.6629  1.6948
32463SOL    HW2   22   4.207   0.878   4.805  1.7609 -1.5596  0.9153
32464SOL     OW   23   3.298   4.232   7.979 -0.1559  0.8785  0.0170
32464SOL    HW1   24   3.331   4.182   7.904  0.5563  0.2725  0.7137
32464SOL    HW2   25   3.314   4.175   8.054  0.3326  1.9948  0.7846
32465SOL     OW   26   8.996   8.460   0.517 -0.6084 -0.9622 -0.1756
32465SOL    HW1   27   8.934   8.400   0.559 -1.1467 -0.9335 -0.8953
32465SOL    HW2   28   8.947   8.541   0.505  0.6956  0.3532  2.5500
32466SOL     OW   29   8.625   5.904   5.135 -0.0251 -0.4984  0.1427
32466SOL    HW1   30   8.676   5.823   5.137  0.4035 -0.2570 -0.6124
32466SOL    HW2   31   8.659   5.955   5.209  0.2157 -0.7010  0.1759
32467SOL     OW   32   5.853   7.574   8.581 -0.8586 -0.2624  0.4341
32467SOL    HW1   33   5.772   7.570   8.632 -2.4654  0.0755 -1.9119
32467SOL    HW2   34   5.836   7.519   8.504  1.5043 -0.9189  0.2997
32468SOL     OW   35   9.893   8.537   2.945 -0.1377  0.2537 -0.1050
32468SOL    HW1   36   9.965   8.516   2.886 -1.6371 -1.1827 -1.5471
32468SOL    HW2   37   9.912   8.488   3.025  0.3275 -0.3836 -0.5975
32469SOL     OW   38   0.752   0.532   4.789 -0.3435  0.0868 -0.3913
32469SOL    HW1   39   0.741   0.608   4.847 -1.9011 -1.0982  0.9988
32469SOL    HW2   40   0.711   0.558   4.707 -4.3779 -0.3464  1.2046
32470SOL     OW   41   5.693   2.691   3.754 -0.0894  0.4232  0.0809
32470SOL    HW1   42   5.683   2.726   3.842 -1.4633  0.4244 -0.0648
32470SOL    HW2   43   5.611   2.711   3.710  1.2307  2.0682 -1.8156
32471SOL     OW   44   9.411   0.080   2.561 -0.2440  0.2779 -0.1184
32471SOL    HW1   45   9.451   0.077   2.474 -0.6755  0.7211 -0.3438
32471SOL    HW2   46   9.460   0.147   2.608 -0.0408  0.0722 -0.0378
32472SOL     OW   47   6.927  10.155   8.084 -0.4904  0.2837  0.6726
32472SOL    HW1   48   6.945  10.072   8.128 -1.2571 -0.1239  0.2398
32472SOL    HW2   49   7.013  10.196   8.074 -0.2078 -0.0546  1.6655
32473SOL     OW   50   8.039   5.876   6.806 -0.1889  0.2163 -0.0048
32473SOL    HW1   51   8.072   5.810   6.745 -1.8194  0.3824 -1.1306
32473SOL    HW2   52   8.106   5.944   6.806  0.3494 -0.2906 -0.7773
32474SOL     OW   53   8.701   4.500   0.923 -0.0683 -0.5710  0.1101
32474SOL    HW1   54   8.727   4.560   0.853  0.7197 -1.2517 -0.1938
32474SOL    HW2   55   8.663   4.425   0.878  0.2194 -0.9059  0.4182
32475SOL     OW   56   3.284   5.965   7.974 -0.0550  0.3920 -0.6206
32475SOL    HW1   57   3.274   5.926   8.060 -0.9356 -0.7962 -1.2403
32475SOL    HW2   58   3.194   5.985   7.946  0.2659  1.3565 -1.0047
32476SOL     OW   59   0.313  10.086   2.377 -0.0198 -0.1304 -0.3112
32476SOL    HW1   60   0.296  10.073   2.284 -1.1213 -1.8808  0.0897
32476SOL    HW2   61   0.248  10.150   2.405 -0.1899 -0.1831 -0.5838
32477SOL     OW   62   3.576   7.798   3.719 -0.0261 -0.4058 -0.5420
32477SOL    HW1   63   3.515   7.758   3.781  1.0218  0.8416  1.4006
32477SOL    HW2   64   3.660   7.758   3.739  0.1637 -0.7639 -1.9442
32478SOL     OW   65   2.126   5.091   2.290  0.3420 -1.5562  0.7319
32478SOL    HW1   66   2.163   5.172   2.325 -0.8482  0.2824 -1.8896
32478SOL    HW2   67   2.198   5.050   2.242  0.7953 -1.7746  1.5794
32479SOL     OW   68   2.646   5.851   6.341 -0.1551  0.2193  0.4249
32479SOL    HW1   69   2.695   5.934   6.337 -0.0540  0.2455  1.6902
32479SOL    HW2   70   2.700   5.794   6.395  0.3254 -1.0967 -1.3631
32480SOL     OW   71   2.818   5.644   3.493 -0.1552 -0.3464 -0.1289
32480SOL    HW1   72   2.793   5.630   3.584 -0.1817  1.1553  0.1183
32480SOL    HW2   73   2.769   5.577   3.444 -0.2006 -1.1159  0.9339
32481SOL     OW   74   9.991   8.751   2.084  0.3256  0.5023  0.0518
32481SOL    HW1   75   9.919   8.813   2.075 -1.1013 -0.9500  0.8985
32481SOL    HW2   76  10.026   8.742   1.995 -1.1942  0.4965 -0.5716
32482SOL     OW   77   9.784   0.821   8.175 -0.3341 -0.3449 -0.5357
32482SOL    HW1   78   9.752   0.871   8.250 -1.2655  1.4660 -2.0352
32482SOL    HW2   79   9.728   0.744   8.170  0.9312 -1.5047  1.6502
32483SOL     OW   80   8.172   8.576   9.050  0.1689  0.2013 -0.2135
32483SOL    HW1   81   8.253   8.555   9.096 -0.1220  0.1562  0.2828
32483SOL    HW2   82   8.112   8.605   9.118 -0.2717  0.1283 -0.5637
32484SOL     OW   83   8.565   4.155   4.183  0.6110  0.1040 -0.0048
32484SOL    HW1   84   8.636   4.202   4.140  1.3067  0.6118  1.6194
32484SOL    HW2   85   8.493   4.155   4.120  0.7573  2.9128 -0.2805
32485SOL     OW   86   1.228   8.852   1.144  0.2309  0.3774  0.5504
32485SOL    HW1   87   1.142   8.864   1.103  0.0015  1.2379  1.2579
32485SOL    HW2   88   1.253   8.940   1.173  1.3101  0.1169  0.4431
32486SOL     OW   89   9.722   6.207   8.858 -0.1860  0.2440 -0.4181
32486SOL    HW1   90   9.813   6.179   8.848 -0.0749  0.7600 -0.9096
32486SOL    HW2   91   9.676   6.168   8.784 -0.2573  0.4161 -0.4661
32487SOL     OW   92  10.115   7.931   3.116 -0.8395 -0.1694 -0.4520
32487SOL    HW1   93  10.117   7.945   3.021 -1.0927  1.1595 -0.2844
32487SOL    HW2   94  10.193   7.974   3.149 -0.5192 -1.0078 -0.0846
32488SOL     OW   95   0.776   0.406   0.107  0.6444 -0.0604 -0.0789
32488SOL    HW1   96   0.859   0.358   0.099  0.4636 -0.9999  2.5217
32488SOL    HW2   97   0.800   0.498   0.098  2.0332 -0.3138  0.7850
32489SOL     OW   98   2.371   6.366   3.547 -0.2281  0.2616  0.2140
32489SOL    HW1   99   2.358   6.365   3.452  1.2694  1.3449 -0.0343
32489SOL    HW2  100   2.350   6.455   3.574  0.3789  0.2530  0.7425
32490SOL     OW  101   4.875   4.482   0.052  0.1700  0.4149  0.3752
32490SOL    HW1  102   4.959   4.453   0.087 -0.5603  0.1104  1.9872
32490SOL    HW2  103   4.883   4.578   0.047  0.5420  0.4032  0.7203
32491SOL     OW  104   9.210   8.344   2.870  0.2836  0.3989  0.2703
32491SOL    HW1  105   9.129   8.321   2.917 -0.6586 -0.4327 -1.6257
32491SOL    HW2  106   9.248   8.415   2.921 -1.0449  0.0449  1.8577
32492SOL     OW  107   4.615   8.567   5.451 -0.5201  0.5555  0.6121
32492SOL    HW1  108   4.615   8.556   5.356  0.4312  0.6487  0.5922
32492SOL    HW2  109   4.704   8.544   5.478  0.0769  3.1386  1.1520
32493SOL     OW  110   2.221   9.179   4.268 -0.6250 -0.0539 -0.0598
32493SOL    HW1  111   2.134   9.157   4.301 -0.5665 -0.5045 -0.1917
32493SOL    HW2  112   2.212   9.175   4.173 -0.5203  0.1325 -0.0766
32494SOL     OW  113   1.492   9.207   8.496  0.0066 -0.0220  0.4438
32494SOL    HW1  114   1.559   9.272   8.476  1.3020 -1.3620  0.2780
32494SOL    HW2  115   1.514   9.132   8.442 -0.8116 -1.0131  1.4328
32495SOL     OW  116   6.702  10.074   9.886 -0.1666 -0.0792 -0.2716
32495SOL    HW1  117   6.667  10.039   9.967 -0.8546 -2.2343 -1.4217
32495SOL    HW2  118   6.768  10.137   9.913  0.4099 -1.5452  1.9412
32496SOL     OW  119   4.809  10.339   7.360 -0.7547 -0.5006  0.0337
32496SOL    HW1  120   4.734  10.340   7.419 -1.9307 -0.2202 -1.4338
32496SOL    HW2  121   4.776  10.372   7.277  1.0416 -0.1861 -0.6061
32497SOL     OW  122   5.638   4.935   5.207  0.0087 -0.2178  0.8503
32497SOL    HW1  123   5.565   4.874   5.192  0.2871 -0.3527 -0.0377
32497SOL    HW2  124   5.713   4.893   5.165  0.6069 -0.0692  1.7453
32498SOL     OW  125   2.472   3.658   3.398  0.1727  0.3076 -0.0235
32498SOL    HW1  126   2.533   3.585   3.404 -0.1380 -0.0118 -0.5824
32498SOL    HW2  127   2.479   3.704   3.481 -0.6408 -1.1712  0.8951
32499SOL     OW  128   0.322   4.439   3.476  0.3382  0.6699  0.4427
32499SOL    HW1  129   0.318   4.514   3.536  0.1154 -0.3153  1.6857
32499SOL    HW2  130   0.383   4.378   3.517  0.0879 -0.0774 -0.2657
32500SOL     OW  131   7.705   8.512   1.403 -0.0736 -0.1053 -0.6087
32500SOL    HW1  132   7.792   8.531   1.371 -0.0516 -1.1869 -1.2410
32500SOL    HW2  133   7.702   8.550   1.491  0.1544  2.1380 -1.5182
32501SOL     OW  134   1.411   9.337   6.076  0.0283  0.0497  0.2999
32501SOL    HW1  135   1.482   9.275   6.092 -0.2964 -0.0259  1.5532
32501SOL    HW2  136   1.367   9.346   6.160  1.0723  3.2613  0.6432
32502SOL     OW  137   8.468   9.190   4.163  0.0133 -0.3461  0.4095
32502SOL    HW1  138   8.464   9.142   4.080 -1.8842  2.2305 -1.1009
32502SOL    HW2  139   8.397   9.153   4.216  0.4909 -1.2025  0.4755
32503SOL     OW  140   5.997   4.440   6.245 -0.6585  0.3380  0.2555
32503SOL    HW1  141   5.947   4.359   6.232 -1.8941  1.2696 -1.0248
32503SOL    HW2  142   5.936   4.510   6.224  0.8902  1.5614 -0.3759
32504SOL     OW  143   7.729   1.351   6.543  0.1483  0.1830 -0.5354
32504SOL    HW1  144   7.781   1.430   6.524 -1.5676  1.1690 -1.3284
32504SOL    HW2  145   7.651   1.384   6.587 -0.4755 -1.1195 -0.6359
32505SOL     OW  146   8.265   9.229   6.957 -0.2048  0.4704  0.0662
32505SOL    HW1  147   8.339   9.272   6.914  0.9948 -0.9781  0.6240
32505SOL    HW2  148   8.279   9.243   7.050 -0.1259 -0.5783  0.2233
32506SOL     OW  149  10.177   4.752   9.694 -0.4176 -0.0507  0.2669
32506SOL    HW1  150  10.121   4.677   9.675 -0.4314  0.3390 -1.3688
32506SOL    HW2  151  10.145   4.785   9.778 -2.1952 -0.2799 -0.2720
32507SOL     OW  152   2.036   1.492   3.885  0.2804 -0.4374 -0.4692
32507SOL    HW1  153   2.048   1.551   3.811 -0.6289  0.4133  0.0329
32507SOL    HW2  154   1.954   1.446   3.865  0.2194 -0.4605 -0.1718
32508SOL     OW  155   2.637   5.396   6.862 -0.0069  0.1671  0.3120
32508SOL    HW1  156   2.631   5.324   6.800 -0.0098  0.7634 -0.3897
32508SOL    HW2  157   2.649   5.474   6.808  2.4080  0.4494  1.1139
32509SOL     OW  158   9.735   3.028   0.331  0.4860  0.2382  0.0081
32509SOL    HW1  159   9.799   3.097   0.350 -0.6211  0.8122  1.9614
32509SOL    HW2  160   9.720   3.034   0.237 -0.0843  3.1542  0.2139
32510SOL     OW  161   9.409   8.147   8.958  0.3818  0.2217 -0.1044
32510SOL    HW1  162   9.402   8.052   8.958 -0.4187  0.2464 -1.7733
32510SOL    HW2  163   9.481   8.166   9.018  0.9439 -1.4658 -0.2068
32511SOL     OW  164   3.013   0.155   2.358 -0.1447  0.3883  0.4594
32511SOL    HW1  165   2.985   0.122   2.443 -1.1883 -1.3817 -0.5105
32511SOL    HW2  166   2.943   0.215   2.332 -0.9915 -0.7978 -0.1006
32512SOL     OW  167   7.199   0.063   3.777  0.1716  0.3654  0.3890
32512SOL    HW1  168   7.213   0.040   3.685  0.1162 -1.2057  0.7434
32512SOL    HW2  169   7.114   0.025   3.798 -1.3544  3.4368  0.2799
32513SOL     OW  170   6.891   3.887   2.616 -0.4155  0.0370 -0.0963
32513SOL    HW1  171   6.852   3.877   2.529 -0.6394 -0.3295  0.0404
32513SOL    HW2  172   6.821   3.924   2.670 -0.7547 -1.0936  0.2720
32514SOL     OW  173   9.966   0.899   4.591 -0.1868  0.1264  0.2351
32514SOL    HW1  174  10.059   0.890   4.611 -0.2628 -1.7429 -0.0790
32514SOL    HW2  175   9.963   0.947   4.509  0.5354 -0.2037  0.0093
32515SOL     OW  176   2.423   2.655   7.887  0.6521 -0.1718 -0.6284
32515SOL    HW1  177   2.518   2.659   7.872  0.8585  0.6415  0.7318
32515SOL    HW2  178   2.411   2.691   7.975 -0.7786 -1.6364 -0.1747
32516SOL     OW  179   3.495   8.377   3.969  0.1009  1.0122  0.5052
32516SOL    HW1  180   3.549   8.455   3.958  0.3322  0.9305  1.0293
32516SOL    HW2  181   3.531   8.333   4.046 -1.0064  1.2036  1.1681
32517SOL     OW  182   5.052   7.804   5.573  0.4300 -0.6178 -0.1753
32517SOL    HW1  183   5.109   7.867   5.529  1.2169 -0.3336  1.1898
32517SOL    HW2  184   4.966   7.820   5.536  0.5251  1.5730  0.4211
32518SOL     OW  185   9.102   0.619  10.155 -0.0703  0.6728  0.1737
32518SOL    HW1  186   9.149   0.593  10.076 -0.4627 -1.2020  0.4946
32518SOL    HW2  187   9.135   0.559  10.223 -3.6247 -1.6343  0.1820
32519SOL     OW  188   5.519   4.726   5.842 -0.4454  0.2007  0.4156
32519SOL    HW1  189   5.603   4.679   5.838 -0.1156  0.7619  0.5346
32519SOL    HW2  190   5.489   4.730   5.752 -0.3447 -0.0099  0.3724
32520SOL     OW  191   4.527   4.553   8.446 -0.3802  0.2466 -0.5772
32520SOL    HW1  192   4.615   4.557   8.408 -0.8900 -0.4975 -1.8876
32520SOL    HW2  193   4.468   4.564   8.371 -1.4062  0.2277  0.2116
32521SOL     OW  194   7.065   2.182   7.520 -0.7417 -0.0267  0.2001
32521SOL    HW1  195   7.159   2.179   7.536 -0.6413  0.8332 -0.1431
32521SOL    HW2  196   7.026   2.191   7.607 -0.4719  0.1281  0.3063
32522SOL     OW  197   9.614   2.090   7.635  0.3127  0.1060  0.1472
32522SOL    HW1  198   9.615   2.145   7.713 -0.4481 -0.1762  0.3653
32522SOL    HW2  199   9.668   2.137   7.571  0.3834  0.6688  0.6177
32523SOL     OW  200   1.792   5.915   6.474  0.8389 -0.3087  0.3181
32523SOL    HW1  201   1.828   5.927   6.386 -0.6783  0.7050 -0.2047
32523SOL    HW2  202   1.713   5.863   6.461 -0.2560  1.1376  0.8392
32524SOL     OW  203   1.109   0.199   1.772  0.5947  0.3821 -0.0293
32524SOL    HW1  204   1.119   0.233   1.861 -0.7362 -1.5930  0.9458
32524SOL    HW2  205   1.147   0.112   1.775 -0.3717 -0.1012 -1.1084
32525SOL     OW  206   3.236   6.113   6.905 -0.3917  1.0729  0.1688
32525SOL    HW1  207   3.236   6.018   6.919 -0.6077  0.7289 -1.8665
32525SOL    HW2  208   3.143   6.135   6.897 -0.4464  1.7551  2.1212
32526SOL     OW  209   6.314   3.961   8.416 -0.2340  1.2510 -0.3706
32526SOL    HW1  210   6.360   3.979   8.497 -1.5658 -0.5958  0.8676
32526SOL    HW2  211   6.321   3.867   8.404 -0.8763  1.3634 -1.8998
32527SOL     OW  212  10.303   8.524   1.770 -0.0335  0.0684 -0.1958
32527SOL    HW1  213  10.262   8.467   1.835  0.7224 -1.2356 -0.8210
32527SOL    HW2  214  10.279   8.485   1.686 -1.0868  1.7892 -0.7390
32528SOL     OW  215   4.379   9.601   9.308  1.1509  0.3913 -0.0343
32528SOL    HW1  216   4.315   9.544   9.265  1.4641  1.4327 -1.9821
32528SOL    HW2  217   4.334   9.633   9.386  0.2369 -0.8977 -0.0057
32529SOL     OW  218   6.078   8.461   7.738 -0.9231 -0.1723  0.2857
32529SOL    HW1  219   6.012   8.402   7.702 -3.0985  1.4502  1.3638
32529SOL    HW2  220   6.044   8.485   7.824  0.2528  2.0034  0.2252
32530SOL     OW  221   8.736   1.799   2.449  0.5049 -0.0056  0.4278
32530SOL    HW1  222   8.701   1.763   2.531 -0.3624  0.2051  0.1540
32530SOL    HW2  223   8.792   1.871   2.477  1.1763 -0.6871  0.9024
32531SOL     OW  224   4.009   8.272   9.779 -0.6685  0.0469  0.0794
32531SOL    HW1  225   3.948   8.207   9.744 -0.8519  0.7165 -0.8787
32531SOL    HW2  226   4.089   8.222   9.798  0.4197 -0.0437 -3.7466
32532SOL     OW  227   6.810   7.868   8.355  0.0975 -0.0426  0.3594
32532SOL    HW1  228   6.833   7.785   8.314 -0.6268 -0.1509  0.1758
32532SOL    HW2  229   6.801   7.929   8.282  0.5118  0.1777  0.4851
32533SOL     OW  230   2.998   7.528   5.450  0.3780  0.2422  0.2349
32533SOL    HW1  231   3.038   7.478   5.522 -1.2276 -0.7753  0.4693
32533SOL    HW2  232   3.002   7.469   5.375  0.5900  0.6815 -0.1020
32534SOL     OW  233   6.889   6.948   4.908  0.4068  0.4086 -0.2260
32534SOL    HW1  234   6.879   6.853   4.904  1.5654  0.3050 -1.0492
32534SOL    HW2  235   6.894   6.967   5.002 -2.1360 -0.0433  0.0747
32535SOL     OW  236   9.531   0.431   2.220  0.1077  0.1430 -0.6950
32535SOL    HW1  237   9.513   0.488   2.146 -4.5757  0.0355  0.0495
32535SOL    HW2  238   9.557   0.489   2.291  0.4314  0.7351 -1.2983
32536SOL     OW  239   0.340   2.144   8.543 -0.4909  0.0069 -0.5997
32536SOL    HW1  240   0.386   2.180   8.467  0.0696  0.5841  0.0015
32536SOL    HW2  241   0.247   2.155   8.522 -0.3366  0.7368 -0.9331
32537SOL     OW  242   4.641   3.300   7.720 -0.6653  0.3887  0.4796
32537SOL    HW1  243   4.573   3.295   7.652 -0.6994  0.4295  0.5110
32537SOL    HW2  244   4.723   3.304   7.671 -0.6565 -0.1028  0.4428
32538SOL     OW  245   1.480   9.769   8.731 -0.3237  0.0741  0.0825
32538SOL    HW1  246   1.527   9.696   8.691 -0.2416  0.0090  0.2988
32538SOL    HW2  247   1.542   9.842   8.725 -0.1413 -0.0465  0.4956
32539SOL     OW  248   2.697   6.801   2.455 -0.0779  0.1238  0.2582
32539SOL    HW1  249   2.665   6.728   2.508 -0.2795  0.6485  0.8687
32539SOL    HW2  250   2.789   6.780   2.437  0.5937  0.8785  2.5023
32540SOL     OW  251   4.493   6.932   2.079  0.2164  0.6777 -0.1688
32540SOL    HW1  252   4.458   6.955   2.165  1.4525  1.2812  0.1963
32540SOL    HW2  253   4.571   6.986   2.069  0.8092 -0.3008 -1.1330
32541SOL     OW  254   3.256   3.177   7.652 -0.2411 -0.3213 -0.3408
32541SOL    HW1  255   3.217   3.155   7.568 -1.6322 -1.3091  0.5253
32541SOL    HW2  256   3.347   3.149   7.644 -0.5204 -1.0035 -1.3116
32542SOL     OW  257   0.767   1.311   7.338  0.0379 -0.2000 -0.0978
32542SOL    HW1  258   0.680   1.289   7.372  0.5715 -0.4400  1.1766
32542SOL    HW2  259   0.765   1.406   7.329  0.0500 -0.0514  1.2022
32543SOL     OW  260   0.148   4.319   2.811  0.2476 -0.0266 -0.1708
32543SOL    HW1  261   0.188   4.405   2.801 -1.3877  0.5824 -2.1900
32543SOL    HW2  262   0.179   4.269   2.736 -1.2752 -0.1210 -0.7793
32544SOL     OW  263   5.757   8.547   9.265  0.2771 -0.0161  0.4208
32544SOL    HW1  264   5.833   8.495   9.239  0.2705  1.6394 -3.6581
32544SOL    HW2  265   5.794   8.620   9.314  1.1076 -0.2386  0.1506
32545SOL     OW  266   7.116   4.193   5.867  0.1556 -0.3190 -0.0967
32545SOL    HW1  267   7.161   4.112   5.892 -1.0043 -0.9086  0.1212
32545SOL    HW2  268   7.085   4.229   5.949 -0.5126 -0.3653 -0.3274
32546SOL     OW  269   3.655   8.549   9.953  0.3755 -0.3074  0.6155
32546SOL    HW1  270   3.718   8.544   9.882  1.3458  1.3158  1.2962
32546SOL    HW2  271   3.637   8.458   9.976  1.4069 -0.8200 -0.5101
32547SOL     OW  272   0.043   7.535   4.639  0.2200  0.2162  0.0979
32547SOL    HW1  273   0.043   7.542   4.544 -0.4534  0.6852  0.1292
32547SOL    HW2  274  -0.025   7.470   4.658  0.3847  0.0891  0.2616
32548SOL     OW  275   9.517   9.906   4.728  0.6686  0.1930 -0.4530
32548SOL    HW1  276   9.597   9.909   4.675  1.3262 -1.7253  0.3315
32548SOL    HW2  277   9.543   9.857   4.807 -1.0685  0.3007  0.2190
32549SOL     OW  278   4.501  10.314   4.945 -0.2934 -0.1720  0.3333
32549SOL    HW1  279   4.540  10.228   4.965  2.1742  0.6462 -0.5971
32549SOL    HW2  280   4.523  10.329   4.853 -2.2559  0.7135 -0.0293
32550SOL     OW  281   4.349   2.254   8.237 -0.1322 -0.5151  0.6107
32550SOL    HW1  282   4.345   2.318   8.307  0.4449 -0.2716  0.4335
32550SOL    HW2  283   4.428   2.202   8.256 -0.1601 -0.6653  0.3320
32551SOL     OW  284   0.838   5.076   4.150 -0.0745  0.0463  0.0674
32551SOL    HW1  285   0.913   5.086   4.209  0.2490  0.8347 -0.4659
32551SOL    HW2  286   0.824   5.164   4.114 -0.8570 -0.2312 -0.3215
32552SOL     OW  287   4.574   6.990   2.938 -0.5268  0.0655 -0.6621
32552SOL    HW1  288   4.527   7.056   2.888  1.1368  0.9092 -1.1774
32552SOL    HW2  289   4.630   6.946   2.874  0.4124  0.0430  0.1468
32553SOL     OW  290   0.636   1.113   6.067  0.2804  0.1050  0.0795
32553SOL    HW1  291   0.610   1.029   6.106  1.4856  0.3743  1.5786
32553SOL    HW2  292   0.708   1.090   6.009 -1.2352 -0.2387 -1.7412
32554SOL     OW  293   1.079   6.620   0.885  0.3598  0.6534 -0.0102
32554SOL    HW1  294   1.041   6.671   0.813  2.0335  3.3130  0.8512
32554SOL    HW2  295   1.146   6.677   0.922  1.7951 -1.9163  1.6263
32555SOL     OW  296   1.608   4.222   6.272 -0.3996 -0.2110  0.0343
32555SOL    HW1  297   1.584   4.254   6.186 -1.2853  0.8695  0.6563
32555SOL    HW2  298   1.702   4.237   6.279 -0.4044  0.0959 -0.5719
32556SOL     OW  299   9.920   4.420   0.018  0.0567  0.0728  0.8291
32556SOL    HW1  300  10.013   4.436   0.036  0.3251 -1.0195  0.4881
32556SOL    HW2  301   9.875   4.498   0.052  1.0927  0.6205  0.9811
32557SOL     OW  302   2.203   9.002   7.322  0.3630 -0.9916  0.3263
32557SOL    HW1  303   2.151   9.040   7.393  1.1984  0.2768  0.3047
32557SOL    HW2  304   2.150   9.017   7.243  1.6721  2.5193 -0.0698
32558SOL     OW  305   0.864   5.404   4.539  0.0044  0.0526 -0.4978
32558SOL    HW1  306   0.924   5.369   4.605 -0.1870 -0.7935 -0.7656
32558SOL    HW2  307   0.918   5.411   4.460 -0.4259 -1.4616 -0.9540
32559SOL     OW  308   4.334   1.821   0.334 -0.2627  0.7657 -0.2182
32559SOL    HW1  309   4.373   1.746   0.379  0.0185  1.3588  0.5283
32559SOL    HW2  310   4.349   1.803   0.241 -0.2156 -0.1127 -0.0484
32560SOL     OW  311   8.601   4.348   0.387  0.2461 -0.4796  0.2127
32560SOL    HW1  312   8.647   4.288   0.445  2.4164  0.5730 -0.3334
32560SOL    HW2  313   8.643   4.433   0.401 -3.1301  1.2025  1.4652
32561SOL     OW  314   5.289   3.898   7.804 -0.6658  0.3732  0.6834
32561SOL    HW1  315   5.309   3.808   7.781 -0.8893  0.6519 -0.6627
32561SOL    HW2  316   5.244   3.934   7.727  1.2551  2.2363  0.3378
32562SOL     OW  317   9.418   5.147   6.582  0.2416  0.5286 -0.5131
32562SOL    HW1  318   9.422   5.106   6.495  2.4467 -0.0746 -0.1934
32562SOL    HW2  319   9.474   5.224   6.574 -2.3283  2.4889 -0.5539
32563SOL     OW  320   1.512   9.095  10.226 -0.3578  0.5784  0.2686
32563SOL    HW1  321   1.548   9.133  10.146 -1.3868 -2.1354 -1.6060
32563SOL    HW2  322   1.578   9.031  10.254 -0.6669  0.4707  0.7742
32564SOL     OW  323  10.222   3.275   8.574 -0.3866 -0.0824  0.0738
32564SOL    HW1  324  10.202   3.302   8.664  2.3276 -1.3789  1.1863
32564SOL    HW2  325  10.150   3.217   8.550 -0.6005 -0.6511  1.8967
32565SOL     OW  326   4.198   9.330   4.555 -0.1858 -0.6282 -0.0657
32565SOL    HW1  327   4.224   9.247   4.516  0.7822 -0.3899  0.0356
32565SOL    HW2  328   4.258   9.394   4.516 -1.7601  0.2439 -1.1440
32566SOL     OW  329   6.516   3.562   7.158 -0.0211 -0.7536  0.1605
32566SOL    HW1  330   6.581   3.529   7.096 -1.2006  0.1571 -1.6453
32566SOL    HW2  331   6.439   3.579   7.105 -1.1110  0.0572  1.9112
32567SOL     OW  332   5.037   5.555   2.901 -0.3891  0.3501  0.3227
32567SOL    HW1  333   5.127   5.524   2.899 -0.5427 -0.2671  1.7191
32567SOL    HW2  334   4.994   5.508   2.829  0.4431  0.9023 -0.5725
32568SOL     OW  335   5.089   8.660  10.007  0.1342 -0.2674 -0.4092
32568SOL    HW1  336   5.079   8.566  10.014 -0.7844 -0.1380  0.1049
32568SOL    HW2  337   5.003   8.696  10.031  0.9165  0.7669  0.9488
32569SOL     OW  338   2.534   0.519   8.475 -0.3577 -0.3625  0.3392
32569SOL    HW1  339   2.606   0.565   8.518  0.7717  0.7642 -2.4863
32569SOL    HW2  340   2.571   0.491   8.391 -3.2393  0.4935 -1.3522
32570SOL     OW  341   1.027   5.169   1.586  0.0266 -0.0130 -0.3516
32570SOL    HW1  342   1.063   5.111   1.520  1.5345 -0.7563  1.0701
32570SOL    HW2  343   1.042   5.257   1.551  1.6024 -0.3634 -0.6339
32571SOL     OW  344   1.915   1.402   1.511  0.0603 -0.2174 -0.0174
32571SOL    HW1  345   1.863   1.422   1.589 -0.5457  1.6302 -0.8362
32571SOL    HW2  346   2.004   1.429   1.533  0.0197 -0.3094  0.2552
32572SOL     OW  347   0.320   5.679   0.391  0.2197 -0.3749  0.2419
32572SOL    HW1  348   0.373   5.734   0.449  1.6012  1.0071 -2.1586
32572SOL    HW2  349   0.230   5.698   0.416  0.7321  1.3365  0.9652
32573SOL     OW  350   4.028   7.118   0.064 -0.5748  0.5574 -0.6403
32573SOL    HW1  351   4.048   7.040   0.116 -2.1544 -0.3610 -1.3604
32573SOL    HW2  352   4.065   7.191   0.114 -1.2549 -0.3889  1.3135
32574SOL     OW  353   3.599   6.488   3.914 -0.3946  0.1701 -0.3334
32574SOL    HW1  354   3.676   6.515   3.863 -0.5305 -1.1204 -1.2705
32574SOL    HW2  355   3.557   6.571   3.938  0.1184  0.8547 -1.6491
32575SOL     OW  356   2.881   4.628   9.718 -0.5761  0.2933 -0.1417
32575SOL    HW1  357   2.864   4.547   9.669  0.1931  1.5317 -2.5970
32575SOL    HW2  358   2.828   4.619   9.797 -1.8722 -1.8502 -1.1476
32576SOL     OW  359   4.751   5.220   1.086 -0.3743  0.3651 -0.2367
32576SOL    HW1  360   4.791   5.134   1.071 -1.9015 -0.2719 -0.8969
32576SOL    HW2  361   4.731   5.253   0.998  1.0975  1.8855 -0.0523
32577SOL     OW  362   6.290   9.696   4.206 -0.0481  0.6330  0.4689
32577SOL    HW1  363   6.372   9.709   4.159 -0.2092 -0.0356 -0.0040
32577SOL    HW2  364   6.234   9.768   4.177 -0.2805  0.0215 -0.6827
32578SOL     OW  365   0.159   8.290   7.745 -0.0899  1.3387  1.1343
32578SOL    HW1  366   0.066   8.272   7.753  0.0814 -0.2285  0.2420
32578SOL    HW2  367   0.198   8.252   7.823 -0.0880  0.9326  0.9385
32579SOL     OW  368   5.127   1.932   4.776 -1.0996  0.4598 -0.6178
32579SOL    HW1  369   5.180   1.928   4.696 -1.1982 -2.3456 -0.6334
32579SOL    HW2  370   5.038   1.949   4.745 -0.9982  0.2419 -1.0352
32580SOL     OW  371   5.138   5.029   2.709  0.3030  0.1975 -0.0421
32580SOL    HW1  372   5.223   5.003   2.673 -0.0513 -1.4485  0.1934
32580SOL    HW2  373   5.090   5.065   2.635  0.2877 -1.2960 -0.7937
32581SOL     OW  374   2.928   7.899  10.090  0.5453 -0.2356  0.1882
32581SOL    HW1  375   2.955   7.827  10.032 -1.0631 -0.2882 -0.5549
32581SOL    HW2  376   2.958   7.873  10.177  0.6584 -1.4387 -0.1976
32582SOL     OW  377   8.477   4.490   9.438  0.2030 -0.4576 -0.0425
32582SOL    HW1  378   8.573   4.486   9.431  0.2501 -0.6052  0.6050
32582SOL    HW2  379   8.461   4.535   9.521 -0.2930 -0.3959 -0.1702
32583SOL     OW  380   4.479   8.478   3.091 -0.3893 -0.0079 -0.1693
32583SOL    HW1  381   4.472   8.386   3.117 -0.6228 -0.5562 -2.0199
32583SOL    HW2  382   4.574   8.493   3.083 -0.3739 -0.9648 -2.5787
32584SOL     OW  383   8.472   0.989   0.614 -1.2340 -0.7346  0.7569
32584SOL    HW1  384   8.524   1.052   0.564 -0.7282 -0.2152  1.8721
32584SOL    HW2  385   8.412   1.044   0.666 -2.5468 -1.3014 -0.1113
32585SOL     OW  386   6.268   0.800   7.351 -0.2962 -0.3502 -0.1118
32585SOL    HW1  387   6.244   0.788   7.443 -2.4037  0.7415 -0.4610
32585SOL    HW2  388   6.357   0.835   7.353  0.0700 -1.2879  1.4397
32586SOL     OW  389   4.136   3.313   0.132  0.1811 -0.0978 -0.1462
32586SOL    HW1  390   4.061   3.308   0.191 -0.1480  0.7764 -0.4618
32586SOL    HW2  391   4.211   3.331   0.189  0.1010 -0.6676  0.1408
32587SOL     OW  392   8.820   8.925   2.972 -0.1250  0.7406 -0.6861
32587SOL    HW1  393   8.795   9.008   3.014 -0.7227  0.7044 -0.9589
32587SOL    HW2  394   8.799   8.938   2.880 -0.4173  0.2152 -0.6958
32588SOL     OW  395   9.535   1.217   3.474  0.2847  0.0153 -0.2378
32588SOL    HW1  396   9.519   1.230   3.568  2.5215  1.0819  0.0506
32588SOL    HW2  397   9.511   1.126   3.459 -2.6679  0.5276  0.7391
32589SOL     OW  398   4.594   8.768   8.540  0.1811 -0.4264  0.5687
32589SOL    HW1  399   4.654   8.700   8.570 -0.4291 -1.7558 -1.1114
32589SOL    HW2  400   4.650   8.832   8.496  0.4587 -1.3068 -0.3790
32590SOL     OW  401   3.938   0.931   8.695  0.3331  0.8064  0.0721
32590SOL    HW1  402   3.864   0.990   8.703  0.6184  1.1104  0.5664
32590SOL    HW2  403   4.015   0.988   8.705  0.6363  0.5212 -0.5862
32591SOL     OW  404   1.676   7.085   9.639 -0.7364  0.0213  0.4812
32591SOL    HW1  405   1.718   7.070   9.554 -1.5382  0.3407  0.0271
32591SOL    HW2  406   1.744   7.128   9.691 -0.0983 -0.5575  0.1487
32592SOL     OW  407   1.340  10.287   6.762  0.3846  0.0734  0.6236
32592SOL    HW1  408   1.436  10.284   6.757  0.4850  0.1916  2.1024
32592SOL    HW2  409   1.318  10.380   6.753  0.3720  0.0216  0.0405
32593SOL     OW  410   1.244   3.729   4.608  0.1119 -0.0075 -0.1128
32593SOL    HW1  411   1.264   3.636   4.609 -1.3372 -0.3398  0.4262
32593SOL    HW2  412   1.149   3.734   4.594  0.2296  1.4027 -0.6431
32594SOL     OW  413   4.954   2.681   9.191 -0.2730 -0.6420  0.1768
32594SOL    HW1  414   4.957   2.720   9.104  0.2294 -0.5180  0.2459
32594SOL    HW2  415   4.869   2.708   9.227 -0.9110 -1.5070 -0.6354
32595SOL     OW  416   9.701   9.190   9.270  0.6374  0.0153  0.0916
32595SOL    HW1  417   9.722   9.181   9.363  0.0211  0.7773  0.3248
32595SOL    HW2  418   9.730   9.109   9.230  1.5716 -0.0269  0.8294
32596SOL     OW  419   5.522   6.995   6.105 -0.2759  0.3228  0.0464
32596SOL    HW1  420   5.566   7.076   6.127 -0.3260  0.3849 -0.0753
32596SOL    HW2  421   5.591   6.936   6.076 -0.2869  0.4610 -0.2624
32597SOL     OW  422   3.531   2.649   3.227  0.5748  0.0087  0.0377
32597SOL    HW1  423   3.449   2.660   3.276  0.5789  0.2537 -0.0093
32597SOL    HW2  424   3.508   2.590   3.155  0.0728  1.2176 -0.8275
32598SOL     OW  425   5.114   2.374   2.344  0.1306 -0.5637  0.2775
32598SOL    HW1  426   5.130   2.385   2.250 -4.5588 -0.5295 -0.7755
32598SOL    HW2  427   5.084   2.283   2.352  1.0186 -0.7441  1.9191
32599SOL     OW  428   9.573   2.449   4.537 -0.3133  0.3686 -0.5360
32599SOL    HW1  429   9.594   2.390   4.464 -0.6491 -0.7394  0.2350
32599SOL    HW2  430   9.648   2.508   4.543  0.3221 -0.3861 -0.9402
32600SOL     OW  431   3.470   4.688   9.537  0.6419 -0.2164 -0.1543
32600SOL    HW1  432   3.558   4.676   9.501 -0.4056 -2.5210 -2.2425
32600SOL    HW2  433   3.454   4.607   9.586  0.3687  1.0426  1.9525
32601SOL     OW  434  10.314   2.061   5.648  0.2392 -0.6066 -0.4592
32601SOL    HW1  435  10.316   2.150   5.615 -1.0149 -1.2484 -2.4412
32601SOL    HW2  436  10.256   2.065   5.725 -0.4030  0.1737 -0.9680
32602SOL     OW  437   9.846   9.521   5.447  0.4896  0.3089  0.0161
32602SOL    HW1  438   9.756   9.553   5.438  1.1079  1.8247 -1.3102
32602SOL    HW2  439   9.845   9.468   5.527 -1.4266  0.8201  0.3753
32603SOL     OW  440   7.435   0.412   2.406 -1.1118  0.2184 -0.2707
32603SOL    HW1  441   7.386   0.381   2.330  1.0505  0.9040 -2.0237
32603SOL    HW2  442   7.476   0.494   2.378 -1.2970  1.2287  2.0894
32604SOL     OW  443   6.067   3.162   8.555 -0.3369 -0.6063  0.0627
32604SOL    HW1  444   5.990   3.106   8.560 -0.0262 -1.2379 -1.4992
32604SOL    HW2  445   6.102   3.147   8.467  1.9578 -0.8558  0.9296
32605SOL     OW  446   1.614   1.775   6.715  0.0769  0.4202 -0.2905
32605SOL    HW1  447   1.688   1.758   6.657 -0.6548  2.3471 -1.9054
32605SOL    HW2  448   1.635   1.727   6.795  1.1466 -2.3625 -2.0816
32606SOL     OW  449   1.792   0.979   4.580 -0.0481 -0.6434  0.6375
32606SOL    HW1  450   1.828   1.066   4.601  0.4437 -0.8512  0.6657
32606SOL    HW2  451   1.768   0.985   4.488  0.8669 -0.7706  0.3842
32607SOL     OW  452   7.254   1.787   2.489 -0.0959  0.2122 -0.2406
32607SOL    HW1  453   7.311   1.823   2.557 -1.4499 -0.0878  1.0954
32607SOL    HW2  454   7.166   1.811   2.516 -0.7259 -0.5385 -1.5297
32608SOL     OW  455   5.905   5.214   4.052 -0.5466 -0.4221  0.8167
32608SOL    HW1  456   5.940   5.127   4.033 -2.0187 -0.9534  0.3587
32608SOL    HW2  457   5.952   5.242   4.130  1.5230 -0.6771 -0.2719
32609SOL     OW  458   6.232   0.840   2.082 -0.2891 -0.6640 -0.4792
32609SOL    HW1  459   6.301   0.899   2.051 -0.5656 -0.5725 -0.9364
32609SOL    HW2  460   6.261   0.753   2.054  0.1271 -0.7522  0.2109
32610SOL     OW  461   1.464   7.427   7.548 -0.4332 -0.2011  0.2069
32610SOL    HW1  462   1.501   7.481   7.618  0.4954  0.1346 -0.5184
32610SOL    HW2  463   1.464   7.338   7.584 -1.4671  0.1766  1.2121
32611SOL     OW  464   7.098  10.321   9.179 -0.3555 -0.2634  0.6664
32611SOL    HW1  465   7.181  10.367   9.190 -0.5407  0.5222 -0.9576
32611SOL    HW2  466   7.032  10.389   9.188 -0.7176 -0.5011 -0.1094
32612SOL     OW  467   2.746   3.605   9.731 -0.2795 -0.5956  0.6367
32612SOL    HW1  468   2.789   3.659   9.798  0.7934 -0.1260 -0.3919
32612SOL    HW2  469   2.675   3.561   9.778  1.0356 -1.0357  2.3102
32613SOL     OW  470   8.536   2.452   8.962  0.0315 -0.2597 -0.0756
32613SOL    HW1  471   8.593   2.512   9.010  0.5802 -0.7278 -0.1408
32613SOL    HW2  472   8.474   2.510   8.918 -0.5228  0.1818  1.2260
32614SOL     OW  473   6.009   6.810   5.174 -0.2413  0.2260 -0.0713
32614SOL    HW1  474   5.917   6.784   5.172 -0.5553  1.2958 -2.1482
32614SOL    HW2  475   6.051   6.759   5.104  0.3231  1.1300 -0.4119
32615SOL     OW  476   5.036   1.379   9.809 -0.3527 -0.5894  0.3909
32615SOL    HW1  477   5.063   1.446   9.872  0.3990  0.8576 -1.3726
32615SOL    HW2  478   5.116   1.331   9.789 -0.1973  0.0598 -0.6582
32616SOL     OW  479   6.564   5.278   3.447 -0.4802 -0.3387 -0.4252
32616SOL    HW1  480   6.602   5.321   3.523 -1.2924 -1.0679  0.4090
32616SOL    HW2  481   6.475   5.313   3.441 -1.5680 -2.6613  0.9539
32617SOL     OW  482   2.433   6.796   0.212  0.0512  0.0253 -0.1799
32617SOL    HW1  483   2.498   6.749   0.160  0.7246  0.7450  0.0043
32617SOL    HW2  484   2.444   6.888   0.188 -0.7082  0.1871  0.0628
32618SOL     OW  485   9.629   1.986   1.638 -0.2920  0.2192  0.1094
32618SOL    HW1  486   9.702   1.950   1.588 -0.1333  0.3335  0.2561
32618SOL    HW2  487   9.629   1.936   1.720 -0.3774  0.2194  0.1095
32619SOL     OW  488   5.090   8.441   3.724 -0.9727  0.6695  0.0079
32619SOL    HW1  489   5.074   8.528   3.761  1.8186  0.3597  2.2631
32619SOL    HW2  490   5.167   8.452   3.668 -0.8751 -0.2727 -0.0609
32620SOL     OW  491   4.161   9.935   3.309  0.1380 -0.1821 -0.4166
32620SOL    HW1  492   4.242   9.904   3.350  0.1825  1.1196  0.5528
32620SOL    HW2  493   4.191   9.981   3.230  0.4196  0.6845  0.1717
32621SOL     OW  494   6.514   6.905   2.169 -0.0346  0.6481 -0.2398
32621SOL    HW1  495   6.527   6.939   2.257  0.3864  1.3452 -0.5636
32621SOL    HW2  496   6.568   6.961   2.113 -1.0839  0.8544 -1.0713
32622SOL     OW  497   1.487   7.238   3.673  0.2720 -0.1190  0.2446
32622SOL    HW1  498   1.501   7.227   3.579  0.4071  0.7907  0.1519
32622SOL    HW2  499   1.396   7.268   3.679  0.6432  1.0096  0.3092
32623SOL     OW  500   5.548   9.810   1.778 -0.0262 -0.2193 -0.2097
32623SOL    HW1  501   5.620   9.866   1.807  1.7366 -2.2128 -0.5146
32623SOL    HW2  502   5.548   9.819   1.683  0.6659 -1.1759 -0.3076
32624SOL     OW  503   3.833   4.334   3.247 -0.3913 -0.2230 -0.2414
32624SOL    HW1  504   3.750   4.331   3.200 -0.2128  0.1023 -0.5820
32624SOL    HW2  505   3.894   4.376   3.186 -0.6103  2.0270  0.9528
32625SOL     OW  506   4.871   3.375   7.124 -0.5347  0.1690  0.7559
32625SOL    HW1  507   4.960   3.403   7.145 -0.4047 -0.3601  0.9285
32625SOL    HW2  508   4.818   3.453   7.136 -0.1482  0.3946  1.0221
32626SOL     OW  509   9.028   6.742   8.777  0.7771  0.3475  0.2079
32626SOL    HW1  510   9.061   6.661   8.815  0.1939 -0.7411 -1.5081
32626SOL    HW2  511   8.990   6.789   8.852 -0.9625 -2.0132  0.9381
32627SOL     OW  512   3.670   3.386   8.793 -0.3071  0.2835 -0.2188
32627SOL    HW1  513   3.578   3.395   8.816 -0.1979 -0.7448  0.6959
32627SOL    HW2  514   3.670   3.371   8.698 -0.9824  1.4119 -0.4158
32628SOL     OW  515   4.035   1.435   0.701  0.2032  0.4079  0.4734
32628SOL    HW1  516   4.036   1.340   0.710  0.7872  0.4477  0.9004
32628SOL    HW2  517   3.943   1.459   0.705 -0.1431 -0.3307 -1.7952
32629SOL     OW  518   7.739   1.254   9.263 -0.4278 -0.0423  0.2059
32629SOL    HW1  519   7.783   1.190   9.207  0.3437 -0.2327  1.0185
32629SOL    HW2  520   7.765   1.231   9.352  0.7092  2.0008  0.4654
32630SOL     OW  521   7.561   2.672   2.786  0.1697  0.2784  0.5759
32630SOL    HW1  522   7.647   2.655   2.747  0.5881  1.7820  0.7777
32630SOL    HW2  523   7.543   2.595   2.840 -0.2507 -1.7374 -2.2099
32631SOL     OW  524   0.055   3.727   2.262 -0.0032  0.2915 -0.2257
32631SOL    HW1  525   0.041   3.817   2.291 -0.0906  0.6272 -1.2639
32631SOL    HW2  526   0.118   3.734   2.190 -2.4174 -0.0789 -2.5178
32632SOL     OW  527   9.368   4.407   1.550 -0.5722  0.6690 -0.0130
32632SOL    HW1  528   9.359   4.493   1.589  1.4042  1.6631 -1.5667
32632SOL    HW2  529   9.434   4.363   1.604  2.1934  2.0594 -2.0017
32633SOL     OW  530   5.848   1.833   5.429 -0.8038 -0.5570 -0.1181
32633SOL    HW1  531   5.774   1.837   5.368 -1.5648 -3.0405  0.5582
32633SOL    HW2  532   5.809   1.811   5.513  0.6708 -1.9286  0.2554
32634SOL     OW  533   9.676   9.842   9.142  0.3130  0.2716 -0.1451
32634SOL    HW1  534   9.623   9.777   9.188 -1.9359  0.0821 -2.7123
32634SOL    HW2  535   9.712   9.795   9.067  0.8263  1.3741 -0.6167
32635SOL     OW  536   5.365   7.851   5.662 -0.0275  0.0853  0.2108
32635SOL    HW1  537   5.428   7.801   5.712 -0.8752 -0.3141  0.9077
32635SOL    HW2  538   5.372   7.818   5.572  1.9037  1.1965 -0.1040
32636SOL     OW  539   9.841   9.566   9.442  0.2891 -0.6992 -0.2099
32636SOL    HW1  540   9.924   9.602   9.412  0.0809  0.2510  0.3246
32636SOL    HW2  541   9.858   9.536   9.531  0.2195 -1.0979 -0.3263
32637SOL     OW  542   4.403   6.638   0.636 -0.2009  0.6687 -0.1689
32637SOL    HW1  543   4.470   6.707   0.631 -1.1627  1.6669  0.2590
32637SOL    HW2  544   4.422   6.591   0.717 -0.4467  1.4300  0.3446
32638SOL     OW  545   2.891   1.744   4.969  0.1143 -0.4102  0.1131
32638SOL    HW1  546   2.878   1.667   4.914  0.9008 -0.2257 -0.3525
32638SOL    HW2  547   2.930   1.809   4.910 -0.0987  0.1832  0.6147
32639SOL     OW  548   3.098   1.786  10.178 -0.0019 -1.0516  0.2518
32639SOL    HW1  549   3.012   1.821  10.200  0.2699 -0.7588  0.8783
32639SOL    HW2  550   3.146   1.860  10.142  0.0848 -1.1440  0.1750
32640SOL     OW  551   0.536   5.377   6.135  0.0329 -0.3155 -0.2721
32640SOL    HW1  552   0.490   5.295   6.114  0.1472 -0.3287 -0.4840
32640SOL    HW2  553   0.467   5.440   6.153 -0.0848 -0.1934 -1.1250
32641SOL     OW  554   0.090   6.320   1.801 -0.4836  0.6414  0.2464
32641SOL    HW1  555   0.045   6.269   1.734 -0.9283  0.0866  0.9450
32641SOL    HW2  556   0.174   6.276   1.812 -0.0733  1.2245 -0.5230
32642SOL     OW  557   0.195   6.405   2.687  0.1785 -0.4621 -0.6774
32642SOL    HW1  558   0.115   6.353   2.698  0.3219 -0.3441  1.2559
32642SOL    HW2  559   0.165   6.488   2.650 -0.3928 -0.9677 -1.3672
32643SOL     OW  560   9.016   9.026   6.465  0.5763  0.1589 -0.1986
32643SOL    HW1  561   9.070   9.082   6.408  2.6729 -1.1152  0.4364
32643SOL    HW2  562   9.046   8.937   6.446  0.3580 -0.4068  1.9150
32644SOL     OW  563   9.486   9.043   3.341 -0.2915 -0.0924 -0.2650
32644SOL    HW1  564   9.407   9.067   3.293  0.1463 -0.0858 -1.0009
32644SOL    HW2  565   9.491   8.948   3.332  0.6806  0.0688 -1.6745
32645SOL     OW  566   7.551   3.562   4.125 -0.0757 -0.4088  0.0466
32645SOL    HW1  567   7.480   3.528   4.180  0.4134 -1.9303 -0.2184
32645SOL    HW2  568   7.546   3.510   4.045  0.2124  0.7190 -0.7320
32646SOL     OW  569   7.401   3.113   5.252 -0.0964 -0.0232  0.1757
32646SOL    HW1  570   7.353   3.035   5.280 -0.8271 -0.6129 -2.4803
32646SOL    HW2  571   7.493   3.090   5.266 -0.3564 -0.8322  0.6488
32647SOL     OW  572   3.400   3.310   5.741  0.2524 -0.2690 -0.0495
32647SOL    HW1  573   3.440   3.224   5.758 -1.2394 -1.4483 -1.9919
32647SOL    HW2  574   3.444   3.340   5.661  0.4615  0.6068  0.3869
32648SOL     OW  575   2.810   9.841   8.251  1.0004 -0.0624  0.4136
32648SOL    HW1  576   2.801   9.875   8.163  1.6401  1.5050  0.9230
32648SOL    HW2  577   2.767   9.755   8.248  0.0325  0.4382 -1.1116
32649SOL     OW  578   2.282   7.195   3.942 -0.4246  0.0907 -0.1280
32649SOL    HW1  579   2.218   7.193   4.013 -0.1144 -1.9996  0.1496
32649SOL    HW2  580   2.301   7.288   3.929 -4.5104  0.9638 -1.1531
32650SOL     OW  581   8.981   1.378  10.026  0.0355  0.6121  0.0054
32650SOL    HW1  582   8.887   1.376  10.007 -0.2100 -2.0783  1.0239
32650SOL    HW2  583   9.022   1.354   9.943 -0.4524 -1.5541  0.3212
32651SOL     OW  584   0.228   1.568   5.236  0.2216 -0.1707  0.0543
32651SOL    HW1  585   0.315   1.530   5.232  0.5497  0.4108  1.3611
32651SOL    HW2  586   0.242   1.661   5.249 -0.5644 -0.3364  2.5231
32652SOL     OW  587   4.260   4.249   4.496  0.2957  0.0182  0.1630
32652SOL    HW1  588   4.172   4.256   4.533 -0.9975  0.8624 -2.7802
32652SOL    HW2  589   4.303   4.182   4.548 -1.6730  0.4089  2.4348
32653SOL     OW  590   0.608   9.261   6.748  0.0831 -0.0244  0.0646
32653SOL    HW1  591   0.531   9.211   6.778 -1.1074  1.2535 -0.7210
32653SOL    HW2  592   0.653   9.201   6.687 -0.8480 -0.4561 -0.2244
32654SOL     OW  593   7.855   5.581   0.591 -0.0754  0.5520  0.0427
32654SOL    HW1  594   7.931   5.631   0.559 -0.6426  1.7774  0.5417
32654SOL    HW2  595   7.821   5.537   0.513  1.2530 -0.2008 -0.1606
32655SOL     OW  596   9.126   7.837   4.901 -0.2236 -0.1907 -0.0484
32655SOL    HW1  597   9.125   7.748   4.936 -0.3991 -0.4599 -0.7193
32655SOL    HW2  598   9.036   7.868   4.912 -0.5844 -0.7211 -1.3481
32656SOL     OW  599   2.357   0.738   8.615  0.3164 -0.1221  0.2656
32656SOL    HW1  600   2.358   0.662   8.674 -0.4635  1.0787  1.8885
32656SOL    HW2  601   2.315   0.706   8.536 -0.6804 -1.2205  1.1980
32657SOL     OW  602   7.210   2.424   2.244  0.6633  0.1943  0.5497
32657SOL    HW1  603   7.118   2.421   2.267  0.5677  0.1005  0.1684
32657SOL    HW2  604   7.256   2.438   2.327  0.2971  0.4045  0.7173
32658SOL     OW  605   0.489   6.041   9.344 -0.1086  0.4715  0.4448
32658SOL    HW1  606   0.502   6.120   9.291 -1.3650  0.1377 -0.3958
32658SOL    HW2  607   0.423   5.991   9.297 -0.1953 -0.5294  1.5878
32659SOL     OW  608   9.532  10.331   9.056  0.5086 -0.4306  0.6044
32659SOL    HW1  609   9.583  10.331   8.975  1.0879  0.0129  0.9594
32659SOL    HW2  610   9.444  10.357   9.029  0.8366  0.3026  0.1979
32660SOL     OW  611   2.606   2.544   5.957  0.1915  0.6582  0.1330
32660SOL    HW1  612   2.687   2.527   6.004 -0.0918 -1.0829  0.0354
32660SOL    HW2  613   2.629   2.536   5.864 -0.0049  0.5909  0.0886
32661SOL     OW  614   8.496   1.750  10.218  0.0087 -0.3255 -0.1627
32661SOL    HW1  615   8.558   1.822  10.204  0.7043 -1.0752 -1.1098
32661SOL    HW2  616   8.472   1.757  10.310 -0.2847  1.3747 -0.3370
32662SOL     OW  617   2.905   7.550   2.503 -0.0779 -0.0767  0.5244
32662SOL    HW1  618   2.914   7.507   2.588  0.6955 -0.1995  0.3905
32662SOL    HW2  619   2.977   7.514   2.450 -0.7586 -0.2659 -0.2998
32663SOL     OW  620   5.874   9.095   9.525  0.3645 -0.3025  0.6214
32663SOL    HW1  621   5.964   9.110   9.554  0.6877  0.2834 -0.6206
32663SOL    HW2  622   5.878   9.100   9.430 -0.8775 -0.9351  0.5106
32664SOL     OW  623   3.017   4.095   3.366 -0.2213  0.1285  0.5237
32664SOL    HW1  624   3.062   4.175   3.339  0.3616 -0.4551 -0.3309
32664SOL    HW2  625   3.073   4.024   3.332 -0.3014 -0.6512  1.9488
32665SOL     OW  626   4.153   0.379   3.666  0.6582  0.3583  0.2122
32665SOL    HW1  627   4.119   0.419   3.586 -3.0618 -1.1939  0.8356
32665SOL    HW2  628   4.143   0.446   3.733 -0.4424  0.2191  0.2040
32666SOL     OW  629   3.238   1.816   3.675 -0.0859  0.0962 -0.4192
32666SOL    HW1  630   3.186   1.819   3.594  0.6448 -0.3892 -0.9229
32666SOL    HW2  631   3.290   1.896   3.672 -0.4328  0.3353 -0.1630
32667SOL     OW  632   0.260  10.028   6.127 -0.5010  0.2457 -0.2018
32667SOL    HW1  633   0.271  10.122   6.142 -2.1454  0.0717  2.7117
32667SOL    HW2  634   0.287   9.987   6.209 -2.0207 -1.6282 -0.5803
32668SOL     OW  635   7.084   0.209   8.793  0.9416  0.1984  0.4176
32668SOL    HW1  636   7.139   0.135   8.818  0.5985 -0.3610 -0.4489
32668SOL    HW2  637   7.111   0.230   8.704  0.1684  0.3128  0.2069
32669SOL     OW  638  10.044   9.724   6.742  0.0177 -0.3170 -0.4868
32669SOL    HW1  639  10.110   9.788   6.717 -0.0156 -0.3452 -0.6485
32669SOL    HW2  640  10.034   9.668   6.664 -0.6706  0.0890 -0.6940
32670SOL     OW  641  10.324   7.655   9.541  0.2715 -0.3338  0.1748
32670SOL    HW1  642  10.362   7.640   9.627 -0.8114  0.6160  0.8550
32670SOL    HW2  643  10.395   7.693   9.490  0.8488 -0.6354  0.7402
32671SOL     OW  644   7.066   8.020   5.451 -0.1734  0.2772 -0.0964
32671SOL    HW1  645   7.091   7.973   5.372 -0.5968 -1.5145  0.7878
32671SOL    HW2  646   6.971   8.030   5.444 -0.0547  1.2657 -0.4007
32672SOL     OW  647   8.416   9.829   9.619  0.4617  0.1325 -0.1383
32672SOL    HW1  648   8.507   9.859   9.611  1.3166 -2.4943 -1.6362
32672SOL    HW2  649   8.368   9.905   9.654  3.2786  1.4743  1.1520
32673SOL     OW  650   1.373   5.036   9.719 -0.3731 -0.0133 -0.5199
32673SOL    HW1  651   1.305   4.969   9.727 -0.4197  0.2569  2.4035
32673SOL    HW2  652   1.453   4.993   9.749  0.5014  0.1134 -2.5007
32674SOL     OW  653   9.067   2.788   8.505 -0.4687 -0.1349 -0.1652
32674SOL    HW1  654   9.000   2.846   8.468 -1.0540 -0.4186  0.4202
32674SOL    HW2  655   9.096   2.833   8.584 -1.3822 -0.9007  0.6441
32675SOL     OW  656   6.242   1.726   9.804  0.0669 -0.0454  0.2493
32675SOL    HW1  657   6.321   1.718   9.857  1.9872  0.3368 -2.3207
32675SOL    HW2  658   6.205   1.637   9.802  1.6677 -0.7432 -0.1917
32676SOL     OW  659   0.495   7.703   5.340  0.2519  0.1003  0.3526
32676SOL    HW1  660   0.543   7.632   5.382 -0.3170 -0.1894  0.5179
32676SOL    HW2  661   0.511   7.691   5.246 -2.5810 -2.3358  0.0515
32677SOL     OW  662   1.227   1.479   7.234  0.0459  0.4940  0.3374
32677SOL    HW1  663   1.213   1.388   7.259  1.9636  0.0928  0.1206
32677SOL    HW2  664   1.141   1.508   7.202 -1.3045 -0.3643  2.9004
32678SOL     OW  665   2.723   4.023   3.417  0.0259  0.4779 -0.0106
32678SOL    HW1  666   2.642   4.009   3.367  0.2471 -1.5450  0.1022
32678SOL    HW2  667   2.787   4.050   3.352 -0.1207 -0.4585 -0.5692
32679SOL     OW  668   9.126   7.508   0.163 -0.2413  0.1954  0.1301
32679SOL    HW1  669   9.054   7.453   0.192 -2.2087  2.8912  0.7230
32679SOL    HW2  670   9.096   7.543   0.078  1.5969 -0.7064 -0.9545
32680SOL     OW  671   0.005   8.259   1.159 -0.2328 -0.1165  0.2305
32680SOL    HW1  672  -0.052   8.185   1.181 -2.1397  1.0709 -0.4101
32680SOL    HW2  673   0.023   8.248   1.065  0.4314 -0.3614  0.3810
32681SOL     OW  674   0.835   0.253   7.007  0.0528 -0.7706 -0.2421
32681SOL    HW1  675   0.810   0.188   6.942 -1.8844  0.7842 -1.1429
32681SOL    HW2  676   0.826   0.337   6.962 -0.9148  0.3316  1.8724
32682SOL     OW  677   9.376   4.410   1.048  0.2987  0.2153 -0.0434
32682SOL    HW1  678   9.355   4.410   0.955  1.9160  1.1166 -0.4288
32682SOL    HW2  679   9.379   4.317   1.072 -1.5336 -0.0180 -0.5099
32683SOL     OW  680   9.539   2.817   7.222  0.2595 -0.5607  0.2836
32683SOL    HW1  681   9.598   2.885   7.189 -1.4649  1.5157  1.2206
32683SOL    HW2  682   9.454   2.838   7.182 -0.9867 -0.3315  2.8253
32684SOL     OW  683   1.873   1.147   8.161  0.1082  0.3688 -0.0804
32684SOL    HW1  684   1.888   1.239   8.139 -0.0135  0.3888 -0.0800
32684SOL    HW2  685   1.930   1.099   8.101  0.1151  0.4411 -0.1319
32685SOL     OW  686   1.004   2.629   5.830 -0.2581 -0.4294  0.5030
32685SOL    HW1  687   1.059   2.680   5.891 -0.3091 -1.0358  1.0722
32685SOL    HW2  688   0.945   2.581   5.887 -1.6657  0.5046 -0.1183
32686SOL     OW  689   8.443   8.090   7.947 -0.0510 -0.4536  0.1692
32686SOL    HW1  690   8.503   8.021   7.918  1.4690  0.5380  0.8000
32686SOL    HW2  691   8.453   8.091   8.042 -1.5282 -0.6383  0.3410
32687SOL     OW  692   9.181   5.066   3.380  0.3351  0.2717 -0.0471
32687SOL    HW1  693   9.260   5.022   3.410  0.5120  1.4835  1.3696
32687SOL    HW2  694   9.189   5.155   3.414 -2.3245  0.0303  1.4462
32688SOL     OW  695   8.472   9.456   9.978 -0.3670 -0.2720  0.2633
32688SOL    HW1  696   8.391   9.471  10.026 -0.9713 -4.4226  0.8738
32688SOL    HW2  697   8.444   9.421   9.893  0.7999  0.9696 -0.6840
32689SOL     OW  698   9.842   1.720   5.120 -0.2287 -0.2216  0.6019
32689SOL    HW1  699   9.923   1.738   5.071  0.0894 -1.3324  0.6914
32689SOL    HW2  700   9.833   1.794   5.179  1.3235 -0.5757  1.3416
32690SOL     OW  701   5.093   1.433   8.836 -0.6525  0.2929 -0.1918
32690SOL    HW1  702   5.032   1.410   8.905 -0.9501 -0.5691 -0.7331
32690SOL    HW2  703   5.049   1.406   8.755  0.2185  0.1511 -0.6242
32691SOL     OW  704   6.779   1.020   4.450  0.5855  0.2460 -0.1435
32691SOL    HW1  705   6.830   1.041   4.372  0.5308  1.3346  0.0927
32691SOL    HW2  706   6.822   1.068   4.521  0.1173 -0.0238  0.3397
32692SOL     OW  707   1.151   3.520   4.371  0.7418  0.0827  0.5242
32692SOL    HW1  708   1.148   3.456   4.299 -1.9846  0.5979  0.0956
32692SOL    HW2  709   1.086   3.489   4.434 -0.3860  2.1872  0.4787
32693SOL     OW  710   6.745   5.393   3.955 -0.0912  0.4491 -0.1938
32693SOL    HW1  711   6.795   5.336   3.896 -2.1579 -1.3778 -0.2980
32693SOL    HW2  712   6.728   5.472   3.903 -1.3533 -0.8720 -1.8961
32694SOL     OW  713   3.695   9.740   8.121  0.0915  0.9650  0.5736
32694SOL    HW1  714   3.746   9.720   8.199  2.0312 -1.0609 -1.0780
32694SOL    HW2  715   3.641   9.663   8.106  1.3898  0.3296 -1.2286
32695SOL     OW  716   5.488   7.621   9.571  0.5644 -0.0032 -0.6313
32695SOL    HW1  717   5.509   7.596   9.480  1.3058 -1.0347 -0.1927
32695SOL    HW2  718   5.482   7.716   9.568  1.2567  0.0332 -1.6454
32696SOL     OW  719   3.677   3.019   3.082 -0.0459 -0.6371 -0.7877
32696SOL    HW1  720   3.709   2.937   3.044  0.3393 -0.7998 -0.1213
32696SOL    HW2  721   3.757   3.070   3.097  0.3804 -2.2160  3.7116
32697SOL     OW  722   3.486   8.209   7.018 -0.5447 -0.1146 -0.0566
32697SOL    HW1  723   3.561   8.268   7.020 -0.9064  0.4998 -2.1979
32697SOL    HW2  724   3.411   8.266   7.038 -0.6355 -0.3969  0.4381
32698SOL     OW  725   7.046   4.837   0.862 -0.3632  0.1721  0.0869
32698SOL    HW1  726   7.093   4.795   0.933 -0.6573 -2.0236 -0.9130
32698SOL    HW2  727   6.957   4.803   0.869 -0.2560 -0.5793 -1.6246
32699SOL     OW  728   6.740   7.403   9.085 -0.4022 -0.5324 -0.2319
32699SOL    HW1  729   6.707   7.470   9.025 -0.2106 -0.7407 -0.5708
32699SOL    HW2  730   6.673   7.335   9.085 -0.1001 -0.8344 -0.7178
32700SOL     OW  731   9.946   6.494   3.369  0.3536  0.8896 -0.0968
32700SOL    HW1  732   9.983   6.556   3.306 -0.0663  0.2779 -0.9718
32700SOL    HW2  733   9.916   6.421   3.315 -0.7522  0.7103  0.7373
32701SOL     OW  734   3.743   9.190   4.569 -0.3140  0.2857 -0.9519
32701SOL    HW1  735   3.807   9.260   4.564  1.3958 -1.0313  0.7550
32701SOL    HW2  736   3.773   9.125   4.506  1.7928 -1.5384  1.6864
32702SOL     OW  737   4.517   2.970   4.849 -0.3848 -0.0462  0.2526
32702SOL    HW1  738   4.559   2.952   4.764 -0.5328 -0.1907  0.2098
32702SOL    HW2  739   4.427   2.941   4.837 -0.7253  1.0345  0.0666
32703SOL     OW  740   3.792   4.542   0.173 -0.3209 -0.4573  0.3145
32703SOL    HW1  741   3.873   4.493   0.158  0.5043  1.1466 -0.8974
32703SOL    HW2  742   3.745   4.536   0.090 -2.2011 -2.5753  1.4448
32704SOL     OW  743   7.580   8.990   7.044  0.1271  0.6557 -0.2766
32704SOL    HW1  744   7.532   8.913   7.014  0.4993 -0.6256  2.2195
32704SOL    HW2  745   7.672   8.970   7.027  0.2164  0.5703  0.2849
32705SOL     OW  746   5.462   8.319   5.259  0.0420 -0.3673 -0.1884
32705SOL    HW1  747   5.470   8.237   5.210 -0.3899 -0.2958 -0.3794
32705SOL    HW2  748   5.526   8.377   5.218  0.5308 -0.6839  0.1116
32706SOL     OW  749   4.358   6.381   1.727  0.0247 -0.0400  0.3599
32706SOL    HW1  750   4.268   6.357   1.751 -0.3978 -1.3532 -2.1044
32706SOL    HW2  751   4.406   6.299   1.729  0.1204 -0.1388 -2.1788
32707SOL     OW  752   3.608   2.220   8.354  0.2775  0.4804  0.2841
32707SOL    HW1  753   3.629   2.299   8.303  1.4483  0.9699  1.4733
32707SOL    HW2  754   3.634   2.148   8.297  4.7341  1.0318  1.2844
32708SOL     OW  755   9.605   3.601   0.616 -0.2917  0.0515 -0.8178
32708SOL    HW1  756   9.654   3.652   0.681 -0.3601 -3.8195  2.6762
32708SOL    HW2  757   9.671   3.549   0.571 -0.4523  1.3329 -2.6302
32709SOL     OW  758   9.837   9.772   3.982  0.0611 -0.2824 -0.1391
32709SOL    HW1  759   9.766   9.764   3.919 -0.4550  1.3076  0.2025
32709SOL    HW2  760   9.906   9.818   3.935 -0.7178  1.8595  0.6968
32710SOL     OW  761   2.126   5.919   8.491 -0.3708  0.6342  0.0857
32710SOL    HW1  762   2.200   5.980   8.485  0.6170 -0.5397 -0.0685
32710SOL    HW2  763   2.099   5.907   8.400 -0.6741  0.9554  0.1307
32711SOL     OW  764   0.226   5.051   5.857 -0.0622  0.3220  0.2744
32711SOL    HW1  765   0.267   5.017   5.936 -2.5718  1.7193  2.2994
32711SOL    HW2  766   0.150   4.995   5.843 -0.0722  0.5643 -0.7161
32712SOL     OW  767   7.058   1.961   6.178 -0.0935  0.1154 -0.1918
32712SOL    HW1  768   6.966   1.958   6.153  0.3154  0.2672 -1.8326
32712SOL    HW2  769   7.089   1.871   6.170  0.0698  0.1858 -0.3707
32713SOL     OW  770   9.638   8.672   8.425  0.5056  0.1164  0.0321
32713SOL    HW1  771   9.731   8.671   8.401  0.7078 -0.2451  0.7885
32713SOL    HW2  772   9.639   8.672   8.520 -0.2801 -0.0917  0.0397
32714SOL     OW  773   1.263  10.161  10.022  0.1044  0.1052  0.0423
32714SOL    HW1  774   1.249  10.241   9.971  1.1819  0.2984  0.0258
32714SOL    HW2  775   1.345  10.178  10.070 -0.1762 -0.6028  0.7945
32715SOL     OW  776   8.262   9.070   9.925 -0.6391  0.1389  0.1407
32715SOL    HW1  777   8.195   9.092   9.861 -1.0012  0.4266  0.6162
32715SOL    HW2  778   8.255   9.137   9.993 -0.4476 -0.3173  0.6228
32716SOL     OW  779   6.665   8.131   1.132 -0.4558 -0.5194 -0.4865
32716SOL    HW1  780   6.724   8.180   1.189  2.0010 -2.1018 -1.5270
32716SOL    HW2  781   6.601   8.195   1.102 -0.2603  0.9115  1.9460
32717SOL     OW  782   9.342   0.872   2.986  0.1207  0.0971  0.3510
32717SOL    HW1  783   9.278   0.830   3.044 -0.0139  0.2779  0.3309
32717SOL    HW2  784   9.337   0.822   2.904  1.0785 -0.8532  0.8441
32718SOL     OW  785   0.780   1.872   1.623 -0.2822  0.4907 -0.0891
32718SOL    HW1  786   0.716   1.803   1.642  0.3763 -0.3718 -0.9432
32718SOL    HW2  787   0.862   1.826   1.610  0.4305  1.5564  0.5030
32719SOL     OW  788   6.488   2.860   2.930 -0.3800 -0.2461 -0.6065
32719SOL    HW1  789   6.419   2.830   2.989  0.7900 -1.2964  0.2981
32719SOL    HW2  790   6.542   2.782   2.916  0.9080  0.6612 -0.8532
32720SOL     OW  791   3.491   6.401   8.763 -0.5432  0.0499  0.1429
32720SOL    HW1  792   3.572   6.451   8.752 -0.2514 -0.5143 -0.3295
32720SOL    HW2  793   3.500   6.360   8.849 -0.6152  0.5013  0.3682
32721SOL     OW  794   3.419   8.035   1.934  0.1488  0.2539 -0.4686
32721SOL    HW1  795   3.464   8.035   2.018 -0.5423 -0.1511 -0.0894
32721SOL    HW2  796   3.409   8.128   1.912  1.4207  0.3519 -0.7104
32722SOL     OW  797   1.315   5.647   6.834 -0.4187 -0.3810  0.2166
32722SOL    HW1  798   1.379   5.614   6.897 -0.8318 -1.7559 -0.0533
32722SOL    HW2  799   1.234   5.600   6.855 -1.1006  0.6473 -0.0468
32723SOL     OW  800   9.222   9.781   7.250 -0.3258  0.1149 -0.3401
32723SOL    HW1  801   9.273   9.700   7.244 -0.5824 -0.1665  0.9803
32723SOL    HW2  802   9.281   9.844   7.291 -0.7117  0.0630  0.3108
32724SOL     OW  803   9.760   1.425   6.291  0.2171 -0.1456 -0.0128
32724SOL    HW1  804   9.766   1.514   6.257  0.2493 -0.1433 -0.0008
32724SOL    HW2  805   9.832   1.418   6.353 -1.1572  0.6043  1.7850
32725SOL     OW  806   7.930   5.619   2.081 -0.1672 -0.8597 -0.4137
32725SOL    HW1  807   7.968   5.641   1.996 -0.3172  0.8873 -0.0509
32725SOL    HW2  808   7.893   5.701   2.113 -1.7321 -1.8935  0.5247
32726SOL     OW  809   4.877  10.018   5.152  0.6584 -0.8325 -0.7477
32726SOL    HW1  810   4.916  10.005   5.065 -0.2275 -2.6056 -0.9157
32726SOL    HW2  811   4.925   9.958   5.209  0.7408 -0.2123 -0.1546
32727SOL     OW  812   0.326   6.155   1.841 -0.0365  0.2289 -0.3532
32727SOL    HW1  813   0.346   6.131   1.751  3.1103  0.2340  0.2423
32727SOL    HW2  814   0.402   6.126   1.891 -2.1808 -0.8980  2.5614
32728SOL     OW  815   5.969   1.546   4.311  0.6622  0.0618 -0.4854
32728SOL    HW1  816   6.024   1.593   4.373  0.5640 -0.7595  0.2445
32728SOL    HW2  817   6.031   1.511   4.246  0.4951  3.9438 -3.0540
32729SOL     OW  818   0.620   3.583   5.382 -0.2980  0.3249 -0.1581
32729SOL    HW1  819   0.665   3.563   5.300 -0.0853  2.3544 -0.5923
32729SOL    HW2  820   0.560   3.655   5.360 -0.3240  0.8353  1.4366
32730SOL     OW  821   9.164   4.046   6.324 -0.3135 -0.0910  0.1428
32730SOL    HW1  822   9.133   4.020   6.411  0.9114  1.0833  0.9520
32730SOL    HW2  823   9.208   4.129   6.338 -1.5181  0.9592 -1.8961
32731SOL     OW  824   5.747   2.189   4.982 -0.0524  0.2215 -0.4779
32731SOL    HW1  825   5.764   2.277   4.950  0.1538 -0.6803 -3.1644
32731SOL    HW2  826   5.669   2.161   4.934 -0.3997 -0.9030  0.6865
32732SOL     OW  827   3.938   4.223   4.061  0.2865 -0.5147  0.1322
32732SOL    HW1  828   3.997   4.297   4.045 -0.9999  0.7496  0.9622
32732SOL    HW2  829   3.885   4.217   3.981 -0.7905  0.6555  0.7121
32733SOL     OW  830   6.950   8.340   9.593 -0.1217 -0.2799 -0.2587
32733SOL    HW1  831   6.881   8.405   9.582 -0.6897 -1.0470 -1.4478
32733SOL    HW2  832   6.907   8.267   9.639  0.3457 -0.1033  0.4868
32734SOL     OW  833   9.650  10.319   1.724  0.0252  0.4811  0.2277
32734SOL    HW1  834   9.735  10.274   1.719  1.0239  2.3879 -1.2719
32734SOL    HW2  835   9.590  10.263   1.674  0.1977 -1.1724  1.7622
32735SOL     OW  836   0.338   6.120   4.967 -0.1595 -0.8284  0.7771
32735SOL    HW1  837   0.375   6.130   4.879 -0.5726  0.0084  0.6847
32735SOL    HW2  838   0.388   6.049   5.006  1.0842 -0.1733  0.4126
32736SOL     OW  839   8.548   0.375   6.149  0.4812 -0.5533  0.1700
32736SOL    HW1  840   8.620   0.391   6.088  0.6530 -0.6925  0.3333
32736SOL    HW2  841   8.492   0.311   6.104  0.9311 -1.1285  0.4052
32737SOL     OW  842   2.866   5.183   3.924  0.4304  0.2801 -0.3361
32737SOL    HW1  843   2.903   5.100   3.892 -1.9145 -1.8221  1.9062
32737SOL    HW2  844   2.936   5.220   3.978  0.9543 -1.1818  0.0531
32738SOL     OW  845   8.700   0.578   8.909  0.2728  0.2393  0.0228
32738SOL    HW1  846   8.677   0.573   8.816 -1.4316  0.5061  0.3910
32738SOL    HW2  847   8.745   0.496   8.928  1.4069  0.5551 -1.2245
32739SOL     OW  848   6.320   7.236   8.329 -0.0300  0.5237  0.0301
32739SOL    HW1  849   6.303   7.187   8.249 -1.1052  1.0424 -0.0725
32739SOL    HW2  850   6.270   7.190   8.396 -0.0920  0.7885  0.1660
32740SOL     OW  851   1.952   1.904   3.271 -0.4086  0.5077  0.2198
32740SOL    HW1  852   2.007   1.825   3.274 -0.3394  0.5659  0.4609
32740SOL    HW2  853   1.935   1.925   3.362 -1.6791 -0.0868  0.1335
32741SOL     OW  854   6.976   2.438   4.036  0.3107 -0.0812 -0.5123
32741SOL    HW1  855   6.982   2.513   4.096 -0.0117 -1.1441  0.8783
32741SOL    HW2  856   6.977   2.361   4.093 -1.1699 -1.1058 -1.7891
32742SOL     OW  857  10.023   9.675   0.857  0.0931  0.1185  0.1478
32742SOL    HW1  858  10.079   9.698   0.783 -1.1090 -1.6523 -1.4154
32742SOL    HW2  859  10.074   9.612   0.907  0.5456  0.5976  0.2911
32743SOL     OW  860   1.973   8.216   7.966  0.1653  0.3166  0.0540
32743SOL    HW1  861   2.067   8.225   7.982  0.1642  1.8086 -0.6176
32743SOL    HW2  862   1.968   8.153   7.894  0.3786 -2.8524  2.5898
32744SOL     OW  863   2.082   9.269   4.957  0.1654  0.1414 -0.2809
32744SOL    HW1  864   2.113   9.349   4.915  0.7093  0.2024  0.2295
32744SOL    HW2  865   2.082   9.204   4.887 -1.5815  0.8940 -1.0443
32745SOL     OW  866   5.201   3.247   0.966  0.1233 -0.0549 -0.2025
32745SOL    HW1  867   5.175   3.283   0.881  0.3502  0.5604 -0.0146
32745SOL    HW2  868   5.185   3.153   0.958  0.0216  0.0166 -0.8813
32746SOL     OW  869   2.047   9.337   3.219  0.0685 -0.1305 -0.2558
32746SOL    HW1  870   1.959   9.348   3.183 -0.3957  1.1369  1.1688
32746SOL    HW2  871   2.080   9.256   3.178 -1.3156 -0.0390 -1.6389
32747SOL     OW  872   0.117   5.698   7.761  0.1760 -0.3812 -0.9932
32747SOL    HW1  873   0.205   5.674   7.730  0.9103  2.5019 -1.4781
32747SOL    HW2  874   0.103   5.643   7.838  2.5580 -0.7635 -0.7417
32748SOL     OW  875  10.048   2.217   1.328 -0.4857 -0.1705 -0.2768
32748SOL    HW1  876  10.038   2.305   1.292 -0.3711 -0.3677 -0.8081
32748SOL    HW2  877  10.114   2.226   1.396 -0.9967  0.2878  0.1629
32749SOL     OW  878   8.700   7.567   8.163  0.0990 -0.4721  0.0894
32749SOL    HW1  879   8.793   7.553   8.145  0.1092  0.0816 -0.3370
32749SOL    HW2  880   8.683   7.518   8.244  1.1579  0.7451  1.0980
32750SOL     OW  881   2.565   9.793   8.006  0.3324 -0.1423  0.6018
32750SOL    HW1  882   2.580   9.880   8.045 -0.9530  0.6540 -0.6004
32750SOL    HW2  883   2.583   9.732   8.077 -0.4609  1.1917  2.0117
32751SOL     OW  884   1.936   7.206   2.974 -0.0403 -0.1747 -0.1412
32751SOL    HW1  885   2.027   7.219   2.999 -0.4611  1.2004  0.7959
32751SOL    HW2  886   1.896   7.162   3.049 -0.2647 -0.3391 -0.3542
32752SOL     OW  887   4.389   9.674   7.664  0.0974 -0.7360 -0.1969
32752SOL    HW1  888   4.422   9.721   7.587 -1.4691 -0.0830 -0.5061
32752SOL    HW2  889   4.426   9.722   7.738 -0.4974  0.2635 -0.5276
32753SOL     OW  890   3.517   5.553   4.995 -0.0995 -0.1434  0.6069
32753SOL    HW1  891   3.571   5.533   4.918  0.2895  0.1777  0.7918
32753SOL    HW2  892   3.572   5.611   5.048  0.7827 -2.5428  2.5005
32754SOL     OW  893   0.416   6.424   3.731  0.0276 -0.0973 -0.0631
32754SOL    HW1  894   0.434   6.517   3.714  1.6035 -0.3154  0.1963
32754SOL    HW2  895   0.322   6.415   3.720 -0.0687  1.4019 -0.7428
32755SOL     OW  896   9.985   3.364   5.103 -0.9314  0.3121 -0.0666
32755SOL    HW1  897  10.047   3.434   5.126 -0.4667 -0.2290  0.3402
32755SOL    HW2  898   9.937   3.399   5.028 -0.5409  0.9758 -0.0174
32756SOL     OW  899   4.322   1.569   7.347  0.2080 -0.1141  0.1253
32756SOL    HW1  900   4.411   1.604   7.356 -0.2957  1.0276  0.9368
32756SOL    HW2  901   4.271   1.642   7.311 -0.3966 -0.7677 -0.3694
32757SOL     OW  902   8.565   3.532   5.995 -0.2001  0.3332 -0.1163
32757SOL    HW1  903   8.634   3.465   5.997 -1.0521 -0.5546  0.9574
32757SOL    HW2  904   8.570   3.569   5.908 -0.1167 -1.6071 -0.9903
32758SOL     OW  905   8.463   9.124  10.316 -0.1778 -0.0083  1.1157
32758SOL    HW1  906   8.531   9.060  10.297 -0.4739 -0.6303  2.0961
32758SOL    HW2  907   8.389   9.072  10.347 -0.4735  0.7872  1.7839
32759SOL     OW  908   8.523   7.879   7.292  0.1058  0.3317  0.7298
32759SOL    HW1  909   8.488   7.796   7.260  0.7409 -0.0241  0.9517
32759SOL    HW2  910   8.459   7.944   7.262  0.5674 -0.0029 -1.1002
32760SOL     OW  911   6.090   9.432   0.248 -0.2910  0.2394 -0.0234
32760SOL    HW1  912   6.005   9.442   0.205 -1.2443 -0.1469  1.6724
32760SOL    HW2  913   6.151   9.413   0.177 -1.3281  1.9882 -1.4715
32761SOL     OW  914   7.122   4.048   2.579  0.0158 -0.1702  0.0461
32761SOL    HW1  915   7.167   4.101   2.645  0.6890 -0.8885  0.1830
32761SOL    HW2  916   7.053   4.003   2.627  0.7698 -1.0181  0.3700
32762SOL     OW  917   2.029   7.538   7.708  0.4259  0.4493  0.2803
32762SOL    HW1  918   2.020   7.533   7.613  0.4099  0.2136  0.2933
32762SOL    HW2  919   1.942   7.563   7.740  0.2357 -0.1786  0.2824
32763SOL     OW  920   5.710  10.224   6.622 -0.2483 -0.6409  0.0736
32763SOL    HW1  921   5.789  10.276   6.635  0.9182 -1.0631 -3.8732
32763SOL    HW2  922   5.735  10.135   6.645 -0.0754 -0.5370  0.2858
32764SOL     OW  923   3.998   3.742   1.089 -0.1135 -0.1156  0.0208
32764SOL    HW1  924   4.050   3.738   1.008 -0.2467  0.3176 -0.0903
32764SOL    HW2  925   3.916   3.783   1.063  0.9329  2.7804  0.9029
32765SOL     OW  926   3.052   4.123   1.097  0.0198  0.2563 -0.1575
32765SOL    HW1  927   3.028   4.036   1.065 -0.3392  0.9155 -1.8065
32765SOL    HW2  928   3.143   4.114   1.126 -0.0477 -0.6806 -0.2143
32766SOL     OW  929   3.651   2.920   9.810 -0.1402  0.1733 -0.4247
32766SOL    HW1  930   3.559   2.926   9.836 -0.2821  0.0545 -0.8925
32766SOL    HW2  931   3.679   3.011   9.798 -0.1181  0.2220 -0.0238
32767SOL     OW  932   3.920   9.399   7.767 -0.1054  0.5270  0.3715
32767SOL    HW1  933   4.002   9.364   7.733  0.1704 -0.1419  1.6679
32767SOL    HW2  934   3.889   9.458   7.698  0.2584 -0.9911 -1.1493
32768SOL     OW  935   2.080   3.625   8.710  0.1572  0.2470  0.3082
32768SOL    HW1  936   2.132   3.704   8.695  0.2297  0.6474  2.3576
32768SOL    HW2  937   2.135   3.570   8.765  0.4596 -1.6855 -1.7973
32769SOL     OW  938   0.573   6.077   1.025 -0.4552 -0.1653 -0.5666
32769SOL    HW1  939   0.609   6.166   1.019  0.1775 -0.4434 -0.9003
32769SOL    HW2  940   0.611   6.030   0.951 -2.0345 -0.2829 -1.3463
32770SOL     OW  941   2.304   1.686   9.339 -0.0688 -0.0714  0.3713
32770SOL    HW1  942   2.238   1.706   9.406  0.0690  0.2784  0.4027
32770SOL    HW2  943   2.370   1.754   9.350  0.0193 -0.0910 -0.0365
32771SOL     OW  944   0.344   6.857   8.041  0.3206  0.0821  0.0618
32771SOL    HW1  945   0.348   6.925   7.974  1.7414 -0.4351 -0.4123
32771SOL    HW2  946   0.375   6.778   7.997  2.1292 -0.0854  1.5332
32772SOL     OW  947   6.842   2.681   4.432 -0.0772 -0.9047  0.1631
32772SOL    HW1  948   6.820   2.665   4.523 -0.0403  3.6405  1.2330
32772SOL    HW2  949   6.759   2.673   4.385 -1.1100  1.1296  1.4984
32773SOL     OW  950   9.514   8.812   4.030  0.0584 -0.2000  0.3374
32773SOL    HW1  951   9.483   8.888   4.080  1.2733  0.7234 -0.2612
32773SOL    HW2  952   9.554   8.850   3.952  2.0883 -1.3321  0.7591
32774SOL     OW  953   4.149   0.147   5.000  0.3485 -0.4496 -0.3448
32774SOL    HW1  954   4.219   0.106   4.950 -0.9730 -0.4721 -2.2785
32774SOL    HW2  955   4.165   0.241   4.990 -0.0376 -0.4529 -0.9920
32775SOL     OW  956   4.900   7.202   3.054 -0.3469  0.2191 -0.5330
32775SOL    HW1  957   4.823   7.208   3.110  0.1818  0.9227  0.1353
32775SOL    HW2  958   4.877   7.253   2.976 -0.5382  0.4766 -0.3119
32776SOL     OW  959   1.725   1.851   5.125 -0.3718  0.2487 -0.1913
32776SOL    HW1  960   1.813   1.854   5.164 -0.4070 -0.2914 -0.0687
32776SOL    HW2  961   1.737   1.807   5.041 -0.7344 -1.0400  0.4115
32777SOL     OW  962   9.150   2.032   3.411 -0.0093  0.0456  0.2377
32777SOL    HW1  963   9.220   2.097   3.415  0.4937 -0.5253  3.2994
32777SOL    HW2  964   9.196   1.948   3.403 -0.2270 -0.3520  2.4760
32778SOL     OW  965   9.882   2.379   8.777  0.4145  0.3832  0.2444
32778SOL    HW1  966   9.910   2.453   8.724  0.6115  0.2362  0.1412
32778SOL    HW2  967   9.963   2.330   8.795  0.2896  0.2062  0.3286
32779SOL     OW  968   1.380   8.201   2.268 -0.0684  0.0799 -0.0593
32779SOL    HW1  969   1.305   8.259   2.287  0.1268 -0.3955  2.4775
32779SOL    HW2  970   1.439   8.213   2.342  2.2901  0.1984 -1.8460
32780SOL     OW  971   7.520   3.612   0.891  0.3857 -0.3912 -0.4485
32780SOL    HW1  972   7.586   3.681   0.902  2.3952 -2.3023  0.3833
32780SOL    HW2  973   7.487   3.597   0.980  2.1007 -2.3938 -0.0793
32781SOL     OW  974   1.238   1.584   3.146 -0.2865  0.1167  0.3851
32781SOL    HW1  975   1.286   1.592   3.229 -0.5052 -0.2045  0.5455
32781SOL    HW2  976   1.151   1.620   3.166 -0.1833  0.5117  0.1506
32782SOL     OW  977   9.787   5.490   0.013  0.0464  0.1425 -0.4195
32782SOL    HW1  978   9.701   5.527   0.035  0.1127  0.7285 -1.1045
32782SOL    HW2  979   9.771   5.396   0.007 -0.0802  0.0116  1.5688
32783SOL     OW  980   5.262   1.478   4.548 -0.1218  0.4150 -0.2797
32783SOL    HW1  981   5.217   1.481   4.633 -0.1753 -2.8847 -0.0485
32783SOL    HW2  982   5.197   1.505   4.485 -1.4227 -0.9866  0.3935
32784SOL     OW  983   8.467   5.740   7.191  0.2948 -0.3855  0.3678
32784SOL    HW1  984   8.439   5.648   7.185 -0.4498 -0.1260 -0.5889
32784SOL    HW2  985   8.421   5.774   7.268  0.3460 -0.7429  0.5586
32785SOL     OW  986   1.137   9.040   7.605 -0.2206 -0.2479  0.2056
32785SOL    HW1  987   1.143   9.065   7.513  2.1460  0.5393  0.4907
32785SOL    HW2  988   1.176   8.953   7.609  0.0422 -0.1171  0.5160
32786SOL     OW  989   1.529   6.768   3.537  0.9072  0.0992 -0.2421
32786SOL    HW1  990   1.537   6.727   3.451 -1.5658  1.2010 -1.0686
32786SOL    HW2  991   1.466   6.714   3.584  1.6994 -0.0831  0.6379
32787SOL     OW  992   5.104   5.971   4.646 -0.1603 -0.8428 -0.0651
32787SOL    HW1  993   5.154   5.926   4.577  0.7111 -1.2323  0.8075
32787SOL    HW2  994   5.156   6.049   4.666  1.2450 -2.3028  2.3085
32788SOL     OW  995   6.064   5.423   0.799  0.5029  0.2492  0.0311
32788SOL    HW1  996   6.120   5.488   0.843  0.4490 -0.3388  1.0216
32788SOL    HW2  997   5.975   5.447   0.825  0.3393  0.8108 -1.0322
32789SOL     OW  998   3.002   1.862   2.746  0.2236 -0.4777 -0.3821
32789SOL    HW1  999   2.979   1.788   2.801  0.8434  1.3864  2.5825
32789SOL    HW2 1000   3.097   1.854   2.733  0.7362  0.9338  1.9511
32790SOL     OW 1001   1.591   0.666   1.896  0.5962 -0.7772  0.6423
32790SOL    HW1 1002   1.619   0.755   1.913 -1.6485 -0.0606  0.9679
32790SOL    HW2 1003   1.611   0.618   1.976 -1.7083  0.4355  2.0527
32791SOL     OW 1004   6.695   6.319   2.930 -0.5943  0.5665 -0.3369
32791SOL    HW1 1005   6.640   6.397   2.918 -2.0483 -0.4667 -0.7031
32791SOL    HW2 1006   6.681   6.269   2.850 -0.6894 -0.6753  0.4432
32792SOL     OW 1007   4.366   3.724   9.677  0.1902 -0.0233 -0.0728
32792SOL    HW1 1008   4.273   3.747   9.687  0.0805 -0.1519 -0.7903
32792SOL    HW2 1009   4.366   3.647   9.620  0.7637  0.2350 -0.4249
32793SOL     OW 1010   9.644   0.344   6.664  0.4246  0.0944 -0.5371
32793SOL    HW1 1011   9.686   0.344   6.578  1.7791  0.6963  0.0848
32793SOL    HW2 1012   9.706   0.297   6.720 -0.3840 -0.1892  0.1372
32794SOL     OW 1013   3.800   6.633   5.732  0.3162 -0.0066  0.3767
32794SOL    HW1 1014   3.790   6.666   5.643 -1.9272 -0.8331  0.2598
32794SOL    HW2 1015   3.718   6.657   5.776 -0.1040 -2.6222  1.1739
32795SOL     OW 1016   3.097   7.202   6.102 -0.4729 -0.0441  0.5242
32795SOL    HW1 1017   3.146   7.176   6.179 -0.9384  0.2094  0.9108
32795SOL    HW2 1018   3.071   7.119   6.061  1.2811 -0.2098 -0.3651
32796SOL     OW 1019   6.705   8.261   5.708  0.1101 -0.1169  0.0312
32796SOL    HW1 1020   6.638   8.322   5.677  0.2748 -0.2290 -0.5738
32796SOL    HW2 1021   6.667   8.174   5.692 -0.1165 -0.1763  0.8699
32797SOL     OW 1022   9.235   3.655   3.888  0.3582  0.1362  0.4965
32797SOL    HW1 1023   9.179   3.657   3.967  1.0606 -3.0403  1.2082
32797SOL    HW2 1024   9.265   3.746   3.878 -2.2759  1.2988  1.9868
32798SOL     OW 1025   9.192   4.782   7.213  0.5711 -0.2603  0.3776
32798SOL    HW1 1026   9.172   4.699   7.169 -1.5014 -0.1648  1.0398
32798SOL    HW2 1027   9.123   4.842   7.184  2.3338  1.4389 -0.4959
32799SOL     OW 1028   9.973   2.318   4.434  0.3292  0.2373 -0.2463
32799SOL    HW1 1029  10.059   2.359   4.444 -0.5225  1.7722  1.5055
32799SOL    HW2 1030   9.978   2.270   4.352  2.2935  1.7425 -1.0796
32800SOL     OW 1031   6.102   9.327   1.473 -0.6936 -0.0166  0.6372
32800SOL    HW1 1032   6.058   9.412   1.476  0.3653  0.5525  0.5537
32800SOL    HW2 1033   6.193   9.346   1.497 -0.1710 -0.9394 -0.4901
32801SOL     OW 1034   7.520   1.103   9.121  0.5929 -0.2174  0.2773
32801SOL    HW1 1035   7.552   1.133   9.036 -0.8826  0.6554  0.0044
32801SOL    HW2 1036   7.541   1.174   9.182 -0.4397  0.1815  0.1749
32802SOL     OW 1037   1.583   0.444   1.127 -0.0746  0.2507 -0.2842
32802SOL    HW1 1038   1.530   0.442   1.047  0.3578 -0.9707 -0.5710
32802SOL    HW2 1039   1.588   0.536   1.151 -0.6039  0.5853 -1.4046
32803SOL     OW 1040   3.624   6.020   0.297 -0.2630 -0.3828 -0.0056
32803SOL    HW1 1041   3.639   6.110   0.326  0.4629  0.2071 -2.0402
32803SOL    HW2 1042   3.708   5.991   0.262 -0.8600 -1.3219 -0.7300
32804SOL     OW 1043   2.866   2.983   0.015  0.3809  0.0732  0.7733
32804SOL    HW1 1044   2.883   2.892  -0.010  1.4113  0.6049 -0.5442
32804SOL    HW2 1045   2.771   2.985   0.031 -0.0958 -0.7270 -1.4995
32805SOL     OW 1046   3.888   5.861   3.527 -0.2430  0.3254 -0.1683
32805SOL    HW1 1047   3.832   5.785   3.516  0.7270 -0.3004 -0.9690
32805SOL    HW2 1048   3.977   5.828   3.512  0.1157  1.8187 -1.6772
32806SOL     OW 1049   1.304   3.614   9.172 -0.1441  0.1390  0.3211
32806SOL    HW1 1050   1.266   3.655   9.249  1.7688 -0.9273  1.9289
32806SOL    HW2 1051   1.398   3.628   9.181  0.3645 -2.1940 -0.4589
32807SOL     OW 1052   3.927   0.477   7.908  0.0088  0.4130  0.0540
32807SOL    HW1 1053   3.924   0.453   7.815 -0.2742 -0.8514  0.3728
32807SOL    HW2 1054   3.873   0.556   7.914 -2.1375 -0.9288 -0.4616
32808SOL     OW 1055   2.684   1.350   8.776  0.1686 -0.2193  0.4695
32808SOL    HW1 1056   2.613   1.345   8.712 -0.5535 -0.3180  1.2519
32808SOL    HW2 1057   2.657   1.419   8.837 -0.8173 -2.3163  2.5645
32809SOL     OW 1058   7.874   6.781   1.193  0.0555  0.0023 -0.3710
32809SOL    HW1 1059   7.902   6.847   1.129 -0.3463  0.8866  0.3398
32809SOL    HW2 1060   7.783   6.803   1.212  0.5631  0.6405  1.5365
32810SOL     OW 1061   7.595   2.246   8.925  0.1275 -0.4993  0.6141
32810SOL    HW1 1062   7.676   2.230   8.972  1.4977  0.6550 -1.2288
32810SOL    HW2 1063   7.618   2.308   8.856 -2.9536  2.3040  1.8342
32811SOL     OW 1064   8.908   9.721   6.434  0.7438 -0.0104 -0.0176
32811SOL    HW1 1065   8.913   9.763   6.519 -1.0246 -1.3933  0.8305
32811SOL    HW2 1066   8.819   9.686   6.429  1.4622 -1.8275 -1.5048
32812SOL     OW 1067   8.636   8.556   2.710 -0.4255  0.1694  0.0301
32812SOL    HW1 1068   8.625   8.634   2.765 -1.8757 -0.3184  0.4636
32812SOL    HW2 1069   8.552   8.512   2.714  0.2280 -1.1783 -0.6149
32813SOL     OW 1070   0.745   6.851  10.256  0.3615 -0.5052 -0.1864
32813SOL    HW1 1071   0.778   6.941  10.255  2.7171 -1.3139 -0.2770
32813SOL    HW2 1072   0.700   6.843  10.340 -1.4172  1.2244 -0.8982
32814SOL     OW 1073   8.887   0.477   7.748  0.7454 -0.1075  0.5042
32814SOL    HW1 1074   8.824   0.512   7.685 -0.0785 -1.1786  0.7127
32814SOL    HW2 1075   8.972   0.505   7.715  0.1377  2.4561  0.8886
32815SOL     OW 1076   9.469   7.677   4.136 -0.8800  0.3122  0.6295
32815SOL    HW1 1077   9.544   7.634   4.094 -1.4253  1.1990 -1.4211
32815SOL    HW2 1078   9.508   7.732   4.204  0.1785 -0.3869  0.6101
32816SOL     OW 1079   1.492   7.638   1.140  0.0184  0.2862  0.7014
32816SOL    HW1 1080   1.552   7.664   1.210  0.3924  0.2582  0.3910
32816SOL    HW2 1081   1.423   7.589   1.185 -0.1356  0.8969  1.1467
32817SOL     OW 1082   2.679   6.392   3.254  0.0197 -0.2895 -0.0753
32817SOL    HW1 1083   2.660   6.441   3.333 -1.2322 -1.0303  0.1070
32817SOL    HW2 1084   2.741   6.324   3.282 -0.7360 -0.8081  0.3837
32818SOL     OW 1085   2.243   1.262   5.581  0.2282  0.4776 -0.0802
32818SOL    HW1 1086   2.217   1.316   5.656  0.7439 -1.6276  1.7133
32818SOL    HW2 1087   2.170   1.202   5.567  0.3233  0.5629 -0.9970
32819SOL     OW 1088   5.893   5.727   8.115  1.4206 -0.6601  0.1130
32819SOL    HW1 1089   5.883   5.662   8.184  2.3306 -1.1835 -0.2284
32819SOL    HW2 1090   5.846   5.691   8.040 -1.1718  0.7608  0.9597
32820SOL     OW 1091   5.187   7.570   8.965 -0.2473  0.3269 -0.0057
32820SOL    HW1 1092   5.100   7.553   8.928 -0.8186  1.6245  0.6924
32820SOL    HW2 1093   5.177   7.651   9.014  1.5588  0.9048 -0.5162
32821SOL     OW 1094   8.411  10.251   3.651  0.2808 -0.0535  0.6611
32821SOL    HW1 1095   8.384  10.223   3.563  0.4112  2.6937 -0.3253
32821SOL    HW2 1096   8.488  10.306   3.637 -0.4410  1.5064  2.3447
32822SOL     OW 1097   5.075   7.003   1.867  0.1295  0.2027  0.9313
32822SOL    HW1 1098   5.046   7.042   1.785 -2.0290  0.7449  1.8829
32822SOL    HW2 1099   5.125   6.926   1.840 -1.3836 -0.2170 -0.9111
32823SOL     OW 1100   3.312   3.616   9.033 -0.7161 -0.2596  0.2903
32823SOL    HW1 1101   3.357   3.669   9.099 -0.5674 -1.3039  1.0628
32823SOL    HW2 1102   3.271   3.680   8.975  0.5949  0.7091  0.3744
32824SOL     OW 1103   1.481   7.201   2.794 -0.4742  0.6991  0.5661
32824SOL    HW1 1104   1.516   7.286   2.770 -0.2308  0.4003 -0.1839
32824SOL    HW2 1105   1.555   7.140   2.781 -1.1472  0.1046 -0.7548
32825SOL     OW 1106   5.204   3.353   9.018 -0.1117 -0.7686  0.2276
32825SOL    HW1 1107   5.266   3.411   9.064 -0.3781 -1.3968  1.4147
32825SOL    HW2 1108   5.260   3.300   8.960  0.3863 -0.8067  0.7293
32826SOL     OW 1109   7.892   2.327   0.372  0.3892 -0.2247 -0.2319
32826SOL    HW1 1110   7.944   2.258   0.412 -0.5652 -0.8375 -0.0140
32826SOL    HW2 1111   7.836   2.359   0.442  0.1619  0.1278 -0.5683
32827SOL     OW 1112   4.195   8.047   9.590 -0.1303  0.0497  0.1513
32827SOL    HW1 1113   4.221   7.967   9.543 -2.5050 -0.4003 -0.5497
32827SOL    HW2 1114   4.209   8.117   9.528 -2.4407 -0.4463 -1.0590
32828SOL     OW 1115   1.495   2.716   2.718 -0.2505  0.0740 -0.2602
32828SOL    HW1 1116   1.523   2.802   2.687 -0.3009  0.1324 -0.1448
32828SOL    HW2 1117   1.575   2.675   2.752 -0.0375 -0.3031 -1.1805
32829SOL     OW 1118  10.007   5.799   1.295 -0.6252 -0.2885  1.1769
32829SOL    HW1 1119   9.936   5.736   1.310  0.0466 -1.1410  0.8847
32829SOL    HW2 1120   9.979   5.879   1.339 -3.1271  0.3869 -1.3657
32830SOL     OW 1121   1.747   8.968   4.430 -0.1757 -0.2615  0.1310
32830SOL    HW1 1122   1.820   8.974   4.491 -0.8000  0.5782  0.8206
32830SOL    HW2 1123   1.675   9.011   4.475 -0.7887 -0.0807 -0.9931
32831SOL     OW 1124   8.515   8.098   3.821  0.1780  0.0557 -0.4737
32831SOL    HW1 1125   8.484   8.102   3.731 -0.3934  0.1477 -0.2778
32831SOL    HW2 1126   8.444   8.054   3.869 -0.3767  1.7251  0.2986
32832SOL     OW 1127   6.067   3.216   7.077 -0.6508 -0.3182 -0.3540
32832SOL    HW1 1128   6.015   3.233   6.998 -0.4004 -0.2146 -0.4991
32832SOL    HW2 1129   6.091   3.303   7.108  1.4736 -0.3659 -1.6559
32833SOL     OW 1130   5.407  10.221   4.358  0.5958 -0.4699 -0.3616
32833SOL    HW1 1131   5.436  10.137   4.323  0.1530 -0.4959 -0.6707
32833SOL    HW2 1132   5.488  10.265   4.386  0.8361 -0.9553 -0.2842
32834SOL     OW 1133   0.238   4.718   0.969 -0.5664 -0.1709 -0.0017
32834SOL    HW1 1134   0.188   4.738   0.890 -0.6481 -0.4514 -0.0210
32834SOL    HW2 1135   0.324   4.758   0.954 -0.9761  0.8623  0.2967
32835SOL     OW 1136   6.560   1.817   9.436  0.2342 -0.5755 -0.1813
32835SOL    HW1 1137   6.577   1.911   9.437 -1.7186 -0.1925  0.4092
32835SOL    HW2 1138   6.634   1.779   9.484  0.6976  0.7201  0.1756
32836SOL     OW 1139   1.056   6.169   5.375 -0.1121  0.5176 -0.1229
32836SOL    HW1 1140   1.048   6.185   5.469 -1.1198  1.7053 -0.3706
32836SOL    HW2 1141   1.146   6.193   5.354  0.0987  0.3167  0.5271
32837SOL     OW 1142   3.559   4.646   4.402  0.5054 -0.3332 -0.5872
32837SOL    HW1 1143   3.625   4.646   4.333 -0.5364  0.6812 -1.6348
32837SOL    HW2 1144   3.508   4.567   4.387  1.2405 -0.9285  0.0015
32838SOL     OW 1145   7.994   3.089   8.681 -0.2878  0.1975  0.1810
32838SOL    HW1 1146   7.992   3.143   8.761 -1.5375  0.7448 -0.1900
32838SOL    HW2 1147   7.903   3.089   8.650  0.3129  0.7136 -1.7229
32839SOL     OW 1148   5.125   9.393   7.924  0.2365  0.1578 -0.3160
32839SOL    HW1 1149   5.165   9.458   7.866  0.8585 -0.7870 -0.9917
32839SOL    HW2 1150   5.036   9.424   7.938  0.8550  1.7439  0.3226
32840SOL     OW 1151   4.869   5.340   4.898  0.2003 -0.2152 -0.2226
32840SOL    HW1 1152   4.911   5.422   4.873  1.5805 -1.5418 -2.6087
32840SOL    HW2 1153   4.780   5.347   4.863  0.5228  0.0397 -1.0247
32841SOL     OW 1154   8.031   7.480   4.618  0.1682 -0.1356  0.6018
32841SOL    HW1 1155   7.951   7.468   4.670 -2.4598 -0.1275 -3.0492
32841SOL    HW2 1156   8.096   7.509   4.681 -3.2245  1.8653  3.5547
32842SOL     OW 1157   4.749   6.998   4.741  0.4845 -0.2286 -1.0163
32842SOL    HW1 1158   4.695   7.012   4.820 -0.0051  1.2706 -1.5845
32842SOL    HW2 1159   4.798   6.918   4.760  0.5214  0.1933  0.9009
32843SOL     OW 1160   9.264   5.963   2.773  0.6281  0.0886  0.3876
32843SOL    HW1 1161   9.352   5.977   2.738  0.5903  1.5536  0.7864
32843SOL    HW2 1162   9.248   5.869   2.764  2.7321 -0.4267  1.5195
32844SOL     OW 1163   3.680   5.238   6.728  0.0885  0.1749  0.3049
32844SOL    HW1 1164   3.670   5.327   6.697  0.9071  0.3258  0.4446
32844SOL    HW2 1165   3.764   5.209   6.692  0.4198 -0.1022  1.2464
32845SOL     OW 1166   9.509   4.806  10.204  0.8290 -0.2165  0.2074
32845SOL    HW1 1167   9.452   4.827  10.129  0.8946  0.1439  0.2574
32845SOL    HW2 1168   9.449   4.788  10.275  0.7208 -1.9951 -0.2906
32846SOL     OW 1169   1.940   6.827   4.769  0.1841  0.3196 -0.3475
32846SOL    HW1 1170   1.865   6.872   4.808  0.3719  0.6806 -0.3983
32846SOL    HW2 1171   1.970   6.768   4.838 -0.6653 -0.4515 -0.6218
32847SOL     OW 1172   5.913   8.446   3.183  0.1774  0.2329 -0.8502
32847SOL    HW1 1173   5.965   8.401   3.249  0.7062  2.1004  0.0965
32847SOL    HW2 1174   5.913   8.388   3.108  2.8653 -0.2758 -0.5604
32848SOL     OW 1175   6.092   8.092   0.920 -0.3328  0.0427  0.1666
32848SOL    HW1 1176   6.124   8.017   0.970  0.7886  0.1656 -0.3303
32848SOL    HW2 1177   6.109   8.168   0.976 -0.0634  0.0723  0.0478
32849SOL     OW 1178   0.232   9.411   3.136 -0.5580 -0.7259 -0.6293
32849SOL    HW1 1179   0.295   9.357   3.088 -0.0046 -0.5443 -0.1154
32849SOL    HW2 1180   0.201   9.474   3.071  1.4105  0.5885 -0.3901
32850SOL     OW 1181   6.234   2.099   7.401  0.1026  0.1206 -0.4276
32850SOL    HW1 1182   6.168   2.035   7.429 -0.6779  1.1681  0.2075
32850SOL    HW2 1183   6.315   2.067   7.441 -0.5597  0.3123  1.1668
32851SOL     OW 1184   6.456   3.461   4.422  0.0068  0.1671  0.3595
32851SOL    HW1 1185   6.489   3.494   4.339  0.1500 -0.8785 -0.0158
32851SOL    HW2 1186   6.474   3.530   4.485  0.0099  0.9189 -0.4547
32852SOL     OW 1187   9.623   7.209   4.685  0.0018  0.2011  0.5048
32852SOL    HW1 1188   9.694   7.214   4.749 -0.0103 -0.6535  0.5906
32852SOL    HW2 1189   9.658   7.252   4.607  0.4931  0.0766  0.6544
32853SOL     OW 1190   4.756   0.462   1.121 -1.1426  0.3200  0.4598
32853SOL    HW1 1191   4.841   0.420   1.111 -0.9994  0.7690 -0.2720
32853SOL    HW2 1192   4.769   0.552   1.090 -1.6735  0.6420  1.1311
32854SOL     OW 1193   9.482   6.206   3.378 -0.7514 -0.6691  0.0655
32854SOL    HW1 1194   9.488   6.258   3.458  1.6254  0.6913 -0.9113
32854SOL    HW2 1195   9.398   6.232   3.339 -0.5811  0.8663  0.6685
32855SOL     OW 1196   4.612   1.252   5.182  0.0769 -0.4681 -0.3359
32855SOL    HW1 1197   4.697   1.209   5.174  0.1317 -0.5093  0.4145
32855SOL    HW2 1198   4.550   1.181   5.198  0.1091 -0.3192  0.5024
32856SOL     OW 1199   7.906   9.878   9.044  0.0411 -0.0592 -0.0794
32856SOL    HW1 1200   7.882   9.883   9.137 -2.2881 -0.0965 -0.6223
32856SOL    HW2 1201   7.995   9.913   9.041 -0.7971  2.5975  1.8037
32857SOL     OW 1202   6.487   0.045   8.798  0.4539  0.3643  0.0513
32857SOL    HW1 1203   6.479   0.135   8.829  2.0368  0.9919 -1.2093
32857SOL    HW2 1204   6.580   0.024   8.810  0.0748 -1.1772  0.4866
32858SOL     OW 1205   2.710   5.951   6.810  0.0383  0.1340  0.2031
32858SOL    HW1 1206   2.665   6.025   6.771 -0.0289 -0.1180 -0.2059
32858SOL    HW2 1207   2.775   5.989   6.869 -0.6048  0.5038  0.6850
32859SOL     OW 1208   3.317   1.437   5.403  0.4928  0.1482 -0.4063
32859SOL    HW1 1209   3.268   1.509   5.362  0.1330  0.4726  0.5678
32859SOL    HW2 1210   3.274   1.424   5.487 -0.2011 -2.0153 -1.0273
32860SOL     OW 1211   5.404   7.504   4.462 -0.4115  0.4378  0.4890
32860SOL    HW1 1212   5.457   7.583   4.469  1.2790 -0.7577  2.1840
32860SOL    HW2 1213   5.462   7.433   4.492 -2.5989 -1.0953  1.3721
32861SOL     OW 1214   7.315  10.219   7.078  0.0089 -0.5243  0.6164
32861SOL    HW1 1215   7.283  10.171   7.001 -0.0313 -0.2332  0.4523
32861SOL    HW2 1216   7.386  10.163   7.112 -0.1853 -0.8105  0.5569
32862SOL     OW 1217   9.592   0.787   2.760  0.8955  0.3065  0.1472
32862SOL    HW1 1218   9.570   0.758   2.848  0.0617 -0.2632 -0.2353
32862SOL    HW2 1219   9.656   0.857   2.773  1.4267 -0.3562  1.1580
32863SOL     OW 1220   7.326   5.889   3.355 -0.4378 -0.3329 -0.3562
32863SOL    HW1 1221   7.319   5.980   3.324 -0.5299 -0.6070 -1.1618
32863SOL    HW2 1222   7.312   5.895   3.449  0.1563  0.5706 -0.3049
32864SOL     OW 1223   8.932   4.507   2.196  0.0874  0.4259  0.0599
32864SOL    HW1 1224   8.911   4.562   2.272  1.0490 -0.4254  0.9610
32864SOL    HW2 1225   8.899   4.420   2.219 -2.5755  0.8089 -1.8885
32865SOL     OW 1226   2.590   9.855   1.019  0.5889  0.4175  0.4946
32865SOL    HW1 1227   2.676   9.817   1.037  0.0569 -0.9859  0.2281
32865SOL    HW2 1228   2.543   9.787   0.970 -0.6397  1.1895  0.5367
32866SOL     OW 1229   0.954   2.723   4.424  0.2873  0.0718  0.1793
32866SOL    HW1 1230   0.880   2.766   4.467 -0.1471 -0.3663 -0.1202
32866SOL    HW2 1231   0.934   2.727   4.331  0.0315 -1.1306  0.1630
32867SOL     OW 1232   7.761   3.407   8.145 -0.8571 -0.1326 -0.2855
32867SOL    HW1 1233   7.773   3.502   8.146 -2.7471  0.2045 -2.6889
32867SOL    HW2 1234   7.680   3.392   8.096 -0.2280 -3.0408 -0.6573
32868SOL     OW 1235   7.402   1.731   1.963  0.5509  1.0534 -0.0784
32868SOL    HW1 1236   7.351   1.650   1.953  1.1476  0.4329  1.6215
32868SOL    HW2 1237   7.457   1.715   2.039  1.6480  2.5830 -0.5205
32869SOL     OW 1238   1.041   1.824   1.930 -0.1823  0.1567 -0.3773
32869SOL    HW1 1239   1.071   1.809   2.020 -1.1937  4.1316  0.8030
32869SOL    HW2 1240   1.094   1.897   1.899 -0.7406 -0.3077 -2.5957
32870SOL     OW 1241   1.365   1.612   1.896 -0.5823 -0.0479  0.2774
32870SOL    HW1 1242   1.384   1.543   1.832 -0.2277  0.7905 -0.5461
32870SOL    HW2 1243   1.428   1.598   1.966  0.8104  0.5937 -0.8006
32871SOL     OW 1244   9.433   9.571   7.693 -0.0748 -0.2613 -0.4260
32871SOL    HW1 1245   9.347   9.551   7.655  0.1989 -1.7990 -0.2875
32871SOL    HW2 1246   9.463   9.647   7.643 -1.9068  0.9280  0.1651
32872SOL     OW 1247   5.669   8.211   2.880  0.7079 -0.8741 -0.1867
32872SOL    HW1 1248   5.621   8.289   2.906  0.8235 -0.3766 -1.3874
32872SOL    HW2 1249   5.747   8.210   2.936  1.2809  0.5105 -0.9144
32873SOL     OW 1250   9.234   9.735   1.021 -0.1024 -0.0235  0.0729
32873SOL    HW1 1251   9.176   9.664   1.050  0.2103 -0.5516 -0.5760
32873SOL    HW2 1252   9.242   9.791   1.098 -0.2324 -0.7692  0.6484
32874SOL     OW 1253   7.001   5.175   7.192  0.0277 -0.1894  0.3216
32874SOL    HW1 1254   6.956   5.256   7.217 -0.4285 -0.2425 -0.3089
32874SOL    HW2 1255   7.086   5.204   7.159 -0.1304  0.0394  0.1056
32875SOL     OW 1256   4.605   8.948  10.140 -0.7430  0.4271 -0.8902
32875SOL    HW1 1257   4.515   8.919  10.154 -1.0271  1.0964 -1.2777
32875SOL    HW2 1258   4.640   8.959  10.228 -0.6647 -0.9349 -0.7320
32876SOL     OW 1259   5.916   8.981   2.037 -0.0512 -0.6788  0.3456
32876SOL    HW1 1260   5.917   9.075   2.054 -0.3476 -0.4436 -0.8691
32876SOL    HW2 1261   5.850   8.970   1.968  1.0653 -1.5769 -0.6207
32877SOL     OW 1262   6.135   1.759   7.841 -0.4024  0.0508  0.8375
32877SOL    HW1 1263   6.120   1.852   7.826 -0.0794  0.2374  1.6064
32877SOL    HW2 1264   6.100   1.744   7.929  0.6950 -0.2782  1.2233
32878SOL     OW 1265   1.259   4.648   8.333 -0.0540  0.2374 -0.3245
32878SOL    HW1 1266   1.326   4.585   8.360  0.2012  0.1019 -1.2230
32878SOL    HW2 1267   1.231   4.689   8.414 -0.0129 -0.8254  0.2508
32879SOL     OW 1268   2.899   7.014   4.591 -0.2794 -0.4677 -0.1625
32879SOL    HW1 1269   2.968   7.044   4.531  0.5261 -1.8155  0.0397
32879SOL    HW2 1270   2.826   6.990   4.534 -0.2294  0.0452 -0.4517
32880SOL     OW 1271   6.633   1.027   4.218 -0.5352  0.1457  0.1511
32880SOL    HW1 1272   6.651   1.017   4.312 -1.2324  0.7624  0.3616
32880SOL    HW2 1273   6.679   1.107   4.194 -0.6097  0.1543  0.0385
32881SOL     OW 1274   1.017   4.763   5.121  0.5941 -0.3020  0.2182
32881SOL    HW1 1275   1.063   4.726   5.046  1.5241 -1.2757  1.2371
32881SOL    HW2 1276   0.927   4.732   5.111  0.6118 -0.1013 -0.6792
32882SOL     OW 1277   4.644   7.907   2.164 -0.4265  0.3984  0.1649
32882SOL    HW1 1278   4.731   7.929   2.133 -0.1884 -1.1122 -0.3249
32882SOL    HW2 1279   4.653   7.899   2.259 -0.6220  2.6717  0.4311
32883SOL     OW 1280   9.407   1.551   3.783 -0.1578 -0.2456  0.3804
32883SOL    HW1 1281   9.371   1.539   3.871 -2.4016 -0.4465 -0.4934
32883SOL    HW2 1282   9.422   1.463   3.751 -0.3864 -0.2086  0.1705
32884SOL     OW 1283   1.603   7.840   4.408  0.2715  0.3797 -0.1992
32884SOL    HW1 1284   1.609   7.889   4.326 -0.0530  0.0729 -0.4094
32884SOL    HW2 1285   1.684   7.861   4.455 -1.0001  3.2143  0.8956
32885SOL     OW 1286   2.683   4.581   9.907 -0.3523  0.2728 -0.4794
32885SOL    HW1 1287   2.594   4.570   9.939 -0.4468 -0.1691 -0.8751
32885SOL    HW2 1288   2.736   4.599   9.985 -0.6114 -0.5342 -0.1097
32886SOL     OW 1289   8.073   6.836   7.012  0.3238  0.9626 -0.3637
32886SOL    HW1 1290   8.113   6.845   7.099 -1.7132  0.6866  0.6532
32886SOL    HW2 1291   8.105   6.752   6.980  0.3480  0.6165  0.5288
32887SOL     OW 1292   5.294   9.093   6.358  0.2537 -0.2863 -0.5656
32887SOL    HW1 1293   5.373   9.115   6.407 -0.3919 -0.6417  0.6513
32887SOL    HW2 1294   5.268   9.175   6.316  0.7778  0.0300 -0.2840
32888SOL     OW 1295   5.381   4.672   6.293 -0.7536  0.4461  0.3782
32888SOL    HW1 1296   5.379   4.647   6.201 -0.3849  1.8697 -0.0433
32888SOL    HW2 1297   5.472   4.661   6.319 -0.4594  1.8251  0.0202
32889SOL     OW 1298  10.206   7.207   9.510  0.7456  0.9017  0.4879
32889SOL    HW1 1299  10.129   7.157   9.538  1.0761  1.0182  1.6927
32889SOL    HW2 1300  10.170   7.285   9.467  0.1715  1.0013  1.1273
32890SOL     OW 1301   4.647   9.960   8.039  0.1610  0.2008 -0.5110
32890SOL    HW1 1302   4.593  10.038   8.029  0.1335  0.5953  2.0390
32890SOL    HW2 1303   4.736   9.991   8.028  0.1293  0.5640  0.1746
32891SOL     OW 1304   2.247   9.505   7.674  0.2555  0.1607 -0.2320
32891SOL    HW1 1305   2.202   9.432   7.632  2.1417 -1.9689  1.1732
32891SOL    HW2 1306   2.207   9.512   7.761  0.5840  0.2893 -0.0889
32892SOL     OW 1307   3.050   6.641   3.358 -0.3101 -0.1771 -0.1218
32892SOL    HW1 1308   3.052   6.557   3.313 -0.5871  0.2584 -0.9578
32892SOL    HW2 1309   3.141   6.659   3.380 -0.4850 -2.1764  2.9120
32893SOL     OW 1310   6.372   0.732   0.925 -0.2228 -0.2918  0.2854
32893SOL    HW1 1311   6.302   0.695   0.980  0.3411 -4.0160 -1.1845
32893SOL    HW2 1312   6.443   0.752   0.986 -0.8804 -0.9231  1.2846
32894SOL     OW 1313  10.354   3.040   6.366  0.9650 -0.8194 -0.4793
32894SOL    HW1 1314  10.390   3.099   6.432 -0.0221 -1.1194  0.3652
32894SOL    HW2 1315  10.378   3.079   6.282 -0.7361  1.5034  0.0128
32895SOL     OW 1316   7.363   4.913   5.546 -0.3046  0.6545  0.3651
32895SOL    HW1 1317   7.338   4.850   5.478 -1.4362  1.3180  0.1397
32895SOL    HW2 1318   7.420   4.864   5.605 -0.1350 -0.2208 -0.5010
32896SOL     OW 1319   5.391   9.072   1.242  0.3134  0.1150 -0.0640
32896SOL    HW1 1320   5.317   9.080   1.182 -0.4472  0.0427  0.8304
32896SOL    HW2 1321   5.401   9.161   1.277 -1.0598 -0.3773  1.7412
32897SOL     OW 1322   8.631   6.351  10.259  0.0008  0.1282  0.0290
32897SOL    HW1 1323   8.719   6.381  10.237  1.2158 -1.8641  1.7819
32897SOL    HW2 1324   8.643   6.259  10.285 -2.4050  0.1440  1.4687
32898SOL     OW 1325   4.198   2.061   3.329 -0.0497  0.2830 -0.4132
32898SOL    HW1 1326   4.165   2.079   3.417  0.6532  1.4340 -0.3742
32898SOL    HW2 1327   4.122   2.069   3.272 -0.2063  1.1012 -0.0975
32899SOL     OW 1328   2.049   4.662   0.342  0.0475 -0.7043 -0.0074
32899SOL    HW1 1329   2.003   4.746   0.346  0.0502 -0.6642 -0.7045
32899SOL    HW2 1330   2.139   4.685   0.322 -0.1353 -0.9123 -1.1449
32900SOL     OW 1331   4.919   1.514  10.149  0.1804  0.3281 -0.5168
32900SOL    HW1 1332   4.894   1.543  10.061  2.3906 -0.7473 -1.5760
32900SOL    HW2 1333   4.998   1.563  10.168 -1.5903  2.4712  2.0626
32901SOL     OW 1334   4.993   5.796   5.378 -0.0438  0.2018 -0.1250
32901SOL    HW1 1335   4.988   5.787   5.473 -1.4886  0.4319 -0.1471
32901SOL    HW2 1336   4.938   5.872   5.359 -0.2337 -0.1910 -1.1892
32902SOL     OW 1337   9.459   4.521   1.324 -0.2950  0.7062  0.1355
32902SOL    HW1 1338   9.508   4.457   1.273  0.1299  1.5659 -0.5757
32902SOL    HW2 1339   9.414   4.470   1.391  0.3108 -0.2811 -0.1948
32903SOL     OW 1340   0.091   2.727   4.932  0.3626 -0.0426 -0.1156
32903SOL    HW1 1341   0.157   2.783   4.973 -2.7951  1.7526  3.0516
32903SOL    HW2 1342   0.076   2.657   4.995 -3.1186  1.5794  1.0953
32904SOL     OW 1343   4.476   3.503   1.083 -0.4692 -0.2093  0.1084
32904SOL    HW1 1344   4.396   3.534   1.125  0.7175  1.8665  0.9473
32904SOL    HW2 1345   4.499   3.571   1.020  2.1632  0.7164  1.9289
32905SOL     OW 1346   7.285   0.866   8.651  0.3794  0.1498 -0.3134
32905SOL    HW1 1347   7.303   0.927   8.722  1.3557 -0.3197 -0.1331
32905SOL    HW2 1348   7.297   0.779   8.690 -0.6062 -0.1635 -0.6602
32906SOL     OW 1349   2.610   4.202   9.115  0.0762  0.0486 -0.6228
32906SOL    HW1 1350   2.596   4.281   9.168  0.5625 -0.1653 -0.1707
32906SOL    HW2 1351   2.694   4.217   9.071  0.5423 -0.5341  0.0515
32907SOL     OW 1352   0.301   6.856   3.530 -0.4593 -0.1792 -0.1048
32907SOL    HW1 1353   0.245   6.782   3.555  0.3564 -0.2872  1.5525
32907SOL    HW2 1354   0.271   6.880   3.442 -3.7453  0.4283  1.0569
32908SOL     OW 1355   9.470   6.328   7.022 -0.2559 -0.7880  0.2849
32908SOL    HW1 1356   9.445   6.399   7.081 -0.2255 -0.6299  0.1073
32908SOL    HW2 1357   9.491   6.255   7.081 -0.8103 -0.8217  0.4541
32909SOL     OW 1358   9.408   3.046   2.513  0.0643 -0.1620 -0.2309
32909SOL    HW1 1359   9.328   3.082   2.552 -0.2378 -0.8903 -0.1685
32909SOL    HW2 1360   9.385   3.034   2.420 -0.2195 -1.2273 -0.0402
32910SOL     OW 1361   4.917   1.068   2.592 -0.7228  0.3295 -0.1254
32910SOL    HW1 1362   4.911   1.137   2.657  1.6186  0.9745 -0.4751
32910SOL    HW2 1363   4.946   0.991   2.641  1.0500  0.8178 -0.3410
32911SOL     OW 1364   6.525  10.294  10.260  0.2291  0.6858 -0.0428
32911SOL    HW1 1365   6.587  10.320  10.192  0.7412  0.7285  0.4311
32911SOL    HW2 1366   6.462  10.366  10.264  1.1497  1.4746  0.6710
32912SOL     OW 1367   0.910   2.617   7.589  0.3323 -0.3394 -0.1361
32912SOL    HW1 1368   0.962   2.603   7.509 -0.5235  0.4104 -0.8516
32912SOL    HW2 1369   0.916   2.711   7.605  0.8821 -0.5453  0.9807
32913SOL     OW 1370   5.907   1.105   6.761  0.2857  0.1964  0.0976
32913SOL    HW1 1371   5.849   1.151   6.822 -1.1544 -1.2180 -0.1230
32913SOL    HW2 1372   5.950   1.038   6.815  1.5897  1.1040  0.2161
32914SOL     OW 1373   2.648   1.680   9.418  0.4584 -0.0720 -0.1027
32914SOL    HW1 1374   2.743   1.670   9.424  0.4240  0.1493  1.0849
32914SOL    HW2 1375   2.627   1.752   9.478 -0.3613  0.5367 -1.0931
32915SOL     OW 1376   0.018   1.693   2.243 -0.1985  0.1232  0.4937
32915SOL    HW1 1377   0.029   1.636   2.166  0.1589  1.2399 -0.3094
32915SOL    HW2 1378  -0.072   1.724   2.237 -0.7685 -1.2317  1.5739
32916SOL     OW 1379   1.268   3.393   7.761  1.0177 -0.0296 -0.1679
32916SOL    HW1 1380   1.243   3.484   7.773  0.3850 -0.0142 -1.4857
32916SOL    HW2 1381   1.319   3.372   7.839 -0.8523  0.7201  1.3294
32917SOL     OW 1382   6.565   8.196  10.100  0.0778  0.2273  0.6446
32917SOL    HW1 1383   6.522   8.113  10.121 -1.9667  1.3783  1.2255
32917SOL    HW2 1384   6.627   8.211  10.172  0.6632 -0.8902  0.3949
32918SOL     OW 1385   5.194   9.648   3.505 -0.7267 -0.3598  0.7804
32918SOL    HW1 1386   5.190   9.613   3.416 -1.1949 -0.7898  0.9672
32918SOL    HW2 1387   5.104   9.641   3.538 -1.1171  2.1686  0.4002
32919SOL     OW 1388   8.979   0.781   9.054 -0.7633  0.1948 -0.0961
32919SOL    HW1 1389   8.925   0.810   9.127 -1.4460 -3.1261  0.8798
32919SOL    HW2 1390   9.069   0.787   9.087 -0.6294  2.9030 -0.6823
32920SOL     OW 1391   1.415   1.091   2.683 -0.2460 -0.2048 -0.2606
32920SOL    HW1 1392   1.355   1.020   2.707 -0.1674 -0.6887 -1.4405
32920SOL    HW2 1393   1.497   1.047   2.661 -0.0972  0.2837 -0.6971
32921SOL     OW 1394   0.275   7.576   3.320  0.3642 -0.3974  0.1091
32921SOL    HW1 1395   0.286   7.671   3.329 -0.2215 -0.2758 -0.4180
32921SOL    HW2 1396   0.279   7.543   3.409  1.3950  0.0273  0.2371
32922SOL     OW 1397   7.743   2.650   8.335  0.5538 -0.0237  0.7678
32922SOL    HW1 1398   7.771   2.723   8.392 -0.0376 -0.2084  1.2997
32922SOL    HW2 1399   7.743   2.574   8.393  0.3453 -0.2916  0.4140
32923SOL     OW 1400   6.595   0.830   2.397  0.4576 -0.3924 -0.1926
32923SOL    HW1 1401   6.675   0.880   2.412  0.6195 -0.3585 -1.0703
32923SOL    HW2 1402   6.549   0.832   2.480  1.1144  0.0489  0.1718
32924SOL     OW 1403   6.818   0.334   2.763 -0.4667  0.4354 -0.3749
32924SOL    HW1 1404   6.853   0.395   2.829  0.7677 -0.4946 -0.1318
32924SOL    HW2 1405   6.739   0.299   2.803  0.0053  0.2488  0.4396
32925SOL     OW 1406   6.145   3.620   0.966 -0.0383 -0.3905  0.0743
32925SOL    HW1 1407   6.056   3.641   0.938 -0.6251  0.8907  2.6134
32925SOL    HW2 1408   6.184   3.705   0.987  1.2021 -1.0688  0.6237
32926SOL     OW 1409   2.162   0.776   0.813 -0.2959  0.2744 -0.0905
32926SOL    HW1 1410   2.096   0.707   0.806  0.5017 -0.5864  0.7438
32926SOL    HW2 1411   2.219   0.748   0.884  0.9038  1.0761 -0.7116
32927SOL     OW 1412   6.919   8.955   7.676  0.0017  0.0944  0.4169
32927SOL    HW1 1413   7.008   8.972   7.708  0.9622 -0.1356 -1.9635
32927SOL    HW2 1414   6.915   8.860   7.664 -1.0796 -0.0741  1.7766
32928SOL     OW 1415   3.874   5.734   8.676 -0.1014 -0.4173 -0.2869
32928SOL    HW1 1416   3.952   5.789   8.669 -0.3256 -0.1353 -0.5951
32928SOL    HW2 1417   3.902   5.660   8.729 -0.4295  1.1803  2.3414
32929SOL     OW 1418   3.902   4.013   9.776 -0.1240  0.0951  0.1320
32929SOL    HW1 1419   3.974   3.981   9.831 -0.1377 -0.0406  0.0735
32929SOL    HW2 1420   3.927   3.985   9.687 -0.3154 -0.0728  0.1300
32930SOL     OW 1421   3.799   1.339   3.525  0.8294  0.3805 -0.1317
32930SOL    HW1 1422   3.777   1.302   3.611 -3.1515  1.2180 -0.6131
32930SOL    HW2 1423   3.834   1.426   3.545  2.1616 -0.2949  0.6503
32931SOL     OW 1424   2.248   9.700   9.463  0.3110  0.3267 -0.2971
32931SOL    HW1 1425   2.290   9.706   9.549  1.1509  1.0187 -0.7325
32931SOL    HW2 1426   2.278   9.779   9.417  0.7666 -0.5703 -1.6073
32932SOL     OW 1427   9.681   8.549   0.821  0.8547  0.2955  0.5599
32932SOL    HW1 1428   9.588   8.566   0.808  0.6903 -0.5755  0.5335
32932SOL    HW2 1429   9.696   8.566   0.914  0.8347  1.1284  0.4242
32933SOL     OW 1430   5.298   5.657   2.029  0.0775  0.2673  0.9669
32933SOL    HW1 1431   5.250   5.739   2.017  0.1651  0.8170  3.7358
32933SOL    HW2 1432   5.292   5.613   1.944 -2.0346  2.0304  0.1063
32934SOL     OW 1433   2.348   9.449   8.831  0.7008 -0.0307 -0.5682
32934SOL    HW1 1434   2.296   9.508   8.887  1.1960 -0.7280  0.6830
32934SOL    HW2 1435   2.283   9.399   8.783  0.2536  0.5369 -0.5731
32935SOL     OW 1436   0.930   4.764   5.870 -0.1999 -0.3943 -0.3177
32935SOL    HW1 1437   0.953   4.677   5.902 -0.4218 -0.0518  0.8009
32935SOL    HW2 1438   0.989   4.824   5.916 -2.2622  0.3631  1.5351
32936SOL     OW 1439   0.407   0.686   3.375  0.0973  0.5518  0.4636
32936SOL    HW1 1440   0.477   0.745   3.349 -0.0276  1.4793  2.0623
32936SOL    HW2 1441   0.330   0.717   3.327  0.4685  0.4069 -0.2357
32937SOL     OW 1442   9.762   1.676   4.229  0.1052  0.6843 -0.8784
32937SOL    HW1 1443   9.701   1.735   4.185  0.2124  1.1207 -0.4473
32937SOL    HW2 1444   9.730   1.672   4.319 -0.7904 -1.0907 -1.2189
32938SOL     OW 1445   0.384   7.648   8.879  0.1883  0.1398 -0.2800
32938SOL    HW1 1446   0.399   7.736   8.845  1.9582 -0.4772 -1.1936
32938SOL    HW2 1447   0.468   7.604   8.870 -0.2603 -1.2010  1.5481
32939SOL     OW 1448   6.347   5.999   1.568 -0.3880  0.4483  0.6536
32939SOL    HW1 1449   6.380   6.042   1.489  0.9354 -1.1349  0.3057
32939SOL    HW2 1450   6.255   5.981   1.548 -0.0585  0.0237 -0.5604
32940SOL     OW 1451   2.999   9.820   1.722 -0.5317 -0.9199 -0.1181
32940SOL    HW1 1452   3.041   9.885   1.665 -1.3453  0.5916  0.9486
32940SOL    HW2 1453   3.039   9.736   1.695  3.0230  0.3439  0.6532
32941SOL     OW 1454   0.676   2.497   1.170 -0.6166  0.1680 -0.8464
32941SOL    HW1 1455   0.606   2.450   1.124  0.3745 -0.9933 -1.2194
32941SOL    HW2 1456   0.746   2.505   1.105 -0.1803  0.8031 -0.3033
32942SOL     OW 1457   7.768   8.407   9.149 -0.8899  0.1693 -0.8324
32942SOL    HW1 1458   7.704   8.368   9.089 -1.9071 -1.6710  1.3028
32942SOL    HW2 1459   7.729   8.491   9.174 -1.5655 -0.0816 -1.0154
32943SOL     OW 1460   5.700   2.544   5.651 -0.0349  0.4086  0.2317
32943SOL    HW1 1461   5.748   2.462   5.644 -0.5485  0.1012  0.2648
32943SOL    HW2 1462   5.613   2.524   5.617 -0.0612  1.0308 -0.0777
32944SOL     OW 1463   9.934   2.955   9.054  0.1512 -0.1179  0.0559
32944SOL    HW1 1464   9.993   2.939   9.127  1.1277  0.5763 -0.5456
32944SOL    HW2 1465   9.850   2.977   9.095  1.0438  1.7002  1.0285
32945SOL     OW 1466   3.404   7.877   2.352  0.6974 -0.5084 -0.2068
32945SOL    HW1 1467   3.344   7.822   2.301  0.4907 -0.4423 -0.0357
32945SOL    HW2 1468   3.439   7.818   2.419  0.8232 -0.5460 -0.3046
32946SOL     OW 1469   4.325   7.948   6.584  0.0232  0.3564 -0.7317
32946SOL    HW1 1470   4.345   7.883   6.516  0.2885 -2.3968  1.7532
32946SOL    HW2 1471   4.303   7.895   6.661 -4.2065  3.2023  0.3520
32947SOL     OW 1472   2.214   5.114   1.938  0.1286  0.6681 -0.8719
32947SOL    HW1 1473   2.279   5.096   1.870 -0.2440  0.7948 -1.2672
32947SOL    HW2 1474   2.240   5.199   1.974  0.5869  0.3951 -0.5395
32948SOL     OW 1475   7.332   1.553   6.493 -0.2541  0.1578 -0.0485
32948SOL    HW1 1476   7.409   1.507   6.528 -1.0433 -1.3075 -0.1517
32948SOL    HW2 1477   7.305   1.500   6.418 -1.1189  0.8921 -0.2613
32949SOL     OW 1478   2.991   0.785   4.487 -0.5171  0.7206  0.0364
32949SOL    HW1 1479   2.921   0.727   4.516  0.6508 -1.0670 -0.6160
32949SOL    HW2 1480   2.989   0.858   4.550 -2.2510  0.1921  0.6465
32950SOL     OW 1481   2.276   7.850   9.543 -0.3203  0.3884  0.0192
32950SOL    HW1 1482   2.331   7.772   9.544 -1.7772 -0.6758 -0.3611
32950SOL    HW2 1483   2.275   7.880   9.634  0.6569  0.2824  0.0785
32951SOL     OW 1484   8.633   6.992   1.180 -0.3591 -0.3759 -0.3425
32951SOL    HW1 1485   8.641   6.913   1.128 -1.7322 -0.9580  0.2993
32951SOL    HW2 1486   8.716   7.039   1.165  0.8622 -2.3295 -0.0434
32952SOL     OW 1487   5.660   0.147   9.647 -0.2953  0.6915  0.2204
32952SOL    HW1 1488   5.701   0.197   9.576 -1.3003  0.2231 -0.7241
32952SOL    HW2 1489   5.731   0.093   9.682  0.3122  1.2291 -0.1507
32953SOL     OW 1490   9.259   1.584   1.649  0.0516  0.6952  0.0899
32953SOL    HW1 1491   9.302   1.643   1.710 -0.4391  1.9254 -0.7291
32953SOL    HW2 1492   9.171   1.571   1.686  0.1136  0.5801  0.1979
32954SOL     OW 1493   9.658   6.986   8.991  0.8863 -0.2347  0.4371
32954SOL    HW1 1494   9.714   6.952   8.921 -1.1718 -0.3835 -1.2805
32954SOL    HW2 1495   9.706   7.061   9.027  2.4983 -0.8370 -0.3806
32955SOL     OW 1496   6.447   5.140   5.262 -0.7233  0.2893  0.1598
32955SOL    HW1 1497   6.398   5.218   5.233  0.4829  1.5229  1.3085
32955SOL    HW2 1498   6.415   5.123   5.350 -1.6969 -1.1710 -0.4462
32956SOL     OW 1499   0.387   9.752   0.765 -0.3298 -0.1451  0.5045
32956SOL    HW1 1500   0.422   9.670   0.729 -0.9908 -0.4280  0.4997
32956SOL    HW2 1501   0.334   9.788   0.694  0.7435  0.7911  0.1511
32957SOL     OW 1502   6.314   2.778   6.140  0.1330  0.4501  0.1187
32957SOL    HW1 1503   6.302   2.830   6.218 -1.2299  0.1233  0.1500
32957SOL    HW2 1504   6.406   2.750   6.143  0.0761  0.3822  1.6247
32958SOL     OW 1505   7.388   0.397   1.062  0.3155 -0.0902 -0.3670
32958SOL    HW1 1506   7.442   0.461   1.015  0.9716 -1.4206 -1.4856
32958SOL    HW2 1507   7.326   0.450   1.112  1.5324  1.4424 -0.4152
32959SOL     OW 1508   2.388   6.704   7.942  0.2720  0.7944  0.1250
32959SOL    HW1 1509   2.423   6.760   7.873  1.4787 -1.0841 -0.8681
32959SOL    HW2 1510   2.408   6.751   8.023 -2.9112  4.0161 -0.7124
32960SOL     OW 1511   3.308   2.708   0.254 -0.1970  0.2097 -0.1881
32960SOL    HW1 1512   3.224   2.713   0.298  0.4053  0.6922  0.9562
32960SOL    HW2 1513   3.315   2.616   0.227  0.2755 -0.6591  2.5845
32961SOL     OW 1514   0.124   8.165   2.094  0.2417  0.1100  0.3465
32961SOL    HW1 1515   0.083   8.100   2.151  0.6894 -0.0760  0.4609
32961SOL    HW2 1516   0.161   8.114   2.021  1.7309  0.0693  1.0912
32962SOL     OW 1517   8.274  10.242   8.787 -0.0084  0.1198 -0.2652
32962SOL    HW1 1518   8.302  10.331   8.806 -0.5569  0.2751 -0.1779
32962SOL    HW2 1519   8.180  10.241   8.805 -0.0706 -0.3902 -0.5705
32963SOL     OW 1520   3.579   6.475   9.204 -0.3650  0.6665  0.3719
32963SOL    HW1 1521   3.531   6.491   9.285 -1.5115 -0.0244 -0.1526
32963SOL    HW2 1522   3.669   6.500   9.225 -0.5517  0.1115  1.9935
32964SOL     OW 1523   7.684   2.248   0.650 -0.7415 -0.3440  0.3818
32964SOL    HW1 1524   7.776   2.241   0.676  0.0355  1.7057 -1.5019
32964SOL    HW2 1525   7.642   2.171   0.689  1.6297 -1.0102  1.8013
32965SOL     OW 1526   7.433   7.587   8.819 -0.0066 -0.0914  0.4130
32965SOL    HW1 1527   7.490   7.542   8.882  0.9813 -2.4108 -1.9043
32965SOL    HW2 1528   7.494   7.620   8.752 -1.1462  0.5054 -0.3577
32966SOL     OW 1529   0.701   6.685   2.105  0.0942  0.2342  0.1874
32966SOL    HW1 1530   0.720   6.691   2.012  0.5134 -0.6310  0.2031
32966SOL    HW2 1531   0.638   6.613   2.113  2.0624 -1.5532  0.7810
32967SOL     OW 1532   0.448   0.942   4.801  0.0256  0.1531 -0.1886
32967SOL    HW1 1533   0.421   1.032   4.783 -0.0825 -0.0117 -0.9069
32967SOL    HW2 1534   0.405   0.920   4.884 -1.0860  0.3027 -0.7035
32968SOL     OW 1535   6.471   9.227   9.786 -0.2607 -0.2352 -0.0288
32968SOL    HW1 1536   6.536   9.269   9.842 -1.0785  2.9462 -1.2762
32968SOL    HW2 1537   6.389   9.234   9.836 -0.4476 -0.1739 -0.3420
32969SOL     OW 1538   4.297   7.096   8.689 -0.1788  0.2440 -0.2103
32969SOL    HW1 1539   4.365   7.028   8.695 -1.1882 -0.7897 -0.0631
32969SOL    HW2 1540   4.280   7.103   8.595  1.7939  2.2620 -0.4923
32970SOL     OW 1541   0.820   8.933   4.481 -0.0990  0.7043  0.6027
32970SOL    HW1 1542   0.762   9.002   4.450  1.3332  1.2090 -1.1407
32970SOL    HW2 1543   0.790   8.854   4.434  0.0807  0.7827  0.3532
32971SOL     OW 1544   6.312   1.667   3.140  0.1146  0.4918  0.2141
32971SOL    HW1 1545   6.271   1.627   3.217 -0.7922  0.9322 -0.0305
32971SOL    HW2 1546   6.253   1.739   3.116  1.3247  1.5142  0.2017
32972SOL     OW 1547   9.424   3.432   6.959  0.0642  0.3559 -0.0789
32972SOL    HW1 1548   9.438   3.458   7.050  1.7624  2.1243 -0.7663
32972SOL    HW2 1549   9.428   3.514   6.910 -0.4085 -0.5952 -1.8052
32973SOL     OW 1550   1.526   7.253   0.910 -0.7602 -0.0542 -0.1131
32973SOL    HW1 1551   1.525   7.349   0.907 -2.5744  0.0168  1.0245
32973SOL    HW2 1552   1.435   7.229   0.929 -0.2361 -1.9851  0.1524
32974SOL     OW 1553   1.133   2.206   0.213 -0.4557 -0.1244  0.3697
32974SOL    HW1 1554   1.124   2.123   0.167  0.2877  0.2677 -0.5291
32974SOL    HW2 1555   1.171   2.183   0.297 -1.1107 -0.7821  0.4935
32975SOL     OW 1556   7.060   4.412   1.716 -0.3670 -0.5907 -0.0688
32975SOL    HW1 1557   7.001   4.353   1.763  0.3625 -0.3178  1.2300
32975SOL    HW2 1558   7.021   4.420   1.629 -0.5112 -2.9498 -0.2952
32976SOL     OW 1559   4.950   8.830   6.931  0.2492 -0.5168  0.4561
32976SOL    HW1 1560   4.884   8.820   6.999 -0.9743  0.4951 -0.5288
32976SOL    HW2 1561   4.985   8.918   6.944 -0.8884  0.1812 -0.9274
32977SOL     OW 1562   9.896   7.900   5.645  0.0071 -0.3015  0.0027
32977SOL    HW1 1563   9.941   7.849   5.578 -0.7484 -0.9479 -0.0277
32977SOL    HW2 1564   9.833   7.839   5.684 -0.2792  0.3523  0.5887
32978SOL     OW 1565   2.751   3.338   7.468 -0.5080 -0.0119 -0.2354
32978SOL    HW1 1566   2.826   3.309   7.520  2.1842  2.3601 -2.4369
32978SOL    HW2 1567   2.701   3.395   7.527  0.6988  0.1467  0.6703
32979SOL     OW 1568   4.208   6.904   9.737 -0.0236  0.5109  0.3529
32979SOL    HW1 1569   4.176   6.848   9.666  0.9886  0.5059 -0.1213
32979SOL    HW2 1570   4.223   6.989   9.695 -0.8978  0.9585  0.9212
32980SOL     OW 1571   4.381   9.130   5.038  0.2936  0.1417  0.3384
32980SOL    HW1 1572   4.404   9.075   5.113 -0.9862 -1.4027 -0.3446
32980SOL    HW2 1573   4.405   9.077   4.962  0.3678  1.1473 -0.3595
32981SOL     OW 1574   2.096   4.267   3.023  0.0200  0.1178  0.1075
32981SOL    HW1 1575   2.140   4.263   3.108  1.4595 -0.8231 -0.6465
32981SOL    HW2 1576   2.086   4.361   3.006 -0.7582  0.3232  1.5199
32982SOL     OW 1577   5.110   4.667   2.530  0.3525 -0.5847  0.3904
32982SOL    HW1 1578   5.192   4.693   2.489  0.2508  0.0604  0.5791
32982SOL    HW2 1579   5.072   4.603   2.469 -0.5638  1.5170 -1.3959
32983SOL     OW 1580   3.287   5.937   0.988  0.2738  0.4852 -0.1034
32983SOL    HW1 1581   3.354   6.002   1.008 -1.0216  1.1153  2.7641
32983SOL    HW2 1582   3.271   5.893   1.072 -0.3570 -2.1506 -1.4951
32984SOL     OW 1583   5.484   8.447   9.799  0.0010  0.7999 -0.1894
32984SOL    HW1 1584   5.519   8.359   9.812 -0.5247  0.5379 -0.5121
32984SOL    HW2 1585   5.471   8.481   9.888  0.5759  0.7056 -0.0685
32985SOL     OW 1586   0.557   8.133   4.833  0.7173  0.3486  0.8163
32985SOL    HW1 1587   0.476   8.183   4.822  0.3075 -0.1537  1.5021
32985SOL    HW2 1588   0.626   8.200   4.833  0.2249  0.8662  1.1793
32986SOL     OW 1589   0.328   8.807   0.236 -0.6949  0.5753  0.5029
32986SOL    HW1 1590   0.307   8.875   0.173 -0.5459  0.2884  0.1382
32986SOL    HW2 1591   0.245   8.763   0.253 -0.3595 -0.8579 -1.2887
32987SOL     OW 1592   4.966   9.419   4.067  0.1685 -0.3498  0.2020
32987SOL    HW1 1593   4.953   9.493   4.007 -1.5676 -0.8128 -0.0292
32987SOL    HW2 1594   4.880   9.403   4.105  0.7906 -1.4516  1.2159
32988SOL     OW 1595   6.768   7.232   9.518 -0.1611 -0.0281  0.0935
32988SOL    HW1 1596   6.852   7.276   9.533  0.1473 -0.3872 -0.5342
32988SOL    HW2 1597   6.784   7.142   9.546  0.1775 -0.5071 -1.5584
32989SOL     OW 1598   8.949   6.958   2.007  0.1997 -0.1772  0.0019
32989SOL    HW1 1599   9.018   6.978   1.943 -0.3077  1.1007 -0.1912
32989SOL    HW2 1600   8.948   7.035   2.065 -2.9110  1.2613 -1.6788
32990SOL     OW 1601   4.953   0.874  10.320  0.0116  0.1300  0.1319
32990SOL    HW1 1602   4.915   0.922  10.393 -0.8102 -0.1010 -0.1341
32990SOL    HW2 1603   5.021   0.819  10.360  0.8234  1.3330  0.4567
32991SOL     OW 1604   7.613   9.933   8.352 -0.5060 -0.2286 -0.1281
32991SOL    HW1 1605   7.563   9.911   8.431  0.9468 -0.9066  0.6524
32991SOL    HW2 1606   7.697   9.890   8.365  0.0393  0.2962 -1.7172
32992SOL     OW 1607   3.566   6.645   3.216  0.1352 -0.1131 -0.0978
32992SOL    HW1 1608   3.609   6.581   3.272 -3.2410 -2.3919  0.1794
32992SOL    HW2 1609   3.577   6.611   3.127  1.3238  0.8868 -0.3594
32993SOL     OW 1610   0.093   1.425   6.779 -0.0860 -0.0894  0.2288
32993SOL    HW1 1611   0.090   1.344   6.829 -1.6637 -0.8504 -1.0261
32993SOL    HW2 1612   0.008   1.466   6.795  0.0131  0.4499 -0.5662
32994SOL     OW 1613   7.599   8.440  10.200  0.3017 -0.0114  0.6504
32994SOL    HW1 1614   7.670   8.503  10.192 -0.1235  0.7129  2.1514
32994SOL    HW2 1615   7.611   8.402  10.287  1.4231 -3.1488 -0.7294
32995SOL     OW 1616   3.176   2.135   4.447  0.1291 -0.6940 -0.5493
32995SOL    HW1 1617   3.128   2.055   4.427 -4.7062  1.8013 -0.4960
32995SOL    HW2 1618   3.157   2.152   4.539  1.2071  0.4322 -0.5105
32996SOL     OW 1619   3.057   4.052   9.003  0.2426  0.2394  0.0305
32996SOL    HW1 1620   2.990   4.108   8.963  0.4925  0.8328  0.4407
32996SOL    HW2 1621   3.026   4.037   9.092 -0.2641 -1.0043 -0.3280
32997SOL     OW 1622   4.840   6.832   0.223  0.0379  0.0864 -0.1429
32997SOL    HW1 1623   4.920   6.852   0.173  0.5034 -0.2934  0.4330
32997SOL    HW2 1624   4.834   6.737   0.221 -0.6846  0.1403 -0.6060
32998SOL     OW 1625   0.766   5.270   6.415  0.1016 -0.7919 -0.3018
32998SOL    HW1 1626   0.747   5.340   6.352  2.1369 -1.0462 -1.2902
32998SOL    HW2 1627   0.836   5.306   6.470 -0.9775 -0.9459  1.2103
32999SOL     OW 1628   5.006   4.601   6.767  0.4759  0.6409 -0.0339
32999SOL    HW1 1629   5.020   4.604   6.862 -1.4617  2.0120  0.2598
32999SOL    HW2 1630   5.080   4.650   6.730  0.9031  0.6377  0.7883
33000SOL     OW 1631   6.863   2.074   0.154  0.4120 -0.0236  0.1063
33000SOL    HW1 1632   6.823   1.995   0.119 -0.9704  0.5342  0.3664
33000SOL    HW2 1633   6.915   2.045   0.228 -2.5119 -0.4006  2.1458
33001SOL     OW 1634   3.859   7.000   7.729 -0.0014 -0.2795 -0.1400
33001SOL    HW1 1635   3.897   6.913   7.721  0.7430  0.1657 -1.8929
33001SOL    HW2 1636   3.765   6.984   7.738  0.3423 -1.3239  2.3833
33002SOL     OW 1637   7.480  10.035   2.587  0.5290  0.4099  0.3508
33002SOL    HW1 1638   7.492  10.011   2.495 -2.1415  2.3468 -0.6121
33002SOL    HW2 1639   7.537  10.110   2.600  0.8527  0.1814  0.2707
33003SOL     OW 1640   8.067   5.751   4.810  0.1271 -0.3415  0.4745
33003SOL    HW1 1641   8.010   5.794   4.747  0.6060  0.8485  0.8371
33003SOL    HW2 1642   8.008   5.716   4.876 -0.2066  0.7200  0.7474
33004SOL     OW 1643   3.161   9.829   2.990  0.1577 -0.5128 -0.3190
33004SOL    HW1 1644   3.102   9.904   2.993 -0.1300 -0.7001 -1.1558
33004SOL    HW2 1645   3.170   9.809   2.897  1.2662 -0.7043 -0.1899
33005SOL     OW 1646   9.439   7.329   9.800 -0.4600 -0.1871  0.2425
33005SOL    HW1 1647   9.533   7.345   9.788 -0.2074  0.0720  2.2789
33005SOL    HW2 1648   9.403   7.414   9.826 -1.9680  0.6139 -3.7452
33006SOL     OW 1649   1.456   9.176   7.290  0.1378 -0.0488 -0.4888
33006SOL    HW1 1650   1.426   9.145   7.375  1.2124 -1.6541 -0.6478
33006SOL    HW2 1651   1.531   9.233   7.309  1.6841 -2.0181 -0.3873
33007SOL     OW 1652   0.647   6.994   2.392  0.1906 -0.1407  0.1531
33007SOL    HW1 1653   0.609   7.040   2.318 -1.2024 -2.2780 -0.5657
33007SOL    HW2 1654   0.663   7.062   2.458  0.2659  1.6130 -1.6054
33008SOL     OW 1655   8.076   7.923   6.712 -0.4433 -0.1872  0.4126
33008SOL    HW1 1656   8.031   7.981   6.650 -0.9357  0.4311  1.3195
33008SOL    HW2 1657   8.078   7.838   6.668 -2.3038 -0.1829  0.2134
33009SOL     OW 1658   5.892   2.464   6.907 -0.4652 -0.1479 -0.4825
33009SOL    HW1 1659   5.818   2.511   6.946 -0.0097  1.0753 -1.0237
33009SOL    HW2 1660   5.893   2.494   6.815  1.5688  1.0499 -0.1469
33010SOL     OW 1661   4.150   1.433   6.151 -0.1666  0.2907  0.8470
33010SOL    HW1 1662   4.167   1.402   6.240 -0.1275 -1.0223  0.4095
33010SOL    HW2 1663   4.192   1.368   6.095 -2.3490 -0.3311 -0.1734
33011SOL     OW 1664   8.963   2.620   6.491 -0.3059 -0.3210 -0.3068
33011SOL    HW1 1665   8.883   2.641   6.539  0.5062  1.6257  0.2768
33011SOL    HW2 1666   8.937   2.622   6.399 -0.9659  0.1351 -0.1182
33012SOL     OW 1667   7.900   0.547   2.817 -0.5539 -0.2913 -0.3477
33012SOL    HW1 1668   7.967   0.615   2.808 -1.7078  0.7246 -1.6924
33012SOL    HW2 1669   7.922   0.482   2.750 -1.5936  0.6820 -1.6844
33013SOL     OW 1670   2.267   2.979   7.689 -0.0444 -0.0955  0.0067
33013SOL    HW1 1671   2.338   2.966   7.627 -1.3295 -0.8889 -1.3751
33013SOL    HW2 1672   2.231   2.892   7.703 -0.4743  0.2285  1.0187
33014SOL     OW 1673   2.045   4.610   7.101 -0.1730 -0.0458 -0.0525
33014SOL    HW1 1674   1.967   4.603   7.045  1.4892  0.0651 -2.5069
33014SOL    HW2 1675   2.034   4.694   7.145 -1.0702  0.3417 -0.9588
33015SOL     OW 1676   2.161   0.212   4.328  0.2331 -0.3128 -0.1102
33015SOL    HW1 1677   2.177   0.151   4.400  1.1729  1.1931  1.0237
33015SOL    HW2 1678   2.068   0.233   4.335  0.3964  0.1333  0.9600
33016SOL     OW 1679   7.254   4.829   7.456  0.0645  0.0161 -0.0649
33016SOL    HW1 1680   7.199   4.827   7.534 -3.3011  0.0423 -2.2509
33016SOL    HW2 1681   7.343   4.815   7.489 -1.4142 -2.2600  3.5083
33017SOL     OW 1682   6.230   1.702   2.421  0.0573 -0.0647  0.0030
33017SOL    HW1 1683   6.241   1.682   2.328  2.3427  0.2856  0.1441
33017SOL    HW2 1684   6.310   1.748   2.446 -0.0226 -1.0568  2.3955
33018SOL     OW 1685   2.599   3.373   7.028 -0.2047  0.6332 -0.3410
33018SOL    HW1 1686   2.585   3.453   6.976  1.0272  0.2915 -1.2315
33018SOL    HW2 1687   2.681   3.389   7.075 -0.2993  0.1525 -0.0057
33019SOL     OW 1688   8.968   4.236   3.167  0.0856  0.5424  0.2364
33019SOL    HW1 1689   8.886   4.197   3.197  0.2546  0.3778  0.4761
33019SOL    HW2 1690   8.940   4.313   3.116 -0.2973 -0.5452 -1.2541
33020SOL     OW 1691   9.606   8.588   5.686  0.2383  0.4595  0.0460
33020SOL    HW1 1692   9.595   8.590   5.781 -0.7972  2.6732 -0.0644
33020SOL    HW2 1693   9.560   8.509   5.658 -1.2074  0.8512  1.2101
33021SOL     OW 1694   8.414   4.276   7.761 -0.6880  0.0556 -0.1153
33021SOL    HW1 1695   8.385   4.258   7.850 -1.0997  0.9963 -0.0465
33021SOL    HW2 1696   8.510   4.282   7.767 -0.6790 -0.3478  0.1693
33022SOL     OW 1697   6.071   1.139   9.420 -0.5987  0.3733 -0.1823
33022SOL    HW1 1698   6.004   1.097   9.474  0.6695 -1.7081 -0.1392
33022SOL    HW2 1699   6.091   1.075   9.352  0.3162  1.5541 -1.0663
33023SOL     OW 1700   9.663   5.018   3.879 -0.1685 -0.0714  0.5178
33023SOL    HW1 1701   9.682   4.991   3.789  0.4962  1.3218  0.2076
33023SOL    HW2 1702   9.594   5.083   3.871  0.9456  1.2100  0.8217
33024SOL     OW 1703   3.809   7.698   4.065  0.0703 -0.2461  0.2562
33024SOL    HW1 1704   3.770   7.700   3.977 -0.1984 -0.5504  0.3661
33024SOL    HW2 1705   3.774   7.619   4.105  0.0062  0.0137  0.7245
33025SOL     OW 1706   3.721   9.629   3.574 -0.7071 -0.6509  0.2523
33025SOL    HW1 1707   3.731   9.628   3.478 -0.7649 -0.4600  0.2453
33025SOL    HW2 1708   3.809   9.643   3.607 -0.4536 -2.0703  0.2618
33026SOL     OW 1709   7.131   0.031  10.197  0.4024  0.1197 -0.3545
33026SOL    HW1 1710   7.143   0.031  10.292 -2.1267 -1.0650  0.0424
33026SOL    HW2 1711   7.152  -0.058  10.169  1.1322  0.4599 -0.9223
33027SOL     OW 1712   5.557   0.121   2.272  0.1038 -0.8507 -0.2451
33027SOL    HW1 1713   5.545   0.155   2.183  1.2260 -0.4226 -0.2530
33027SOL    HW2 1714   5.609   0.188   2.316 -1.7002 -0.3330  1.2242
33028SOL     OW 1715   7.067   1.885   9.586 -0.3180  0.0618  0.4961
33028SOL    HW1 1716   7.071   1.867   9.680 -1.7646  0.9974  0.7701
33028SOL    HW2 1717   6.990   1.837   9.556  0.7810 -1.1576 -0.4630
33029SOL     OW 1718   9.937   7.101   9.229 -0.3759  0.4556 -0.1606
33029SOL    HW1 1719   9.928   7.186   9.271 -0.0797  1.5443 -2.1973
33029SOL    HW2 1720   9.998   7.116   9.157  0.1527 -1.6325 -0.2176
33030SOL     OW 1721   5.001   5.844   5.638 -0.2125 -0.5252 -0.1217
33030SOL    HW1 1722   4.923   5.812   5.683  0.9212 -2.9024  0.3326
33030SOL    HW2 1723   4.989   5.939   5.633 -2.3156 -0.6358  1.4275
33031SOL     OW 1724   7.076   2.545   9.102 -0.3654  0.2239 -0.4218
33031SOL    HW1 1725   7.029   2.587   9.031 -2.1985 -1.0205 -0.0284
33031SOL    HW2 1726   7.045   2.455   9.102  2.5805 -0.9165 -0.5397
33032SOL     OW 1727   2.469   5.194   8.668 -0.6355 -0.2668 -0.0615
33032SOL    HW1 1728   2.441   5.105   8.690 -0.4882 -0.1299  0.7279
33032SOL    HW2 1729   2.565   5.189   8.669 -0.6283 -0.2541 -0.6823
33033SOL     OW 1730   4.633   4.573   5.688  0.0628  0.0452 -0.2002
33033SOL    HW1 1731   4.587   4.630   5.751 -1.3575 -1.5921  0.3455
33033SOL    HW2 1732   4.688   4.633   5.637  1.8620  1.4110  3.0201
33034SOL     OW 1733   1.245   8.036   7.872  0.3454 -0.3193  0.4835
33034SOL    HW1 1734   1.208   8.098   7.934  0.6743 -0.4580  0.8223
33034SOL    HW2 1735   1.170   7.988   7.838 -0.0577  1.1002 -0.7261
33035SOL     OW 1736   6.645   0.415   6.809 -0.3984  0.3230  0.6420
33035SOL    HW1 1737   6.635   0.383   6.899  0.4819 -2.3075 -0.1186
33035SOL    HW2 1738   6.578   0.368   6.759 -0.2507  1.0494 -0.2558
33036SOL     OW 1739   7.366   6.282   7.516  0.1467 -0.5665 -0.7249
33036SOL    HW1 1740   7.454   6.264   7.549 -0.2707  0.0150  0.7960
33036SOL    HW2 1741   7.309   6.232   7.574 -0.7502  2.0282  0.8031
33037SOL     OW 1742   0.849   8.668   0.960 -0.6958 -0.0465 -0.2635
33037SOL    HW1 1743   0.901   8.635   0.887 -2.0358  1.4132 -1.9653
33037SOL    HW2 1744   0.759   8.646   0.937 -1.4390  2.9003 -0.5320
33038SOL     OW 1745   1.553   2.306   3.486 -0.4530 -0.0458  0.0343
33038SOL    HW1 1746   1.590   2.219   3.474 -0.8436 -0.1211 -0.6969
33038SOL    HW2 1747   1.503   2.301   3.567 -1.8289 -0.9827 -0.8443
33039SOL     OW 1748   0.710   8.423   3.571  0.0178 -0.1913 -0.2401
33039SOL    HW1 1749   0.650   8.380   3.632 -1.5423 -1.1083 -2.3194
33039SOL    HW2 1750   0.780   8.359   3.558 -0.7947 -0.9243 -1.0915
33040SOL     OW 1751   3.420   1.085   5.882 -0.4782 -0.3244  0.6608
33040SOL    HW1 1752   3.443   1.003   5.927 -0.8917 -0.3056  0.9021
33040SOL    HW2 1753   3.325   1.083   5.874 -0.3272 -1.1405 -1.7524
33041SOL     OW 1754   1.260   5.920   8.339 -0.0718  0.4364  0.0620
33041SOL    HW1 1755   1.317   5.968   8.280  1.8309 -0.1436  1.3177
33041SOL    HW2 1756   1.302   5.929   8.425 -2.0693  0.2430  1.1044
33042SOL     OW 1757   6.136   2.966   9.756  0.9884 -0.1309 -0.0754
33042SOL    HW1 1758   6.134   2.971   9.661 -0.5124 -2.6043 -0.2676
33042SOL    HW2 1759   6.044   2.962   9.782  1.3760 -1.7096  1.2523
33043SOL     OW 1760   5.977   8.567   4.847 -0.1759  0.3329  0.1262
33043SOL    HW1 1761   5.993   8.647   4.797  2.0448 -0.5668 -0.7699
33043SOL    HW2 1762   5.915   8.516   4.795 -1.6811  1.4557  0.7550
33044SOL     OW 1763   1.811   5.004   9.861  0.3752 -0.6256 -0.0797
33044SOL    HW1 1764   1.858   5.087   9.857 -0.2047 -0.2668  0.3343
33044SOL    HW2 1765   1.860   4.952   9.925  0.6177 -0.5175 -0.1770
33045SOL     OW 1766   5.311   8.535   5.661 -0.1386 -0.5118 -0.0288
33045SOL    HW1 1767   5.271   8.571   5.582  0.8233  2.1309  0.5604
33045SOL    HW2 1768   5.237   8.520   5.720 -0.8313 -2.1825 -1.2621
33046SOL     OW 1769   5.202   0.319   8.062  0.6406  0.0645  0.1342
33046SOL    HW1 1770   5.231   0.234   8.097 -0.7951 -1.1112 -1.4134
33046SOL    HW2 1771   5.119   0.301   8.019  0.0859  2.3685  0.1151
33047SOL     OW 1772   2.313   6.535   2.802  0.1711 -0.3333  0.0793
33047SOL    HW1 1773   2.397   6.507   2.838  0.1096  0.4413  0.8421
33047SOL    HW2 1774   2.261   6.454   2.799 -0.2033 -0.2600  2.7956
33048SOL     OW 1775   6.614   8.749   1.389  0.1124  0.2528 -0.5957
33048SOL    HW1 1776   6.664   8.793   1.321  0.3427  0.7364 -0.1248
33048SOL    HW2 1777   6.549   8.815   1.417 -0.4311 -0.1788 -0.8236
33049SOL     OW 1778   0.598   1.505  10.193 -0.0824  0.0466 -0.1944
33049SOL    HW1 1779   0.687   1.495  10.160 -1.2510 -0.5334 -3.5830
33049SOL    HW2 1780   0.560   1.574  10.139 -1.4685  0.9011  1.7695
33050SOL     OW 1781   7.106   3.045   1.834  0.4307 -0.0430  0.4445
33050SOL    HW1 1782   7.153   2.975   1.879 -0.1798 -0.6481  0.1671
33050SOL    HW2 1783   7.163   3.070   1.761  0.3946 -0.6693  0.1919
33051SOL     OW 1784   6.658   1.583   3.880  0.2751  0.0544  0.2660
33051SOL    HW1 1785   6.664   1.666   3.927  0.0400 -0.3090  0.9494
33051SOL    HW2 1786   6.573   1.587   3.835 -0.3028 -0.3206  1.2963
33052SOL     OW 1787   2.756   1.208   3.817  0.1385 -1.0518  0.6516
33052SOL    HW1 1788   2.677   1.185   3.768  0.5541 -2.1965  0.4777
33052SOL    HW2 1789   2.732   1.287   3.865 -0.8256 -0.8770 -0.0758
33053SOL     OW 1790   3.272   2.707   6.567 -0.3716  0.0203  0.5033
33053SOL    HW1 1791   3.197   2.744   6.611 -2.2503 -1.2076 -1.4410
33053SOL    HW2 1792   3.343   2.769   6.582 -2.8075  3.4850 -1.0291
33054SOL     OW 1793   2.914   6.298   7.460 -0.2892 -0.2956  0.0233
33054SOL    HW1 1794   2.862   6.219   7.469  0.0957 -0.7271 -1.2990
33054SOL    HW2 1795   2.997   6.269   7.421  0.7631  0.4430  1.5727
33055SOL     OW 1796   3.621   0.080   9.155  0.0223  0.5122 -0.0269
33055SOL    HW1 1797   3.552   0.024   9.119 -0.0892  0.4125  0.3403
33055SOL    HW2 1798   3.595   0.169   9.130  0.7849  0.3368 -1.6133
33056SOL     OW 1799   5.977   7.508   9.729  0.0937  0.1649  0.4185
33056SOL    HW1 1800   5.925   7.455   9.669  0.5731 -0.5611  0.6198
33056SOL    HW2 1801   6.002   7.585   9.678 -0.6207  0.2087  0.1205
33057SOL     OW 1802   6.409   6.285   9.181 -0.3440  0.3033 -0.2525
33057SOL    HW1 1803   6.359   6.260   9.259  0.8067 -1.4995 -0.0335
33057SOL    HW2 1804   6.500   6.270   9.206  0.0650  0.0342 -1.8276
33058SOL     OW 1805   7.720   8.643   3.197  0.0286 -0.0306 -0.0580
33058SOL    HW1 1806   7.644   8.693   3.224  0.2311  0.2431  0.0066
33058SOL    HW2 1807   7.693   8.551   3.206  0.0638  0.0571  0.9782
33059SOL     OW 1808   9.797   8.084   1.895 -0.2656 -0.2793  0.0867
33059SOL    HW1 1809   9.770   8.161   1.845  0.8493  0.6815  0.8964
33059SOL    HW2 1810   9.884   8.063   1.863 -0.5935 -1.2815 -0.1870
33060SOL     OW 1811   8.754   2.694   8.326  0.2611  0.6009 -0.2483
33060SOL    HW1 1812   8.831   2.648   8.290 -1.2556 -0.1507 -2.8609
33060SOL    HW2 1813   8.725   2.751   8.254 -1.1455  1.4825  0.9656
33061SOL     OW 1814  10.187   5.551   4.174  0.2383 -0.2567 -0.7571
33061SOL    HW1 1815  10.124   5.481   4.154 -1.4289  1.2094 -0.8582
33061SOL    HW2 1816  10.260   5.506   4.217 -1.8347 -1.7798  1.3802
33062SOL     OW 1817   1.933   9.906  10.023 -0.0491 -0.4026  0.3797
33062SOL    HW1 1818   1.939   9.912  10.118 -1.6712 -1.6210  0.5933
33062SOL    HW2 1819   1.980   9.826  10.001 -1.1525 -1.0655  0.3638
33063SOL     OW 1820   3.442   2.738   8.111 -0.1886  0.4086 -0.3638
33063SOL    HW1 1821   3.429   2.819   8.062  0.8222  0.7223 -0.1252
33063SOL    HW2 1822   3.481   2.677   8.048  0.1792  0.4916 -0.2156
33064SOL     OW 1823   1.932   1.035   9.994 -0.1337  0.4740  0.2150
33064SOL    HW1 1824   2.021   1.040  10.031  0.0756  0.6621 -0.3004
33064SOL    HW2 1825   1.942   1.065   9.904 -1.1166  2.7318  0.7958
33065SOL     OW 1826   8.111   5.382   5.967  0.3076  0.1090  0.0972
33065SOL    HW1 1827   8.199   5.385   5.931  0.1172 -0.5989 -0.4476
33065SOL    HW2 1828   8.106   5.299   6.013 -1.0899 -1.4587 -2.6446
33066SOL     OW 1829   4.167   5.670   4.976  0.7753  0.3186  0.0867
33066SOL    HW1 1830   4.116   5.748   5.000  0.6981  0.6877 -1.2124
33066SOL    HW2 1831   4.258   5.699   4.980  0.7398  0.5500 -0.5753
33067SOL     OW 1832   3.919   8.502   0.601 -0.3006 -0.2824 -0.6539
33067SOL    HW1 1833   3.882   8.495   0.689  1.1936 -1.0477 -0.0600
33067SOL    HW2 1834   3.956   8.591   0.598 -1.3874  0.1761 -0.9492
33068SOL     OW 1835   5.313   0.464   0.996  0.2771 -0.3948  0.3645
33068SOL    HW1 1836   5.388   0.424   1.040  1.7020  1.6888 -0.0474
33068SOL    HW2 1837   5.351   0.509   0.921 -1.6429 -0.7384 -0.8846
33069SOL     OW 1838   6.901  10.258   0.473  0.1724  0.3382 -0.3395
33069SOL    HW1 1839   6.824  10.210   0.443 -0.1398  1.1056 -0.8184
33069SOL    HW2 1840   6.867  10.319   0.539  0.0349  1.8454 -1.7241
33070SOL     OW 1841   2.722   2.943   2.122 -0.9151 -0.2623 -0.1557
33070SOL    HW1 1842   2.815   2.922   2.128 -0.5119  1.1613 -0.9615
33070SOL    HW2 1843   2.697   2.966   2.211  0.6373  3.5942 -0.5241
33071SOL     OW 1844   8.648   6.200   6.719  0.3874 -0.1010  0.0725
33071SOL    HW1 1845   8.674   6.291   6.703  0.2439  0.1183  1.0564
33071SOL    HW2 1846   8.727   6.149   6.701  0.7848  0.3260  0.5781
33072SOL     OW 1847   9.954   0.711   0.954  0.1112 -0.0409 -0.1628
33072SOL    HW1 1848   9.996   0.703   0.868 -0.9444 -1.3406 -0.6058
33072SOL    HW2 1849   9.992   0.639   1.005 -0.1688 -0.0426  0.0438
33073SOL     OW 1850   1.784   1.690   4.900 -0.3509 -0.0564 -0.3563
33073SOL    HW1 1851   1.826   1.755   4.845 -0.0534  0.8671  0.9053
33073SOL    HW2 1852   1.833   1.609   4.885  0.5122  0.4943 -0.5052
33074SOL     OW 1853   2.570   1.833  10.141  0.1085 -0.1845  0.1533
33074SOL    HW1 1854   2.579   1.791  10.056  1.3368  1.2898 -0.5080
33074SOL    HW2 1855   2.482   1.869  10.141  0.3023  0.3253 -0.7769
33075SOL     OW 1856   0.775   8.669   2.143 -0.6069  0.2577 -0.2454
33075SOL    HW1 1857   0.738   8.721   2.214 -1.0929  0.2504 -0.4916
33075SOL    HW2 1858   0.783   8.731   2.070 -0.6655  0.1221 -0.3676
33076SOL     OW 1859   5.023   6.320   0.324  0.0905  0.0676  0.7375
33076SOL    HW1 1860   5.050   6.234   0.291  0.1409  0.2394  0.3224
33076SOL    HW2 1861   4.938   6.304   0.365 -0.5878  0.0672 -0.5989
33077SOL     OW 1862   3.775   0.864   7.494 -0.2912 -0.0541 -0.4028
33077SOL    HW1 1863   3.686   0.898   7.481  0.1639  1.2179 -0.3256
33077SOL    HW2 1864   3.794   0.882   7.586  1.5540  3.5317 -1.3308
33078SOL     OW 1865   7.748   2.258   5.091  0.4437 -0.0175  1.0158
33078SOL    HW1 1866   7.690   2.267   5.166  0.4695 -0.6540  1.1201
33078SOL    HW2 1867   7.790   2.172   5.103  0.4841 -0.1029  0.3062
33079SOL     OW 1868   3.463   1.583   3.661 -0.1154  0.1488 -0.5199
33079SOL    HW1 1869   3.372   1.612   3.667 -0.1201  0.1325 -0.5142
33079SOL    HW2 1870   3.474   1.521   3.734  0.3716  1.4262  0.5409
33080SOL     OW 1871   4.848   0.554   0.181  0.1909  0.2013 -0.2652
33080SOL    HW1 1872   4.895   0.510   0.251 -2.7869 -0.8531  1.2445
33080SOL    HW2 1873   4.880   0.512   0.101  1.4848 -0.7208  0.6917
33081SOL     OW 1874   6.867   0.051   2.858 -0.1468 -0.4373  0.3560
33081SOL    HW1 1875   6.952   0.091   2.878  1.0610 -1.5841 -2.0693
33081SOL    HW2 1876   6.826   0.112   2.797  0.4099 -1.3852 -1.0194
33082SOL     OW 1877   8.214   6.639   3.316 -0.6597  0.2640  0.5454
33082SOL    HW1 1878   8.284   6.639   3.251 -0.9577 -0.0286  0.2195
33082SOL    HW2 1879   8.144   6.588   3.276 -1.0593  0.5462  0.8712
33083SOL     OW 1880   9.719   5.808   6.355  0.0815 -0.1492 -0.5560
33083SOL    HW1 1881   9.761   5.846   6.277  0.4891  2.4295  0.8173
33083SOL    HW2 1882   9.689   5.884   6.405 -0.5119 -1.7445  1.6364
33084SOL     OW 1883   3.687   0.937   1.595 -0.4993  0.4070  0.5837
33084SOL    HW1 1884   3.734   1.017   1.617 -0.2726  0.4289  0.0380
33084SOL    HW2 1885   3.750   0.886   1.543 -1.0701  0.4236 -0.1376
33085SOL     OW 1886   1.549   3.055   3.759 -0.2242  0.4787 -0.2837
33085SOL    HW1 1887   1.641   3.029   3.753  0.1229  0.5494  3.1446
33085SOL    HW2 1888   1.501   2.973   3.743  0.4528  0.1695 -0.8159
33086SOL     OW 1889   5.173   5.834   3.291 -0.4629  0.4177  0.0772
33086SOL    HW1 1890   5.183   5.747   3.330  0.9362 -0.1078 -1.3197
33086SOL    HW2 1891   5.153   5.892   3.364  4.9880  0.0733  2.2515
33087SOL     OW 1892   6.431   3.739   5.403  0.8207 -0.1651 -0.0286
33087SOL    HW1 1893   6.483   3.662   5.382 -0.2392 -0.6612 -0.8952
33087SOL    HW2 1894   6.354   3.705   5.449  0.7921  0.4744  0.4182
33088SOL     OW 1895   4.864   5.202   9.853 -0.0554  0.1535  0.1649
33088SOL    HW1 1896   4.928   5.273   9.856  1.7707 -1.2022 -2.4309
33088SOL    HW2 1897   4.909   5.127   9.893 -0.8798 -0.2763  0.3223
33089SOL     OW 1898   9.620   2.989   7.810 -0.3092  0.7733  0.7300
33089SOL    HW1 1899   9.577   2.939   7.741  0.3426  0.3536  0.6148
33089SOL    HW2 1900   9.548   3.021   7.865 -0.7630  0.0998  0.5400
33090SOL     OW 1901   8.224   7.335   7.929 -0.2246 -0.6302  0.0461
33090SOL    HW1 1902   8.165   7.395   7.973 -0.5564 -1.1836  0.3757
33090SOL    HW2 1903   8.219   7.359   7.837 -0.4043 -0.1988  0.1667
33091SOL     OW 1904   0.381   5.888   2.634 -0.1158 -0.3536 -0.8985
33091SOL    HW1 1905   0.379   5.961   2.571  0.0076  1.9815  1.6169
33091SOL    HW2 1906   0.472   5.885   2.663 -0.5669 -0.0361  0.6066
33092SOL     OW 1907   7.539   9.312   3.477 -0.1479  0.5806 -0.2883
33092SOL    HW1 1908   7.528   9.270   3.392  0.0914  1.6018 -0.8339
33092SOL    HW2 1909   7.548   9.406   3.458 -2.9415  1.2231  1.0193
33093SOL     OW 1910   4.381   8.683   6.853 -0.0938 -0.3377  0.3422
33093SOL    HW1 1911   4.424   8.609   6.809  0.2874 -0.6655  1.2340
33093SOL    HW2 1912   4.288   8.667   6.839  0.0046 -0.6817  0.0405
33094SOL     OW 1913  10.178   5.029   5.577  0.7081  0.2910  0.0172
33094SOL    HW1 1914  10.115   4.973   5.530  0.5375 -0.9829  1.6790
33094SOL    HW2 1915  10.206   5.093   5.511 -0.6548 -0.4698 -1.3856
33095SOL     OW 1916   6.803   8.228   6.107  0.2263 -0.0120  0.4934
33095SOL    HW1 1917   6.708   8.231   6.102  0.2526 -0.3921 -0.2698
33095SOL    HW2 1918   6.832   8.217   6.017  0.9894 -0.0917  0.7420
33096SOL     OW 1919   5.224   9.164   5.742  0.1990  0.0103  0.2785
33096SOL    HW1 1920   5.158   9.098   5.721  1.0771 -1.4697  1.9070
33096SOL    HW2 1921   5.279   9.169   5.664 -0.5869 -0.2691 -0.3077
33097SOL     OW 1922   9.000   3.974   5.763 -0.1691 -0.4150 -0.5547
33097SOL    HW1 1923   8.934   4.042   5.746  1.1360  0.9147 -0.4810
33097SOL    HW2 1924   8.979   3.942   5.851  0.2431  1.1765  0.1579
33098SOL     OW 1925   6.797   5.665   9.395  0.0415  0.5234 -0.2342
33098SOL    HW1 1926   6.770   5.752   9.425  0.0516  0.1138  1.0542
33098SOL    HW2 1927   6.734   5.643   9.327  0.4316  1.7943 -1.0477
33099SOL     OW 1928   5.938   2.787   5.354 -0.1907 -0.4330  0.1118
33099SOL    HW1 1929   5.901   2.863   5.309 -0.4564  0.2494  1.4356
33099SOL    HW2 1930   5.864   2.727   5.364  0.3925 -1.7730 -2.6027
33100SOL     OW 1931   3.173   3.463   5.646  0.1324  0.3999  0.5612
33100SOL    HW1 1932   3.192   3.382   5.599  0.0460  0.1704  0.9204
33100SOL    HW2 1933   3.254   3.513   5.641  0.7115 -0.3871  1.7075
33101SOL     OW 1934   9.671   7.021   2.259  0.2408 -0.0904  0.4709
33101SOL    HW1 1935   9.670   7.116   2.268  0.0560 -0.0702  0.2209
33101SOL    HW2 1936   9.590   6.992   2.300  0.5459 -0.1833  1.0226
33102SOL     OW 1937   0.614   9.945   0.795  0.1773  0.2546 -0.3600
33102SOL    HW1 1938   0.540   9.890   0.769  0.4655 -1.1137  1.4950
33102SOL    HW2 1939   0.675   9.940   0.722 -0.1885 -1.2246 -0.5910
33103SOL     OW 1940   9.504   2.117   3.231 -0.2292 -0.2423  0.0308
33103SOL    HW1 1941   9.595   2.124   3.258 -0.7393  0.9973  1.6193
33103SOL    HW2 1942   9.458   2.181   3.286 -1.7479  0.6832 -2.1718
33104SOL     OW 1943   5.700   3.637   1.256 -0.2054 -0.5585 -0.1568
33104SOL    HW1 1944   5.744   3.616   1.174 -3.5833 -0.3606 -2.2018
33104SOL    HW2 1945   5.656   3.555   1.282 -0.0924 -0.3170  0.8527
33105SOL     OW 1946   3.323   9.994   1.957 -0.1693 -0.7503 -0.0478
33105SOL    HW1 1947   3.363  10.040   1.882 -1.1524 -1.0108 -0.7514
33105SOL    HW2 1948   3.390   9.932   1.986  0.8083  0.4234  0.2877
33106SOL     OW 1949   6.965   6.954  10.274 -0.0642 -0.6900  0.1773
33106SOL    HW1 1950   7.054   6.922  10.290  0.4805  1.0706  0.9223
33106SOL    HW2 1951   6.939   6.993  10.357 -0.8411  0.3570 -0.5380
33107SOL     OW 1952   0.095   9.878   9.955 -0.3661  0.1033  0.5468
33107SOL    HW1 1953   0.106   9.968   9.924  0.0397  0.1109  0.7052
33107SOL    HW2 1954   0.031   9.886  10.026  0.5997  0.4620  1.4059
33108SOL     OW 1955   2.254   5.566   6.884  0.6688 -0.3085  0.4088
33108SOL    HW1 1956   2.254   5.512   6.963  0.2682  0.3083  0.8370
33108SOL    HW2 1957   2.175   5.540   6.837 -0.1898  0.7558  1.2199
33109SOL     OW 1958   3.483   1.114   3.520 -0.0060  0.1270  0.7211
33109SOL    HW1 1959   3.531   1.053   3.463  1.4212  0.3426  1.6360
33109SOL    HW2 1960   3.550   1.175   3.551 -1.7422  4.1353 -2.4960
33110SOL     OW 1961   2.674   1.202   6.949 -0.4571 -0.6663  0.2938
33110SOL    HW1 1962   2.670   1.167   6.860 -0.9549 -0.6003  0.2887
33110SOL    HW2 1963   2.637   1.132   7.003 -1.0643 -0.3194  0.3335
33111SOL     OW 1964   2.049   9.594   0.422  0.2363 -0.1389 -0.0307
33111SOL    HW1 1965   1.971   9.573   0.370  0.6488 -1.1823 -0.2627
33111SOL    HW2 1966   2.016   9.608   0.510 -0.4605  1.5139 -0.4998
33112SOL     OW 1967   6.780   6.716   7.212 -0.0538  1.0740  0.1312
33112SOL    HW1 1968   6.799   6.631   7.254  1.0268  2.0212  1.6589
33112SOL    HW2 1969   6.685   6.718   7.204 -0.2278  0.4244  1.6923
33113SOL     OW 1970   4.200   8.598   9.656 -0.2319 -0.1518  0.2816
33113SOL    HW1 1971   4.197   8.537   9.583  0.4836  1.1741 -0.8892
33113SOL    HW2 1972   4.130   8.661   9.638  0.4274  0.6133  0.3396
33114SOL     OW 1973   4.848   3.893   5.383  0.2497 -0.0955 -0.3233
33114SOL    HW1 1974   4.867   3.799   5.384 -0.0084 -0.2181 -2.2448
33114SOL    HW2 1975   4.760   3.900   5.346  0.6373  0.9212 -1.1182
33115SOL     OW 1976   9.867   5.562   8.668  0.0345 -0.0545  0.1096
33115SOL    HW1 1977   9.824   5.508   8.601  0.5277 -0.8544  0.4165
33115SOL    HW2 1978   9.837   5.524   8.751  0.7891 -0.1938  0.3260
33116SOL     OW 1979   9.768   0.986   6.771 -0.6000 -0.0917  0.1886
33116SOL    HW1 1980   9.807   0.974   6.684  2.0243  2.0610  0.9275
33116SOL    HW2 1981   9.807   0.916   6.824 -0.1210  0.1900  0.2141
33117SOL     OW 1982   1.364   1.997   7.120 -0.0334  0.0785  0.1934
33117SOL    HW1 1983   1.413   1.957   7.048  1.1966 -0.0735  1.0722
33117SOL    HW2 1984   1.365   2.091   7.101 -0.2764 -0.0151 -0.3027
33118SOL     OW 1985   5.158   8.573   4.608  0.2240  0.2955  0.1718
33118SOL    HW1 1986   5.193   8.486   4.625 -0.6605 -0.0817  0.1074
33118SOL    HW2 1987   5.232   8.632   4.623  1.2246 -0.5677 -1.1520
33119SOL     OW 1988   3.775   0.875   0.665  0.7362  0.3865 -0.0081
33119SOL    HW1 1989   3.833   0.911   0.598  1.4455 -2.5581 -1.1376
33119SOL    HW2 1990   3.803   0.784   0.674 -2.6125 -0.7314  0.6279
33120SOL     OW 1991   3.626   5.463   4.753  0.2866  0.5418 -0.0332
33120SOL    HW1 1992   3.556   5.432   4.695 -0.3243  2.0030 -0.1308
33120SOL    HW2 1993   3.705   5.455   4.701 -0.0415  0.4159 -0.5251
33121SOL     OW 1994   1.460  10.318   5.474  0.0339  0.2525  0.1941
33121SOL    HW1 1995   1.445  10.333   5.568 -1.0088 -1.1018  0.2835
33121SOL    HW2 1996   1.483  10.404   5.439 -1.2464  1.1385  1.3965
33122SOL     OW 1997   8.896   2.382   2.310 -0.3477  0.1677  0.1448
33122SOL    HW1 1998   8.965   2.414   2.368 -1.0234  1.4167  0.2977
33122SOL    HW2 1999   8.885   2.451   2.245 -1.9852  0.3564  0.5821
33123SOL     OW 2000   2.512   1.643   0.484  0.1875  0.0276 -0.0926
33123SOL    HW1 2001   2.438   1.676   0.536  0.0437 -0.9534  0.3584
33123SOL    HW2 2002   2.510   1.549   0.497  0.1693 -0.2549 -1.8943
33124SOL     OW 2003   9.899   5.781   4.867 -0.2824 -0.0142 -0.5405
33124SOL    HW1 2004   9.881   5.737   4.784 -1.1701 -0.8350  0.0604
33124SOL    HW2 2005   9.957   5.721   4.914 -1.1887 -0.3815  0.1312
33125SOL     OW 2006   0.865   3.551  10.051 -0.1586 -0.0375  0.1584
33125SOL    HW1 2007   0.823   3.480  10.001  0.1560  1.9924 -3.3291
33125SOL    HW2 2008   0.917   3.506  10.117 -1.7902 -2.9411 -0.3561
33126SOL     OW 2009   8.096   3.132   8.126 -0.5836  0.2932 -0.4579
33126SOL    HW1 2010   8.175   3.184   8.117 -0.0001 -0.3289  0.8749
33126SOL    HW2 2011   8.043   3.156   8.050  0.3286  1.6599 -0.6960
33127SOL     OW 2012   0.719   9.920   8.131  0.5018  0.5605  0.0022
33127SOL    HW1 2013   0.639   9.966   8.107 -1.3513 -2.2134  0.3723
33127SOL    HW2 2014   0.747   9.877   8.050  0.6985  0.2619  0.2256
33128SOL     OW 2015   8.362   7.989   1.301 -0.4048  0.2410 -0.1583
33128SOL    HW1 2016   8.292   7.954   1.246 -1.3284 -0.4635  1.3855
33128SOL    HW2 2017   8.316   8.029   1.375  0.7850  1.3048  0.0432
33129SOL     OW 2018   2.234   9.746   9.141 -0.3490  0.2396 -0.5483
33129SOL    HW1 2019   2.250   9.797   9.062  1.9280 -0.6278 -0.7372
33129SOL    HW2 2020   2.298   9.779   9.205 -3.1781  2.0504  1.6004
33130SOL     OW 2021   6.202   0.324   2.623 -0.1601  0.2085 -0.7787
33130SOL    HW1 2022   6.166   0.244   2.661  1.6422 -1.0551 -1.5641
33130SOL    HW2 2023   6.133   0.358   2.567 -0.7632 -1.1494 -0.8922
33131SOL     OW 2024   4.943   2.047   7.235 -0.1631 -0.5009 -0.1211
33131SOL    HW1 2025   4.854   2.067   7.266 -0.5938  0.2152 -1.6927
33131SOL    HW2 2026   4.936   2.051   7.139  1.8540  0.9491 -0.2709
33132SOL     OW 2027   2.582   7.357   1.248 -0.5222  0.1056  0.4349
33132SOL    HW1 2028   2.523   7.417   1.293  1.6759  1.0763  2.2011
33132SOL    HW2 2029   2.553   7.359   1.157 -3.4058  0.1897  1.2629
33133SOL     OW 2030   3.281   7.811   7.891  0.0495 -0.2518 -0.2411
33133SOL    HW1 2031   3.355   7.780   7.840  0.9553 -0.0344  0.9046
33133SOL    HW2 2032   3.300   7.904   7.907 -1.7949  0.5671 -2.2027
33134SOL     OW 2033   9.124   2.596   5.791  0.0302  0.3421  0.0885
33134SOL    HW1 2034   9.093   2.668   5.735 -0.9111  1.3575  1.8377
33134SOL    HW2 2035   9.115   2.629   5.880  0.6443 -1.5541  0.9008
33135SOL     OW 2036   6.903   9.166   1.040 -0.0852  0.2526 -0.1210
33135SOL    HW1 2037   6.972   9.100   1.039  0.5910  0.9482 -0.4965
33135SOL    HW2 2038   6.893   9.189   1.133 -1.1515 -1.2020  0.1515
33136SOL     OW 2039   5.197   4.453   4.732 -0.6461  0.0158 -0.1200
33136SOL    HW1 2040   5.140   4.529   4.718  0.8819  1.2236  0.0516
33136SOL    HW2 2041   5.237   4.437   4.646  2.5826  2.3968  0.7838
33137SOL     OW 2042   0.717   9.053   3.912 -0.0313  0.1243  0.2788
33137SOL    HW1 2043   0.670   8.974   3.886  2.0997 -0.9709 -0.5244
33137SOL    HW2 2044   0.732   9.100   3.830 -1.9989  1.8565  0.8410
33138SOL     OW 2045   5.786   7.270   9.049  0.1761  0.2780 -0.2818
33138SOL    HW1 2046   5.755   7.200   9.107 -2.2373 -0.6711 -2.4889
33138SOL    HW2 2047   5.825   7.224   8.975  2.6459  1.4517  0.1886
33139SOL     OW 2048   5.845   2.483   7.926 -0.2908  0.3207 -0.1559
33139SOL    HW1 2049   5.938   2.486   7.905 -0.2732 -2.1995 -0.8241
33139SOL    HW2 2050   5.800   2.489   7.842 -0.7215  0.8863  0.1035
33140SOL     OW 2051   8.247   1.144   4.486 -0.6623  0.3700 -0.1835
33140SOL    HW1 2052   8.297   1.128   4.406 -1.8254 -1.4876 -0.5932
33140SOL    HW2 2053   8.177   1.203   4.459  0.6554  2.2177  0.1923
33141SOL     OW 2054   5.129   0.568   9.250  0.1282 -0.5600 -0.2126
33141SOL    HW1 2055   5.151   0.659   9.270  0.6193 -0.3951 -1.3751
33141SOL    HW2 2056   5.165   0.554   9.162 -0.7144 -1.6092 -0.4152
33142SOL     OW 2057   8.828   4.920   9.976 -0.0004  0.3634  0.2005
33142SOL    HW1 2058   8.800   4.988   9.915 -0.3185 -0.3614 -0.4948
33142SOL    HW2 2059   8.913   4.949  10.007 -0.8661  1.9206  1.2658
33143SOL     OW 2060   8.421   8.276   1.533 -0.3642 -0.3631  0.3616
33143SOL    HW1 2061   8.355   8.206   1.529 -2.0293  1.0992  1.1811
33143SOL    HW2 2062   8.501   8.231   1.561 -1.3939 -1.9493  0.9100
33144SOL     OW 2063   7.703   7.555   7.152  0.4829  0.2919 -1.1158
33144SOL    HW1 2064   7.665   7.502   7.222 -0.6790  2.2709 -0.1716
33144SOL    HW2 2065   7.740   7.491   7.091  1.3796 -1.5128  1.1721
33145SOL     OW 2066   7.172   9.338   8.910  0.0682 -0.5848  0.1436
33145SOL    HW1 2067   7.103   9.274   8.931 -0.1569 -0.4411 -0.1557
33145SOL    HW2 2068   7.196   9.319   8.820  0.1682 -0.3995  0.1301
33146SOL     OW 2069   6.961   9.540   4.214 -0.0523  0.1802 -0.4968
33146SOL    HW1 2070   7.004   9.473   4.161  3.1497 -0.5547  2.6311
33146SOL    HW2 2071   6.997   9.623   4.183 -0.1201 -0.0151 -1.0970
33147SOL     OW 2072   1.644   3.385   3.276  0.3206  1.0270 -0.0794
33147SOL    HW1 2073   1.715   3.417   3.332  1.0700  2.3311 -1.6894
33147SOL    HW2 2074   1.683   3.314   3.225 -0.0337  0.6104  0.2175
33148SOL     OW 2075   3.339   8.951   3.846  0.5333 -0.4768 -0.0035
33148SOL    HW1 2076   3.294   8.930   3.765 -0.8120 -0.0524  0.6126
33148SOL    HW2 2077   3.389   9.031   3.826 -0.9914  0.5110 -0.0220
33149SOL     OW 2078   9.762   2.374   9.479  0.5702 -0.2109  0.5693
33149SOL    HW1 2079   9.723   2.393   9.564  0.7790 -0.0314  0.6265
33149SOL    HW2 2080   9.810   2.293   9.493  0.9087  0.0134  0.7217
33150SOL     OW 2081   2.454   1.040   9.947  0.3094  0.8502 -0.5824
33150SOL    HW1 2082   2.402   0.962   9.925  1.8069 -0.5050  0.4486
33150SOL    HW2 2083   2.418   1.068  10.032  1.1386 -0.0244  0.0803
33151SOL     OW 2084   8.814   6.086   0.238  0.2578 -0.3159 -0.2685
33151SOL    HW1 2085   8.767   6.073   0.155 -0.6122 -1.5795  0.3891
33151SOL    HW2 2086   8.791   6.174   0.266 -1.6136 -0.8451 -0.0470
33152SOL     OW 2087   4.168   3.492   8.004  0.2384 -0.4886  0.2359
33152SOL    HW1 2088   4.151   3.474   8.096  0.8705 -0.8763  0.2843
33152SOL    HW2 2089   4.152   3.586   7.994 -2.7345 -0.9357  0.0761
33153SOL     OW 2090   1.681   0.182   4.524 -0.0528 -0.5007 -0.1949
33153SOL    HW1 2091   1.695   0.272   4.493  2.5505 -0.3058  1.2738
33153SOL    HW2 2092   1.608   0.189   4.585 -0.8300  0.3232 -1.1822
33154SOL     OW 2093   8.806   0.776   3.567  0.2858 -0.2290 -0.9588
33154SOL    HW1 2094   8.869   0.720   3.612 -0.6657 -0.7995 -0.3042
33154SOL    HW2 2095   8.822   0.759   3.474  0.4628 -1.0896 -0.7835
33155SOL     OW 2096   6.156   7.848   5.387 -0.2639  0.4797 -0.1828
33155SOL    HW1 2097   6.186   7.906   5.456 -0.5477  0.3539  0.0495
33155SOL    HW2 2098   6.231   7.792   5.368 -0.1856  0.5133  0.0246
33156SOL     OW 2099   6.800   9.827   7.835  0.0886 -0.1305 -0.3736
33156SOL    HW1 2100   6.796   9.791   7.923  0.5186  1.7455  0.4700
33156SOL    HW2 2101   6.872   9.779   7.793 -0.6543 -1.6177 -0.0157
33157SOL     OW 2102   1.991   3.497   5.077  0.0391  0.2185  0.6321
33157SOL    HW1 2103   1.941   3.570   5.040  0.9415  0.4701 -0.1176
33157SOL    HW2 2104   2.002   3.520   5.170  0.8475  1.3647  0.2749
33158SOL     OW 2105  10.063   5.788   9.390 -0.1630 -0.1657 -0.3225
33158SOL    HW1 2106  10.074   5.874   9.349 -0.7925 -0.1380 -0.4344
33158SOL    HW2 2107   9.977   5.791   9.431  0.3745 -0.2555  0.8630
33159SOL     OW 2108   3.155   4.418   6.895 -0.2850 -0.6835 -0.3716
33159SOL    HW1 2109   3.076   4.470   6.909  0.7787  1.2218 -0.9787
33159SOL    HW2 2110   3.224   4.483   6.882  1.4295 -2.2741  0.2965
33160SOL     OW 2111   0.495   3.256   7.360 -0.5038  0.1053  0.4595
33160SOL    HW1 2112   0.495   3.352   7.355 -0.7313  0.0422 -1.6398
33160SOL    HW2 2113   0.420   3.230   7.307  1.3099 -1.2789 -1.6199
33161SOL     OW 2114   9.495   8.303   0.515 -0.0437  0.4254 -0.3627
33161SOL    HW1 2115   9.438   8.261   0.579  0.6369  0.3591  0.2034
33161SOL    HW2 2116   9.438   8.321   0.440 -0.5507 -0.6639 -0.2533
33162SOL     OW 2117   3.145   4.767   3.230 -0.0921  0.4176  0.6285
33162SOL    HW1 2118   3.208   4.833   3.201  0.7486 -0.0262  1.3545
33162SOL    HW2 2119   3.122   4.793   3.319 -0.4655  0.2420  0.5843
33163SOL     OW 2120   2.541   3.610   7.304 -0.0590  0.0834  0.1036
33163SOL    HW1 2121   2.621   3.565   7.278  1.8792  1.8059  2.5084
33163SOL    HW2 2122   2.479   3.540   7.324  1.7021 -1.4246  0.5599
33164SOL     OW 2123   1.856   2.927   6.606 -0.0635 -0.1273  0.6251
33164SOL    HW1 2124   1.781   2.985   6.620 -0.2572  0.4079 -2.0521
33164SOL    HW2 2125   1.819   2.851   6.560  1.0141  0.2091 -0.8599
33165SOL     OW 2126   4.710   0.848   3.355 -0.3846 -0.0637 -0.1553
33165SOL    HW1 2127   4.718   0.930   3.306 -1.5931 -0.4436 -1.0362
33165SOL    HW2 2128   4.705   0.875   3.446 -2.2425  0.9921 -0.5144
33166SOL     OW 2129   4.479   0.822   3.166 -0.1225 -0.7500  0.0998
33166SOL    HW1 2130   4.572   0.815   3.147  0.3110 -1.9390  2.3122
33166SOL    HW2 2131   4.462   0.916   3.166  0.9813 -0.5307 -0.6510
33167SOL     OW 2132   0.801   1.623   5.293 -0.4352  0.3956 -0.4908
33167SOL    HW1 2133   0.878   1.671   5.262 -0.4814  0.6036 -0.2864
33167SOL    HW2 2134   0.773   1.670   5.371 -0.5928  0.1423 -0.3928
33168SOL     OW 2135   4.373   3.138   9.936  0.6958 -0.1952  0.4608
33168SOL    HW1 2136   4.280   3.116   9.930 -0.2905  3.3988  0.5075
33168SOL    HW2 2137   4.382   3.184  10.019  3.0154 -2.0659  1.3898
33169SOL     OW 2138   3.601   6.938   3.223 -0.3519  0.1727  0.2969
33169SOL    HW1 2139   3.693   6.960   3.235 -0.2601 -0.3735  0.6436
33169SOL    HW2 2140   3.599   6.842   3.223 -0.6391  0.1228 -1.8333
33170SOL     OW 2141   3.921   8.339   4.480  0.3785 -0.1470  0.6287
33170SOL    HW1 2142   4.008   8.301   4.486  0.1509 -0.8449 -0.2547
33170SOL    HW2 2143   3.865   8.266   4.454 -0.2779  0.5302  0.0964
33171SOL     OW 2144   1.369   7.210   7.371 -0.0008  0.0751  0.4999
33171SOL    HW1 2145   1.289   7.198   7.319 -2.2578  0.6956  3.5664
33171SOL    HW2 2146   1.402   7.296   7.345 -0.7525  0.1448 -0.2763
33172SOL     OW 2147   5.155   3.537   1.498  0.0761 -0.3580  0.0925
33172SOL    HW1 2148   5.072   3.535   1.450 -0.8142  1.7381  1.3865
33172SOL    HW2 2149   5.165   3.449   1.534 -1.6370 -0.6282 -0.0349
33173SOL     OW 2150   5.134   9.961   1.302 -0.0810  0.1591 -0.5413
33173SOL    HW1 2151   5.224   9.954   1.270 -0.9747 -1.1076 -2.9762
33173SOL    HW2 2152   5.113  10.054   1.293  0.8587  0.4302 -0.1709
33174SOL     OW 2153   5.527   7.587   6.547  0.0484 -0.1901  0.0927
33174SOL    HW1 2154   5.559   7.562   6.460  0.1123  0.0227  0.0546
33174SOL    HW2 2155   5.433   7.570   6.544 -0.1792  1.0341 -0.4605
33175SOL     OW 2156   9.944   0.778   9.356  0.7765  0.2866 -0.1240
33175SOL    HW1 2157   9.899   0.819   9.282  0.9125  1.3761  0.3705
33175SOL    HW2 2158   9.919   0.686   9.351 -0.1287  0.5487 -0.8656
33176SOL     OW 2159   2.118   2.071   5.597  0.0459  0.1786  0.2541
33176SOL    HW1 2160   2.076   2.156   5.593 -1.4044 -0.5211  0.0314
33176SOL    HW2 2161   2.201   2.087   5.642  0.2271  1.8537 -0.6096
33177SOL     OW 2162   8.270   1.209   8.712 -0.1935 -0.1299 -0.3496
33177SOL    HW1 2163   8.187   1.258   8.712  1.1184  2.3060  0.7808
33177SOL    HW2 2164   8.285   1.188   8.804  0.1453 -1.1465 -0.6271
33178SOL     OW 2165   1.791   4.653   6.681  0.5399  0.6318  0.3068
33178SOL    HW1 2166   1.807   4.734   6.730  1.4021 -0.0284  1.1464
33178SOL    HW2 2167   1.870   4.601   6.693 -0.4842 -0.8716  0.8527
33179SOL     OW 2168   9.078   9.342   9.133  0.7200 -0.1591 -0.1852
33179SOL    HW1 2169   9.105   9.401   9.204 -1.8102  0.0798  0.6959
33179SOL    HW2 2170   9.046   9.401   9.065  1.4561 -0.4513 -0.8002
33180SOL     OW 2171   1.104   1.869   6.978  0.3715  0.0831 -0.0574
33180SOL    HW1 2172   1.193   1.836   6.960  0.3248  0.7733 -1.6886
33180SOL    HW2 2173   1.093   1.943   6.919 -0.6560  1.1508  1.3986
33181SOL     OW 2174   4.561   2.521   0.080  0.2277  0.6637 -0.1760
33181SOL    HW1 2175   4.533   2.498   0.168  1.2133  0.5648  0.1280
33181SOL    HW2 2176   4.480   2.539   0.032 -0.5854 -2.4929 -0.1882
33182SOL     OW 2177   8.426   1.335   3.202 -0.6642 -0.0121  0.2874
33182SOL    HW1 2178   8.502   1.382   3.236  0.4986 -0.1005 -2.0098
33182SOL    HW2 2179   8.358   1.403   3.194 -1.3235 -0.1410  3.4152
33183SOL     OW 2180   1.015   1.941   1.132 -0.5178  0.3554  0.1355
33183SOL    HW1 2181   0.935   1.922   1.082 -0.0222 -0.5804 -0.3262
33183SOL    HW2 2182   1.021   1.870   1.195  0.3506 -0.0007 -0.3338
33184SOL     OW 2183   6.613   8.409   7.339  0.3387  0.4801  0.1972
33184SOL    HW1 2184   6.666   8.476   7.383  0.0463  1.0320 -0.2695
33184SOL    HW2 2185   6.674   8.366   7.279  1.1513 -1.3879  2.2412
33185SOL     OW 2186   7.826   1.678   7.410 -0.1340 -0.0960  0.1146
33185SOL    HW1 2187   7.916   1.667   7.380  0.1892 -0.3587  1.1396
33185SOL    HW2 2188   7.826   1.645   7.500 -1.0656  0.6380  0.4102
33186SOL     OW 2189   3.466   0.608   6.538 -0.3443 -0.0365  0.0996
33186SOL    HW1 2190   3.495   0.600   6.447  0.7257  0.5218  0.3628
33186SOL    HW2 2191   3.420   0.527   6.556  0.7937 -0.8393 -0.4767
33187SOL     OW 2192   5.975   9.932   3.330 -0.2073  0.5712  0.5730
33187SOL    HW1 2193   6.058   9.980   3.332 -0.0768  0.3535  0.3432
33187SOL    HW2 2194   5.954   9.923   3.238  0.9974 -1.9091  0.4686
33188SOL     OW 2195   2.420   5.454   2.871  0.3776  0.5903  0.4698
33188SOL    HW1 2196   2.327   5.436   2.860  0.2808  1.2553  0.1138
33188SOL    HW2 2197   2.423   5.537   2.919  0.7687  1.0868 -0.3890
33189SOL     OW 2198   1.098   5.434   5.640  0.0571 -0.0612 -0.4345
33189SOL    HW1 2199   1.053   5.349   5.638 -1.9974  0.9737 -0.5034
33189SOL    HW2 2200   1.186   5.413   5.670  0.9077 -2.7542 -4.0693
33190SOL     OW 2201   7.979   9.692   3.598 -0.1009  0.5776 -0.3820
33190SOL    HW1 2202   7.933   9.634   3.538  1.0914 -1.4733  0.6031
33190SOL    HW2 2203   8.048   9.731   3.544 -1.2112  1.5509 -1.1694
33191SOL     OW 2204   4.392   6.921   1.123  0.1024 -0.0394 -0.0761
33191SOL    HW1 2205   4.386   6.884   1.035 -3.3450  1.1605 -0.5306
33191SOL    HW2 2206   4.449   6.997   1.114 -1.0485  0.6928 -1.6092
33192SOL     OW 2207   4.320   5.989   6.436 -0.5248  0.0391  0.3224
33192SOL    HW1 2208   4.357   6.017   6.520  0.0461 -1.4278  0.6031
33192SOL    HW2 2209   4.279   6.067   6.400 -1.5748  0.5084  2.3820
33193SOL     OW 2210   9.876   4.430   1.926 -0.1302 -0.1483 -0.5503
33193SOL    HW1 2211   9.955   4.474   1.957  0.0555  0.3862 -1.7112
33193SOL    HW2 2212   9.905   4.340   1.909 -0.4707 -0.7299  1.6621
33194SOL     OW 2213   9.703   4.591   7.474  0.8594  0.5281  0.2566
33194SOL    HW1 2214   9.646   4.562   7.402 -1.6433  2.3847  1.3290
33194SOL    HW2 2215   9.723   4.511   7.522  0.2075 -0.3721 -0.9006
33195SOL     OW 2216   8.304   0.519  10.116  0.0355 -0.5849 -0.0656
33195SOL    HW1 2217   8.366   0.572  10.066 -1.0089  1.8037  1.0095
33195SOL    HW2 2218   8.239   0.491  10.052 -1.1462  2.2160 -0.2341
33196SOL     OW 2219   5.798   3.252   5.075  0.1735  0.1749  0.4927
33196SOL    HW1 2220   5.888   3.224   5.089 -0.2084 -1.1475  0.3725
33196SOL    HW2 2221   5.804   3.320   5.007  1.2548  1.4174  1.7696
33197SOL     OW 2222   3.177   7.891   8.586  0.3474  0.2772 -0.1454
33197SOL    HW1 2223   3.088   7.872   8.559  0.6645 -0.1234 -0.9276
33197SOL    HW2 2224   3.217   7.806   8.601  0.7493  0.4342 -0.2962
33198SOL     OW 2225   1.090   4.959   1.411  0.4817  0.6250 -0.2231
33198SOL    HW1 2226   0.995   4.967   1.403  0.4652 -0.1374 -0.9202
33198SOL    HW2 2227   1.122   4.965   1.321  0.9521 -0.7386 -0.1702
33199SOL     OW 2228   0.084   1.050   1.071  0.3086  0.2127  0.1198
33199SOL    HW1 2229   0.092   1.057   0.976 -0.1777  2.6992  0.2072
33199SOL    HW2 2230   0.172   1.070   1.104  0.7185 -1.5756  0.2135
33200SOL     OW 2231   2.218  10.226   5.267 -0.8389 -0.0311  0.3028
33200SOL    HW1 2232   2.213  10.321   5.261 -0.4597  0.0893  1.6039
33200SOL    HW2 2233   2.310  10.207   5.283 -0.8639 -0.6402 -0.2182
33201SOL     OW 2234   7.186   4.559   5.611  0.2428 -0.5398 -0.6491
33201SOL    HW1 2235   7.245   4.541   5.684  0.0597  0.1573 -0.3316
33201SOL    HW2 2236   7.114   4.497   5.623  0.3128 -0.5657 -0.3566
33202SOL     OW 2237   4.565   0.450   8.148 -0.6114 -0.2477  0.8829
33202SOL    HW1 2238   4.547   0.492   8.232 -1.0928 -0.6335  0.9801
33202SOL    HW2 2239   4.479   0.425   8.115 -0.3382 -1.2592  0.8862
33203SOL     OW 2240   0.707   4.571   3.104  0.1768  0.3632  0.9330
33203SOL    HW1 2241   0.687   4.614   3.187 -1.0450  1.4381  0.1262
33203SOL    HW2 2242   0.638   4.600   3.044 -0.0755 -1.9007  0.0318
33204SOL     OW 2243   9.020   3.150   6.511  0.2734 -0.6534 -0.8443
33204SOL    HW1 2244   8.928   3.173   6.503  0.7451  1.5727 -0.4039
33204SOL    HW2 2245   9.061   3.186   6.433  1.0078 -0.3247 -0.3161
33205SOL     OW 2246   7.684   5.807   6.193 -0.4034  0.2656  0.3940
33205SOL    HW1 2247   7.663   5.800   6.286  2.0023 -1.7649  0.9101
33205SOL    HW2 2248   7.749   5.878   6.188 -1.2478  1.0307  0.0850
33206SOL     OW 2249   8.313   5.284   2.391  0.4158 -0.0871 -0.6187
33206SOL    HW1 2250   8.407   5.296   2.405  0.7717 -0.8513 -2.0808
33206SOL    HW2 2251   8.293   5.337   2.314  0.4101 -2.4708 -2.3790
33207SOL     OW 2252   7.110   2.254   4.881  0.0790 -0.6810 -0.4123
33207SOL    HW1 2253   7.121   2.182   4.942 -1.7294  0.1479  1.0092
33207SOL    HW2 2254   7.016   2.258   4.865  0.0987  1.4179 -0.3245
33208SOL     OW 2255   9.332   0.729   9.543  0.4079 -1.1627 -0.6090
33208SOL    HW1 2256   9.424   0.741   9.566  0.9296 -0.8106 -2.6784
33208SOL    HW2 2257   9.284   0.757   9.621  1.9831  1.0839 -0.3585
33209SOL     OW 2258   6.754   1.420   0.689  0.3280 -0.2614 -0.1528
33209SOL    HW1 2259   6.678   1.466   0.652  1.8370  2.3848 -0.2257
33209SOL    HW2 2260   6.736   1.414   0.783 -0.9283 -1.7160 -0.4584
33210SOL     OW 2261   4.117   2.337   9.047  0.1271  0.0540 -0.0821
33210SOL    HW1 2262   4.071   2.420   9.045 -1.8614 -0.9802  0.4279
33210SOL    HW2 2263   4.141   2.324   9.138  0.9738  0.3279 -0.2568
33211SOL     OW 2264   0.971   7.149   5.080  0.0225 -0.0712  0.0299
33211SOL    HW1 2265   1.042   7.194   5.126  1.1495 -2.2007  0.4921
33211SOL    HW2 2266   0.997   7.151   4.988  0.4712 -0.4205  0.1430
33212SOL     OW 2267   7.208   3.329   9.586 -0.8662  0.5576  0.0097
33212SOL    HW1 2268   7.170   3.414   9.606 -0.5127  0.7348 -0.0584
33212SOL    HW2 2269   7.145   3.287   9.527 -1.0092  0.7972 -0.0078
33213SOL     OW 2270   7.143   4.177   7.493 -0.2598  0.3428 -0.2191
33213SOL    HW1 2271   7.066   4.234   7.489  0.8611  1.9259 -0.0877
33213SOL    HW2 2272   7.132   4.128   7.574 -0.8386  1.0045  0.1163
33214SOL     OW 2273   6.643   5.896   6.981  0.2753  0.0718 -0.0210
33214SOL    HW1 2274   6.645   5.902   7.076  0.8412  0.3052 -0.0437
33214SOL    HW2 2275   6.706   5.826   6.960  0.4223  0.2657 -0.2404
33215SOL     OW 2276   1.056   8.182   7.710  0.4383 -0.6176  0.0419
33215SOL    HW1 2277   0.965   8.160   7.687 -0.0280  0.6680  0.5189
33215SOL    HW2 2278   1.055   8.190   7.805  0.5888  1.1669 -0.0699
33216SOL     OW 2279   4.006   9.509   2.279  0.3501  0.2146 -0.5182
33216SOL    HW1 2280   4.059   9.484   2.204  1.0324  2.4965 -0.8642
33216SOL    HW2 2281   3.945   9.574   2.245 -2.1837 -1.6763  0.0719
33217SOL     OW 2282   1.226   8.425   1.963  0.4383 -0.1658  0.2961
33217SOL    HW1 2283   1.152   8.485   1.959 -1.1371 -2.0674 -0.7925
33217SOL    HW2 2284   1.187   8.338   1.965  2.5858 -1.2175  3.2297
33218SOL     OW 2285   2.505   2.260   9.083 -0.1829  0.2533  0.1594
33218SOL    HW1 2286   2.427   2.225   9.040 -1.6197  1.5647  1.5346
33218SOL    HW2 2287   2.573   2.194   9.069 -1.7450 -1.2981 -0.4482
33219SOL     OW 2288   9.405   1.876   1.511  0.7109  0.2460 -0.2314
33219SOL    HW1 2289   9.459   1.801   1.487  0.3545 -0.1229  0.1293
33219SOL    HW2 2290   9.460   1.927   1.570  0.9785  0.3115 -0.5334
33220SOL     OW 2291   0.441   3.362   6.097  0.0343 -0.1566  0.3979
33220SOL    HW1 2292   0.462   3.434   6.157 -0.6258  0.5744 -0.2298
33220SOL    HW2 2293   0.356   3.329   6.127 -0.0874 -0.0843  0.1343
33221SOL     OW 2294  10.112   5.361   7.251  0.3394  0.3270  0.2818
33221SOL    HW1 2295  10.187   5.302   7.243 -0.6048 -0.8353 -0.2692
33221SOL    HW2 2296  10.054   5.336   7.179  0.3898  2.6767 -0.6594
33222SOL     OW 2297   4.636   8.833   8.250  0.0230 -0.1339  0.5857
33222SOL    HW1 2298   4.705   8.899   8.243  1.3497 -1.2644  2.1320
33222SOL    HW2 2299   4.647   8.777   8.173 -0.0020  0.4347  0.1676
33223SOL     OW 2300   4.355   8.633   5.303 -0.3868 -0.0328  0.4303
33223SOL    HW1 2301   4.384   8.634   5.394  0.5598 -0.6788  0.1560
33223SOL    HW2 2302   4.424   8.679   5.255 -2.1381  2.7159  0.3269
33224SOL     OW 2303   3.661   1.747   2.202  0.1316 -0.2216  0.1798
33224SOL    HW1 2304   3.649   1.842   2.204  0.7261 -0.1464  0.4487
33224SOL    HW2 2305   3.646   1.722   2.111  0.8386  0.2542 -0.0773
33225SOL     OW 2306   3.385   4.267   3.509  0.0539  0.0140  0.2357
33225SOL    HW1 2307   3.342   4.223   3.435 -1.2477 -1.4811  1.7813
33225SOL    HW2 2308   3.477   4.270   3.485 -0.2150 -1.1984 -1.0846
33226SOL     OW 2309   8.405   0.617   8.913  0.0191  0.1064  0.2505
33226SOL    HW1 2310   8.441   0.543   8.962  1.2371 -0.6178 -1.6449
33226SOL    HW2 2311   8.429   0.694   8.966  0.7248 -0.6745  1.1054
33227SOL     OW 2312   8.313   2.280   8.564 -0.8286  0.6225 -0.1278
33227SOL    HW1 2313   8.230   2.232   8.563 -0.5930  0.1475 -2.3647
33227SOL    HW2 2314   8.367   2.236   8.498  1.4557  0.5477  1.6368
33228SOL     OW 2315   6.232   7.785   2.794  0.4270 -0.5088 -0.5366
33228SOL    HW1 2316   6.244   7.849   2.865 -4.3396 -0.4377  0.5435
33228SOL    HW2 2317   6.291   7.816   2.725  0.6551  3.2853  1.0647
33229SOL     OW 2318   0.422   3.622   4.881 -0.7059  0.3056  0.3477
33229SOL    HW1 2319   0.348   3.644   4.825  0.6171 -2.5564 -2.9336
33229SOL    HW2 2320   0.383   3.578   4.956 -2.4180  0.3114 -0.4801
33230SOL     OW 2321   1.267   5.568   4.241 -0.7381  0.3739  0.7144
33230SOL    HW1 2322   1.342   5.547   4.298  0.0329  2.5778  0.5967
33230SOL    HW2 2323   1.289   5.525   4.157  0.4643  1.0436  0.6575
33231SOL     OW 2324   3.132   4.011   2.481 -0.1188 -0.0406  0.3364
33231SOL    HW1 2325   3.077   4.084   2.454  2.2551  1.7374  0.0022
33231SOL    HW2 2326   3.103   3.992   2.571  0.1786  2.3619  1.0235
33232SOL     OW 2327   2.748   9.421   9.529 -0.2926 -0.0974  0.5437
33232SOL    HW1 2328   2.708   9.489   9.475  0.4029 -0.3693 -0.3476
33232SOL    HW2 2329   2.717   9.439   9.618  0.7551  2.0844  0.5413
33233SOL     OW 2330   8.951   7.061   9.531 -0.4018 -0.0170 -0.1493
33233SOL    HW1 2331   8.981   7.092   9.617 -1.1716  0.2792  0.0250
33233SOL    HW2 2332   8.855   7.062   9.538 -0.4660 -0.8932 -0.6963
33234SOL     OW 2333   6.866   0.961   1.600  0.3494  0.1299  0.3471
33234SOL    HW1 2334   6.867   0.972   1.505  2.9005 -1.7889  0.0622
33234SOL    HW2 2335   6.775   0.937   1.620 -0.3402  1.0025 -1.5193
33235SOL     OW 2336   7.698   0.209   7.776 -0.4884  0.0061 -0.2378
33235SOL    HW1 2337   7.749   0.130   7.792 -1.4882 -0.4559  0.8220
33235SOL    HW2 2338   7.624   0.202   7.837  0.2249  2.5265  1.0477
33236SOL     OW 2339   5.660   9.953   7.614 -0.4805  0.2175 -0.8337
33236SOL    HW1 2340   5.740   9.975   7.662 -0.6161 -3.1875  1.2974
33236SOL    HW2 2341   5.671   9.994   7.528  2.8616  1.1326 -0.1014
33237SOL     OW 2342   6.663   3.560   0.954  0.0881  0.0452 -0.4886
33237SOL    HW1 2343   6.620   3.522   1.031 -0.6839  2.3842  0.3183
33237SOL    HW2 2344   6.592   3.598   0.903  0.6151 -1.2616 -2.3058
33238SOL     OW 2345   4.792   1.711   5.124 -0.3772 -0.1665 -0.3965
33238SOL    HW1 2346   4.751   1.627   5.106 -0.1192 -0.4514  0.3313
33238SOL    HW2 2347   4.875   1.708   5.076 -0.3370 -0.3512 -0.3145
33239SOL     OW 2348   8.762   3.684   6.236 -0.7549 -0.2220 -0.0070
33239SOL    HW1 2349   8.809   3.765   6.255 -0.2011 -0.8125  1.2647
33239SOL    HW2 2350   8.710   3.704   6.158  1.6204  0.4496 -1.5418
33240SOL     OW 2351   6.575   5.621   8.281 -0.1062  0.0512 -0.1814
33240SOL    HW1 2352   6.663   5.584   8.275  1.3322  3.2606 -0.8654
33240SOL    HW2 2353   6.575   5.671   8.362 -1.1765  0.3990 -0.3730
33241SOL     OW 2354   9.790   3.332   9.074  0.3328 -0.3501 -0.0864
33241SOL    HW1 2355   9.805   3.362   8.984 -1.5824 -0.9542 -0.6439
33241SOL    HW2 2356   9.809   3.408   9.128 -2.2715  1.2967 -1.3135
33242SOL     OW 2357   4.581  10.229   7.931  0.5144 -0.6982  0.3641
33242SOL    HW1 2358   4.491  10.205   7.912  0.5329 -0.7981  0.4035
33242SOL    HW2 2359   4.583  10.325   7.920 -0.0248 -0.4544  2.0645
33243SOL     OW 2360   8.849   2.401   8.869  0.4380  0.3870 -0.0511
33243SOL    HW1 2361   8.902   2.447   8.804 -0.5474  1.9325  0.1719
33243SOL    HW2 2362   8.887   2.427   8.953 -0.0879  0.7638  0.0751
33244SOL     OW 2363   8.937   6.453   3.220 -0.1930 -0.0654  0.5467
33244SOL    HW1 2364   8.947   6.375   3.273  1.3236 -0.3041 -0.0573
33244SOL    HW2 2365   8.904   6.519   3.280 -1.5726 -1.1562  1.0520
33245SOL     OW 2366   1.664   8.788   4.135 -0.3375 -0.1222  0.1159
33245SOL    HW1 2367   1.622   8.867   4.167 -1.0514 -0.5070  0.1384
33245SOL    HW2 2368   1.595   8.722   4.134 -0.0617 -0.4341 -1.0780
33246SOL     OW 2369   5.748  10.052   9.759  0.1144  0.2069  0.2336
33246SOL    HW1 2370   5.827  10.055   9.706  0.2862 -0.0199  0.4745
33246SOL    HW2 2371   5.777  10.019   9.844 -0.3089 -0.3228  0.1829
33247SOL     OW 2372   3.667   5.316   6.250  0.3088 -0.0146 -0.2655
33247SOL    HW1 2373   3.706   5.346   6.168  0.0840 -1.4708 -0.9397
33247SOL    HW2 2374   3.712   5.366   6.318  1.6423  0.0707 -1.1793
33248SOL     OW 2375   6.887   1.782  10.116 -0.5468  0.0178 -0.5128
33248SOL    HW1 2376   6.942   1.731  10.176 -0.3611 -1.5685 -1.9388
33248SOL    HW2 2377   6.931   1.866  10.108  1.3473 -0.9900 -1.1152
33249SOL     OW 2378   3.343  10.105   7.528  0.0984  0.1857 -0.5879
33249SOL    HW1 2379   3.376  10.020   7.556  0.3314  1.3362  3.2716
33249SOL    HW2 2380   3.391  10.126   7.448  2.5230 -1.8343  0.2434
33250SOL     OW 2381   6.311  10.062   6.249  0.0525 -0.6412  0.1311
33250SOL    HW1 2382   6.274   9.996   6.307 -3.8860  1.9879  0.9820
33250SOL    HW2 2383   6.285  10.036   6.161  2.2003 -2.2743 -0.1143
33251SOL     OW 2384   0.683   3.918   9.888 -0.1553 -0.3329 -0.4526
33251SOL    HW1 2385   0.660   3.955   9.973 -0.9631 -0.5582 -0.5632
33251SOL    HW2 2386   0.767   3.875   9.903  0.7606  1.4280 -0.3019
33252SOL     OW 2387   0.540   1.747   8.979  0.0237 -0.0340  0.4253
33252SOL    HW1 2388   0.450   1.764   9.007 -0.4391  0.5102 -1.2960
33252SOL    HW2 2389   0.532   1.707   8.893  1.3198 -4.1084  1.9929
33253SOL     OW 2390   4.595   5.963   9.263  0.2636  0.7570 -0.5859
33253SOL    HW1 2391   4.559   6.046   9.295 -3.0784 -0.8572  0.3693
33253SOL    HW2 2392   4.606   5.910   9.343  1.5291 -0.0199 -1.2472
33254SOL     OW 2393  10.312   9.470   4.186  0.1585 -0.3556 -0.0080
33254SOL    HW1 2394  10.362   9.521   4.122  0.7139  1.2753  1.6530
33254SOL    HW2 2395  10.234   9.522   4.204 -0.0976 -0.9001  0.5067
33255SOL     OW 2396   8.626   5.751   6.244 -0.0236  0.2869  0.2922
33255SOL    HW1 2397   8.644   5.691   6.316  0.2518 -0.3076 -0.2732
33255SOL    HW2 2398   8.552   5.713   6.198  0.0576  0.4535  0.0194
33256SOL     OW 2399   6.316   5.992   6.598  0.8452  0.3936  0.1136
33256SOL    HW1 2400   6.309   6.015   6.690  1.6353  0.8116  0.0797
33256SOL    HW2 2401   6.266   5.912   6.589 -2.4669  2.2810  0.1469
33257SOL     OW 2402   7.853   3.368   6.610 -0.1986  0.2130  0.0155
33257SOL    HW1 2403   7.871   3.311   6.536  0.5520 -0.5925  0.7907
33257SOL    HW2 2404   7.937   3.410   6.629  0.0113 -0.7483  1.3478
33258SOL     OW 2405   6.258   9.160   7.522  0.1227 -0.3581  0.1939
33258SOL    HW1 2406   6.181   9.170   7.578 -0.2387 -2.7766  0.2444
33258SOL    HW2 2407   6.320   9.112   7.576  1.4086  0.8754 -0.1252
33259SOL     OW 2408   9.076   6.930   1.526  0.3903 -0.0712 -0.3729
33259SOL    HW1 2409   9.071   6.885   1.442  3.5983 -0.2318 -0.5917
33259SOL    HW2 2410   9.087   7.023   1.504 -1.1482  0.2322 -0.0150
33260SOL     OW 2411   0.832   2.927   0.863  0.2905  0.1590 -0.3082
33260SOL    HW1 2412   0.918   2.890   0.883  0.4243  0.1574 -0.8640
33260SOL    HW2 2413   0.830   2.932   0.768 -0.9383 -1.2907 -0.3798
33261SOL     OW 2414   7.959   1.432  10.024 -0.6673 -0.6009 -0.3017
33261SOL    HW1 2415   7.938   1.413  10.115  1.1405  1.3232  0.6302
33261SOL    HW2 2416   8.025   1.367  10.000 -0.8421 -0.8585 -0.0834
33262SOL     OW 2417   4.561   2.929   2.869 -0.3685  0.1846  0.2729
33262SOL    HW1 2418   4.603   2.961   2.948  1.4341 -1.0181 -0.1398
33262SOL    HW2 2419   4.482   2.885   2.899 -1.0934  1.9958  1.1306
33263SOL     OW 2420   5.629   9.974   0.972 -0.3931 -0.5433  0.2136
33263SOL    HW1 2421   5.711   9.927   0.989 -1.6891 -2.5858  1.3240
33263SOL    HW2 2422   5.654  10.047   0.916  2.0290 -1.6635 -0.3074
33264SOL     OW 2423   4.619   4.424   7.282  0.0794  0.3902 -0.3625
33264SOL    HW1 2424   4.647   4.508   7.318  0.9607  0.2601 -0.7209
33264SOL    HW2 2425   4.574   4.381   7.355  1.0627  0.4926  0.3193
33265SOL     OW 2426   9.672   9.021   6.802 -0.3031 -0.3866  0.3152
33265SOL    HW1 2427   9.590   9.040   6.758  1.5244  1.2096 -2.7331
33265SOL    HW2 2428   9.700   9.105   6.839  1.2325 -0.2271 -1.1176
33266SOL     OW 2429   8.196   4.093   9.629  0.4282  0.1353  0.1104
33266SOL    HW1 2430   8.127   4.040   9.590  0.5204 -1.2106  1.6734
33266SOL    HW2 2431   8.276   4.041   9.619  0.7187  0.4405  0.7418
33267SOL     OW 2432   0.488   2.372  10.060  0.2074  0.0207  0.5480
33267SOL    HW1 2433   0.565   2.323  10.031 -0.4619  0.1221 -1.5720
33267SOL    HW2 2434   0.435   2.309  10.107  0.1229 -0.8951 -0.7348
33268SOL     OW 2435   4.474  10.075   6.013  0.4482 -0.0356 -0.5250
33268SOL    HW1 2436   4.569  10.082   6.017  0.6452 -1.6868 -1.3217
33268SOL    HW2 2437   4.450  10.022   6.089 -0.0658  1.8225  0.6722
33269SOL     OW 2438   5.652   0.645   3.571  0.6695 -0.0791 -0.3837
33269SOL    HW1 2439   5.727   0.590   3.595  0.3835 -1.1589 -1.8203
33269SOL    HW2 2440   5.684   0.698   3.497 -0.5026 -2.0691 -2.4561
33270SOL     OW 2441   7.910   7.543   4.025 -0.4809 -0.2302  0.0099
33270SOL    HW1 2442   7.885   7.508   4.110 -1.8891 -0.0255 -0.3069
33270SOL    HW2 2443   7.987   7.596   4.044 -1.1517  0.3439  1.2675
33271SOL     OW 2444   0.102  10.119   9.798  0.1316 -0.3986  0.1475
33271SOL    HW1 2445   0.169  10.187   9.791  0.9443 -1.2249 -0.3529
33271SOL    HW2 2446   0.129  10.052   9.735  0.0207 -1.7269  1.4512
33272SOL     OW 2447   5.093   0.956   1.439  0.2131 -0.0676 -0.5482
33272SOL    HW1 2448   5.141   0.985   1.361  0.4032 -2.2700 -1.3279
33272SOL    HW2 2449   5.161   0.916   1.494  0.0771  1.4629  0.7927
33273SOL     OW 2450   6.497  10.119   8.281 -0.2661  0.3005 -0.6148
33273SOL    HW1 2451   6.509  10.027   8.306 -1.3006  0.3768  0.2155
33273SOL    HW2 2452   6.586  10.155   8.280  0.0062 -0.2522  0.8885
33274SOL     OW 2453   3.614   6.880   3.768 -0.8358 -0.2443  0.2661
33274SOL    HW1 2454   3.544   6.924   3.816 -2.3132 -0.9754 -1.1458
33274SOL    HW2 2455   3.691   6.888   3.825 -1.3447  2.9507  0.6733
33275SOL     OW 2456   2.689   9.506   5.490  0.4875  0.1080  0.2814
33275SOL    HW1 2457   2.698   9.601   5.490  1.5496  0.0269 -0.5417
33275SOL    HW2 2458   2.614   9.488   5.433 -0.1395  0.4703  0.9811
33276SOL     OW 2459   9.550   2.444   2.854  0.5567  0.4776  0.2501
33276SOL    HW1 2460   9.600   2.398   2.788  1.3460 -0.4718  1.4625
33276SOL    HW2 2461   9.471   2.391   2.865  0.7397  0.2587  0.5329
33277SOL     OW 2462   5.396   5.599   8.718  0.0400 -0.0077  0.2085
33277SOL    HW1 2463   5.360   5.511   8.707 -0.0360  0.0565 -0.0638
33277SOL    HW2 2464   5.344   5.637   8.788 -1.5422  0.6746 -1.2723
33278SOL     OW 2465   3.149   1.704   0.423 -0.1450  0.5079 -0.2760
33278SOL    HW1 2466   3.180   1.623   0.383 -0.6414 -0.2157  0.7510
33278SOL    HW2 2467   3.072   1.678   0.474 -1.4988  1.9727 -1.4571
33279SOL     OW 2468   9.513   8.748   3.399 -0.4728 -0.3378  0.8375
33279SOL    HW1 2469   9.486   8.772   3.310 -1.0281 -0.8492  0.8617
33279SOL    HW2 2470   9.565   8.669   3.388 -1.8464 -1.3071  1.0936
33280SOL     OW 2471   5.265   6.447   6.490  0.3130  0.4329  0.0223
33280SOL    HW1 2472   5.198   6.515   6.487  0.9762  1.1410  0.8629
33280SOL    HW2 2473   5.259   6.412   6.579 -0.2929 -0.9063 -0.5161
33281SOL     OW 2474   9.695  10.101   9.043  0.6957  0.2126 -0.1802
33281SOL    HW1 2475   9.620  10.146   9.080  1.7891  2.1310 -0.1597
33281SOL    HW2 2476   9.687  10.011   9.075 -0.7939  0.7179  0.9982
33282SOL     OW 2477   2.728   6.872  10.327  0.2094  0.1395 -0.0816
33282SOL    HW1 2478   2.657   6.855  10.265  1.2567  0.1984 -1.3377
33282SOL    HW2 2479   2.793   6.920  10.277  2.2879 -2.0904  0.2665
33283SOL     OW 2480   1.563   2.639   1.601 -0.2001  0.8939  0.2665
33283SOL    HW1 2481   1.523   2.695   1.668 -1.1280  1.0370 -0.3923
33283SOL    HW2 2482   1.599   2.565   1.650 -2.5564  0.0082  0.7719
33284SOL     OW 2483   1.427   7.747   5.313 -0.0795 -0.0393  0.5665
33284SOL    HW1 2484   1.420   7.840   5.333 -0.1115 -0.1421  1.0625
33284SOL    HW2 2485   1.428   7.704   5.399  2.1221 -0.3595  0.4356
33285SOL     OW 2486   3.087   0.810   5.953 -0.3038  0.4969  0.4504
33285SOL    HW1 2487   3.095   0.715   5.960  1.8035  0.3422 -2.4014
33285SOL    HW2 2488   3.018   0.824   5.888  0.5920  0.7976 -0.4701
33286SOL     OW 2489   8.419   9.705   2.087  0.1752  0.1676 -0.2481
33286SOL    HW1 2490   8.407   9.783   2.141 -0.7065 -1.3188  1.8439
33286SOL    HW2 2491   8.332   9.665   2.083  1.1442 -2.4671  1.7236
33287SOL     OW 2492   0.340   6.466   7.313 -0.1339 -1.0408  0.1891
33287SOL    HW1 2493   0.404   6.442   7.246 -0.9558 -0.9101 -0.6595
33287SOL    HW2 2494   0.259   6.483   7.264 -0.1518  1.3980  0.9353
33288SOL     OW 2495   2.019   6.878   3.023  0.2955  0.3481 -0.2644
33288SOL    HW1 2496   2.081   6.921   2.964 -0.8003 -0.5185 -2.1450
33288SOL    HW2 2497   1.991   6.800   2.975 -0.0069 -0.8889  1.7990
33289SOL     OW 2498   8.306   9.894   2.247  0.1954 -0.3169  0.2770
33289SOL    HW1 2499   8.327   9.905   2.340  0.5154  1.1156  0.0465
33289SOL    HW2 2500   8.300   9.983   2.212  1.6274 -0.8328 -1.4262
33290SOL     OW 2501   5.547   2.178   6.362  0.1324 -0.7538 -0.0962
33290SOL    HW1 2502   5.534   2.161   6.268 -0.8187 -0.8763  0.0425
33290SOL    HW2 2503   5.459   2.196   6.395  0.6381  0.7880  0.4890
33291SOL     OW 2504   7.894   8.489   7.074  0.1786  0.3715  0.1288
33291SOL    HW1 2505   7.840   8.523   7.003 -0.2237 -0.0034  0.2574
33291SOL    HW2 2506   7.847   8.512   7.154  1.8985  3.2152  0.4918
33292SOL     OW 2507   2.803   9.197   3.953 -0.4749 -0.5747  0.3022
33292SOL    HW1 2508   2.898   9.192   3.957 -0.4426  0.4316  1.3509
33292SOL    HW2 2509   2.773   9.153   4.032 -0.7315  1.4563  1.4218
33293SOL     OW 2510   0.242   8.926   8.977 -0.2468  0.1826 -0.1301
33293SOL    HW1 2511   0.199   8.844   8.953 -0.6686  0.4683 -0.3735
33293SOL    HW2 2512   0.319   8.900   9.028  0.1609 -0.3989 -1.0267
33294SOL     OW 2513   7.043   3.975   6.674 -0.2991  0.1722 -0.3096
33294SOL    HW1 2514   6.974   4.035   6.703 -0.1303  0.4882 -0.5592
33294SOL    HW2 2515   7.112   3.985   6.740  1.2347  2.8908 -2.1568
33295SOL     OW 2516   8.948   7.232   1.672 -0.1326 -0.3675 -0.4061
33295SOL    HW1 2517   8.948   7.323   1.704 -0.3926 -0.6404  0.3937
33295SOL    HW2 2518   9.009   7.187   1.730 -1.8828 -1.2440  0.8477
33296SOL     OW 2519   8.871   7.336   1.180 -0.3073  0.2529  0.6423
33296SOL    HW1 2520   8.881   7.251   1.136 -0.1479 -0.7336  2.4774
33296SOL    HW2 2521   8.777   7.344   1.196 -0.3048  0.3217  0.6202
33297SOL     OW 2522   5.866   6.055   2.931 -0.6368  0.4622 -0.1208
33297SOL    HW1 2523   5.885   5.999   2.855  0.1794  0.0285  0.3917
33297SOL    HW2 2524   5.951   6.087   2.958 -0.9452  0.7536  0.5152
33298SOL     OW 2525   8.515   5.144   8.409 -0.1410  0.0329  0.1233
33298SOL    HW1 2526   8.476   5.089   8.340 -0.4985  2.3050 -1.6035
33298SOL    HW2 2527   8.500   5.095   8.490 -1.1398 -2.0124 -1.2113
33299SOL     OW 2528   7.933   7.393   3.797 -0.0669 -0.0571 -0.2781
33299SOL    HW1 2529   7.891   7.420   3.879 -0.1929 -1.0585  0.0034
33299SOL    HW2 2530   7.868   7.412   3.730 -0.7123 -0.9488  0.0770
33300SOL     OW 2531   9.195   4.559   0.523 -0.0676  0.5083 -0.2064
33300SOL    HW1 2532   9.282   4.597   0.512 -0.4842  1.8463  0.7675
33300SOL    HW2 2533   9.192   4.534   0.616 -0.6274  0.2421 -0.2950
33301SOL     OW 2534   8.265   8.315   7.049 -0.0420 -0.3522  0.1779
33301SOL    HW1 2535   8.177   8.310   7.087  0.2231  1.6002  1.1699
33301SOL    HW2 2536   8.254   8.279   6.961 -1.4859 -1.5702  0.8041
33302SOL     OW 2537   6.195   4.885   4.663 -0.4193  0.1017 -0.0502
33302SOL    HW1 2538   6.245   4.966   4.674  1.2108 -0.8312 -0.3519
33302SOL    HW2 2539   6.108   4.914   4.636 -0.1622  1.7907  0.8171
33303SOL     OW 2540   6.582   4.812   4.364  0.1777 -0.5173 -0.2634
33303SOL    HW1 2541   6.525   4.748   4.406  1.8073 -1.7607  0.1800
33303SOL    HW2 2542   6.632   4.762   4.300  1.1808  0.3988 -0.2268
33304SOL     OW 2543  10.266   5.329   8.248 -0.7172 -0.1821 -0.1681
33304SOL    HW1 2544  10.296   5.413   8.283  2.2280 -0.2116 -2.2618
33304SOL    HW2 2545  10.346   5.284   8.220 -2.3747 -2.7548 -1.1869
33305SOL     OW 2546   4.571   9.489   8.924  0.0590  0.6020 -0.4681
33305SOL    HW1 2547   4.641   9.517   8.982 -0.5130  2.9565 -0.8265
33305SOL    HW2 2548   4.533   9.570   8.890 -1.2287 -0.6430 -2.2186
33306SOL     OW 2549   5.982   5.897   0.914 -0.3790 -0.3158  0.2138
33306SOL    HW1 2550   5.998   5.868   0.824 -1.3027 -1.6355  0.4384
33306SOL    HW2 2551   5.958   5.989   0.905 -0.7735 -0.5015 -0.9393
33307SOL     OW 2552   4.770   2.782   6.230  0.6557 -0.1641  0.3787
33307SOL    HW1 2553   4.759   2.731   6.310  1.0276 -4.2845 -1.9066
33307SOL    HW2 2554   4.859   2.817   6.236 -0.0558  1.4426  2.5891
33308SOL     OW 2555   0.661   3.267   2.070 -0.1945  1.2115 -0.3425
33308SOL    HW1 2556   0.594   3.270   2.138  1.2895  0.5420  1.2258
33308SOL    HW2 2557   0.743   3.288   2.116  0.9667 -0.0048 -1.7471
33309SOL     OW 2558   3.176   3.107   6.532  0.0408 -0.3719  0.5562
33309SOL    HW1 2559   3.083   3.130   6.531  0.1539  0.1144 -0.9972
33309SOL    HW2 2560   3.210   3.143   6.450  1.6432 -0.3917  1.1902
33310SOL     OW 2561   4.660   6.907   9.917 -0.0546 -0.1534  1.1323
33310SOL    HW1 2562   4.741   6.943   9.952  1.2741 -0.2503 -1.5485
33310SOL    HW2 2563   4.626   6.976   9.860  0.3602 -1.5304 -0.8911
33311SOL     OW 2564   5.450   0.356   1.261  0.7357  0.0531  0.0538
33311SOL    HW1 2565   5.487   0.414   1.327  0.4343 -0.6872  0.9008
33311SOL    HW2 2566   5.370   0.322   1.302  0.5152 -0.3705 -0.7166
33312SOL     OW 2567   9.706   8.050   0.263  0.3479 -0.2207  0.2356
33312SOL    HW1 2568   9.737   7.960   0.250 -1.0131 -0.8252  0.9513
33312SOL    HW2 2569   9.766   8.087   0.328 -0.2278 -1.2805  1.4038
33313SOL     OW 2570   2.169   2.158   9.215  0.8031  0.2523 -0.0938
33313SOL    HW1 2571   2.146   2.225   9.150 -0.1412  0.7712  0.7518
33313SOL    HW2 2572   2.221   2.205   9.280  2.9496 -0.5598 -1.1318
33314SOL     OW 2573   9.802   4.645   4.683 -0.2784 -0.3071  0.2163
33314SOL    HW1 2574   9.729   4.702   4.659  0.7057  0.8395 -0.1862
33314SOL    HW2 2575   9.865   4.656   4.611  1.0958  0.2161  1.4427
33315SOL     OW 2576   8.163   5.376   3.702 -0.1108  0.6991  0.1250
33315SOL    HW1 2577   8.227   5.398   3.770  1.9477 -3.4087 -0.1927
33315SOL    HW2 2578   8.197   5.417   3.623  1.5539 -0.3506  0.2339
33316SOL     OW 2579   2.823   7.285   6.406 -1.0912 -0.1167  0.3230
33316SOL    HW1 2580   2.734   7.305   6.434 -1.2107 -0.7788  0.4295
33316SOL    HW2 2581   2.819   7.195   6.375 -0.8023  0.3643 -1.1775
33317SOL     OW 2582   1.165   1.328   7.632  0.8033  0.5200 -0.1578
33317SOL    HW1 2583   1.089   1.343   7.688  0.1760 -1.0085 -0.5456
33317SOL    HW2 2584   1.174   1.409   7.581  1.1609  1.8008  1.8212
33318SOL     OW 2585   0.605   2.609   0.665  0.5058 -0.1283 -0.6720
33318SOL    HW1 2586   0.678   2.613   0.604 -0.0527 -1.5121 -1.4815
33318SOL    HW2 2587   0.638   2.560   0.740  0.5379 -0.4219 -0.8743
33319SOL     OW 2588   3.816   3.966   6.117  0.3402  0.1753  0.1190
33319SOL    HW1 2589   3.820   4.062   6.114  1.4387  0.1662  0.6427
33319SOL    HW2 2590   3.771   3.941   6.037 -0.0839  1.1391  0.0400
33320SOL     OW 2591   2.579   5.388   1.925 -0.3128 -0.1482 -0.1434
33320SOL    HW1 2592   2.649   5.438   1.968 -0.1783 -0.5611  0.1276
33320SOL    HW2 2593   2.623   5.344   1.853  0.3792 -2.7065  1.6953
33321SOL     OW 2594   5.629   5.285   4.018  0.3017  0.1810  0.1788
33321SOL    HW1 2595   5.586   5.269   3.935  0.8111 -1.5484  0.2104
33321SOL    HW2 2596   5.715   5.244   4.009  0.4148  0.0791  1.5156
33322SOL     OW 2597  10.322   7.208   8.267 -0.4235 -0.0519  0.0543
33322SOL    HW1 2598  10.392   7.155   8.305  0.6796  0.3745 -1.2708
33322SOL    HW2 2599  10.304   7.275   8.334  1.6782  0.8774 -0.2106
33323SOL     OW 2600   6.312   6.838   5.814 -0.0801  0.0287 -0.0848
33323SOL    HW1 2601   6.241   6.827   5.877 -1.9125 -0.2396 -2.0902
33323SOL    HW2 2602   6.342   6.749   5.796  2.0659  0.2273  2.0528
33324SOL     OW 2603   4.002   8.287   3.070  0.0774 -0.2024  0.2792
33324SOL    HW1 2604   3.914   8.325   3.070 -0.1358 -0.6534  1.1648
33324SOL    HW2 2605   4.060   8.362   3.080 -0.2923 -0.0097  1.1270
33325SOL     OW 2606   6.163   0.978   0.931  0.4349  0.6705 -0.0410
33325SOL    HW1 2607   6.089   0.941   0.884 -0.2746  1.2590  0.5976
33325SOL    HW2 2608   6.181   0.915   1.001  2.2968 -0.8591 -1.7645
33326SOL     OW 2609   0.034   6.845   3.151 -0.1082  0.3625 -0.4404
33326SOL    HW1 2610   0.127   6.822   3.157 -0.3014 -0.0805  1.3329
33326SOL    HW2 2611   0.027   6.928   3.199 -0.8384 -0.3105  0.6463
33327SOL     OW 2612   7.323   0.542   4.339 -0.0763  0.4253  0.7302
33327SOL    HW1 2613   7.330   0.447   4.350  0.6245  0.4935  0.8989
33327SOL    HW2 2614   7.343   0.558   4.247  0.7987  0.4966  0.9232
33328SOL     OW 2615   7.106   2.023   5.349  0.6542 -0.0768 -0.0364
33328SOL    HW1 2616   7.033   1.971   5.382  0.5984 -0.8858 -1.3835
33328SOL    HW2 2617   7.105   2.103   5.403  1.1685 -1.7011  2.5451
33329SOL     OW 2618   2.162   8.545   1.036  0.0077  0.6793  0.2438
33329SOL    HW1 2619   2.176   8.450   1.028 -0.2355  0.6914 -0.4243
33329SOL    HW2 2620   2.143   8.559   1.129 -1.2458 -0.1197  0.1406
33330SOL     OW 2621   5.682   9.447   2.945 -0.1248 -0.0789 -0.1444
33330SOL    HW1 2622   5.592   9.442   2.913  0.0915  1.1620 -0.9904
33330SOL    HW2 2623   5.733   9.478   2.870  0.9741 -0.5356  0.3947
33331SOL     OW 2624   5.905   2.162   0.676  0.1447 -0.1321 -0.0004
33331SOL    HW1 2625   5.897   2.249   0.637 -2.1410  0.5949  1.8251
33331SOL    HW2 2626   5.880   2.102   0.606 -0.8216  0.8945 -0.5748
33332SOL     OW 2627   3.219   5.916   0.157 -0.3541 -0.2887 -0.6836
33332SOL    HW1 2628   3.306   5.881   0.175  0.0442  1.0913  0.2403
33332SOL    HW2 2629   3.221   6.005   0.193 -2.3218 -0.4296 -0.0814
33333SOL     OW 2630   8.558   4.295   8.552  0.2475  0.1142 -0.1385
33333SOL    HW1 2631   8.519   4.359   8.612 -2.4129 -1.7313  0.2257
33333SOL    HW2 2632   8.522   4.317   8.466 -0.2695 -0.5608 -0.0994
33334SOL     OW 2633   7.516   9.976   7.786 -0.4370 -0.1895 -0.0892
33334SOL    HW1 2634   7.497  10.049   7.844 -1.2116  0.1268 -0.7129
33334SOL    HW2 2635   7.560   9.912   7.841 -0.7523  0.2883  0.7357
33335SOL     OW 2636   9.637   9.967   4.149  0.0278 -0.4993  0.0540
33335SOL    HW1 2637   9.542   9.964   4.164 -0.3161 -3.1693 -2.0808
33335SOL    HW2 2638   9.670   9.886   4.186  1.6326  0.6144  1.2095
33336SOL     OW 2639   8.402   4.364   1.269 -0.4451  0.5564  0.1822
33336SOL    HW1 2640   8.481   4.313   1.286 -0.7312 -0.1908 -0.6295
33336SOL    HW2 2641   8.359   4.317   1.197 -0.4506  2.2412 -0.9668
33337SOL     OW 2642   0.888   1.153   6.668  0.3315  0.3452 -0.8409
33337SOL    HW1 2643   0.806   1.106   6.685  0.0502  0.4827 -1.7636
33337SOL    HW2 2644   0.877   1.238   6.711  0.3245  0.0580 -0.2679
33338SOL     OW 2645   4.536  10.332   0.178 -0.0356  0.1274 -0.2906
33338SOL    HW1 2646   4.458  10.384   0.163  0.5867  1.3630  0.5641
33338SOL    HW2 2647   4.529  10.305   0.270 -0.0281 -0.7668 -0.5424
33339SOL     OW 2648   5.078   6.410   3.745 -0.2563  0.6058 -0.0802
33339SOL    HW1 2649   5.141   6.479   3.766 -0.9701  0.8779  1.2949
33339SOL    HW2 2650   5.077   6.407   3.650  0.0125  2.3236 -0.1792
33340SOL     OW 2651   1.458   3.076   5.946 -0.7089 -0.1529  0.0340
33340SOL    HW1 2652   1.522   3.137   5.982 -0.1559 -0.4729 -0.3830
33340SOL    HW2 2653   1.489   2.990   5.972 -0.9724 -0.3115 -0.1673
33341SOL     OW 2654   6.596   8.283   2.689 -0.7065 -0.1046  0.0968
33341SOL    HW1 2655   6.609   8.363   2.638  1.0808 -1.0238 -1.0167
33341SOL    HW2 2656   6.590   8.314   2.780 -1.3336  1.3773 -0.4167
33342SOL     OW 2657   8.883   6.300   5.772  0.4199  0.3252 -0.4216
33342SOL    HW1 2658   8.958   6.241   5.779 -0.6554 -1.2066 -1.0823
33342SOL    HW2 2659   8.808   6.245   5.796 -0.6413  1.4036 -1.1634
33343SOL     OW 2660   8.630   6.914   6.263 -0.2563 -0.7879  0.6934
33343SOL    HW1 2661   8.683   6.855   6.317 -0.2728 -1.1596  0.3075
33343SOL    HW2 2662   8.632   6.875   6.176 -0.4254 -0.3164  0.4758
33344SOL     OW 2663   4.714   7.206   1.614  0.0072 -0.0694 -0.3545
33344SOL    HW1 2664   4.662   7.156   1.677  0.9159 -1.6300 -0.8068
33344SOL    HW2 2665   4.650   7.264   1.572 -0.7171  0.6095  1.5610
33345SOL     OW 2666   5.585   3.254   9.891 -0.5678 -0.6026 -0.7881
33345SOL    HW1 2667   5.653   3.293   9.837 -0.6256 -3.0349 -2.8103
33345SOL    HW2 2668   5.504   3.269   9.843 -1.2525  0.6287  0.6619
33346SOL     OW 2669   1.590   5.786   5.517  0.4144 -0.1888 -0.3367
33346SOL    HW1 2670   1.644   5.799   5.439  0.4471 -0.3492 -0.3418
33346SOL    HW2 2671   1.567   5.693   5.515 -0.9988  0.1461 -1.0711
33347SOL     OW 2672   4.057   7.252   9.029  0.3330  0.0932 -0.1593
33347SOL    HW1 2673   4.073   7.179   8.969 -0.4169  0.9718 -1.4743
33347SOL    HW2 2674   4.093   7.328   8.984 -0.8888  0.8887  0.1497
33348SOL     OW 2675   2.555   1.844   9.865 -0.1288  0.0492 -0.5494
33348SOL    HW1 2676   2.645   1.862   9.839  0.3027  0.7468  1.2902
33348SOL    HW2 2677   2.501   1.881   9.795  0.9871  0.3966 -1.2427
33349SOL     OW 2678   1.970   9.472   5.851  0.1017 -0.1594 -0.1856
33349SOL    HW1 2679   1.951   9.551   5.902  1.3650 -0.1761  0.3318
33349SOL    HW2 2680   2.011   9.412   5.913  0.4542 -0.6866 -0.9147
33350SOL     OW 2681   7.285   2.880   9.447 -0.5973  0.2107 -0.0362
33350SOL    HW1 2682   7.293   2.946   9.378 -0.2537  0.0176 -0.1799
33350SOL    HW2 2683   7.239   2.807   9.405  0.7258 -0.4261 -0.4357
33351SOL     OW 2684   2.773   8.717   1.071  0.3996  0.0372  0.1805
33351SOL    HW1 2685   2.830   8.641   1.085  0.8458  0.1422 -0.9495
33351SOL    HW2 2686   2.686   8.679   1.056 -0.0609 -0.0934  2.7229
33352SOL     OW 2687   4.754   5.913   1.620 -0.3995  0.6761  0.7224
33352SOL    HW1 2688   4.838   5.910   1.574 -0.4370 -0.4361  0.7075
33352SOL    HW2 2689   4.773   5.882   1.708 -0.9231 -0.3962  0.4833
33353SOL     OW 2690   7.954  10.118   6.619 -0.1093 -0.4289 -0.3743
33353SOL    HW1 2691   8.028  10.147   6.673 -0.3882 -1.3530  0.5433
33353SOL    HW2 2692   7.890  10.085   6.682 -1.1932  0.0837 -1.1767
33354SOL     OW 2693   1.152   8.619   9.420 -0.5664  0.8491 -0.5064
33354SOL    HW1 2694   1.140   8.610   9.515 -3.2947 -0.2772 -0.8676
33354SOL    HW2 2695   1.228   8.564   9.401 -0.9243 -0.1823  0.8571
33355SOL     OW 2696   5.073   3.013   0.611  0.6462 -0.2687  0.1862
33355SOL    HW1 2697   5.110   3.053   0.533 -1.7147 -0.4506 -1.1157
33355SOL    HW2 2698   5.125   2.933   0.624  0.3503 -0.8734 -1.9617
33356SOL     OW 2699   7.345   0.609   3.304 -0.6170  0.4934 -0.4524
33356SOL    HW1 2700   7.410   0.554   3.260 -1.6777 -0.9378 -0.3256
33356SOL    HW2 2701   7.376   0.613   3.395 -0.3220  0.4320 -0.5481
33357SOL     OW 2702   1.125   0.851   8.160 -0.4359 -0.8995  0.0613
33357SOL    HW1 2703   1.083   0.776   8.119 -1.5406 -0.1372 -0.2790
33357SOL    HW2 2704   1.055   0.917   8.165  0.7419  0.4421 -0.5527
33358SOL     OW 2705   2.567   1.684   5.601 -0.8068  0.0458 -1.0637
33358SOL    HW1 2706   2.614   1.722   5.527 -1.1811 -0.2292 -1.4424
33358SOL    HW2 2707   2.516   1.613   5.564  0.4027 -1.2935 -0.2486
33359SOL     OW 2708   2.479   1.974   9.634 -0.3827  0.1338  0.0539
33359SOL    HW1 2709   2.459   2.063   9.665  0.7692 -0.2362  2.0385
33359SOL    HW2 2710   2.408   1.953   9.573 -0.8369  2.2912 -0.2277
33360SOL     OW 2711   7.559   9.446   9.658  0.1229  0.1322 -1.1946
33360SOL    HW1 2712   7.469   9.478   9.658 -0.5262 -1.5220  0.3418
33360SOL    HW2 2713   7.610   9.518   9.694 -1.1331 -0.0755  1.2181
33361SOL     OW 2714   5.404   6.449   8.681  0.0520  0.0852  0.4619
33361SOL    HW1 2715   5.490   6.443   8.639 -0.0452 -0.7417  0.3579
33361SOL    HW2 2716   5.423   6.470   8.772  0.3205  0.7811  0.2455
33362SOL     OW 2717  10.106   9.374   3.309  0.4083  0.0931 -0.4368
33362SOL    HW1 2718  10.152   9.295   3.339  0.5405  0.3723  0.1020
33362SOL    HW2 2719  10.173   9.443   3.312 -0.1290  0.5829  0.7135
33363SOL     OW 2720   2.297   1.518  10.245 -0.5690  0.3454  0.7884
33363SOL    HW1 2721   2.342   1.505  10.328 -0.5543 -0.4483  0.6655
33363SOL    HW2 2722   2.368   1.522  10.180 -0.6548 -1.6226  0.5016
33364SOL     OW 2723   9.063   8.844   2.376  0.0779  0.8751 -0.5964
33364SOL    HW1 2724   9.101   8.863   2.462  2.1751  1.2525 -1.5364
33364SOL    HW2 2725   9.118   8.893   2.315 -1.0935  0.2640 -2.1988
33365SOL     OW 2726   5.857   3.004   9.789 -0.2280 -0.1921  0.1517
33365SOL    HW1 2727   5.854   3.099   9.799  1.1423 -0.0382 -0.6892
33365SOL    HW2 2728   5.801   2.987   9.713 -1.4574 -0.2088  1.0305
33366SOL     OW 2729   4.725   4.921   9.051  0.4628 -0.1019  0.4862
33366SOL    HW1 2730   4.815   4.901   9.026  0.8442 -0.4249  1.9679
33366SOL    HW2 2731   4.709   4.864   9.127 -1.2545 -0.5889 -0.1954
33367SOL     OW 2732   4.830   8.479   7.559 -0.1739 -0.2364  0.1564
33367SOL    HW1 2733   4.832   8.399   7.505  2.0273 -1.5006  1.9398
33367SOL    HW2 2734   4.766   8.460   7.627  0.5785 -0.6721  0.7664
33368SOL     OW 2735   2.149   7.926   1.141  0.1397  0.3337  0.2639
33368SOL    HW1 2736   2.146   7.853   1.080 -0.3387  0.0815  0.5889
33368SOL    HW2 2737   2.074   7.913   1.199  0.0513  1.0694  0.3352
33369SOL     OW 2738   3.114   8.519   4.227 -0.4499  0.2522  0.7025
33369SOL    HW1 2739   3.040   8.467   4.197  0.7048 -0.6985 -0.6549
33369SOL    HW2 2740   3.102   8.527   4.322 -1.1712 -1.6964  0.8093
33370SOL     OW 2741  10.264   9.574   0.957  0.3233 -0.2721 -0.5768
33370SOL    HW1 2742  10.279   9.662   0.990  0.0642 -0.5641  0.3412
33370SOL    HW2 2743  10.331   9.562   0.889 -0.0789  0.8646 -1.1927
33371SOL     OW 2744   4.763   9.642   7.406  0.5240 -0.0244 -0.0563
33371SOL    HW1 2745   4.809   9.725   7.396  0.0914  0.2005 -0.1972
33371SOL    HW2 2746   4.681   9.665   7.450 -0.3718 -0.1225 -1.5999
33372SOL     OW 2747   1.347   3.588   5.739  0.2767  0.0449  0.1791
33372SOL    HW1 2748   1.281   3.588   5.808  0.3978  0.8376  0.3135
33372SOL    HW2 2749   1.298   3.574   5.659 -0.1402  1.1717  0.2205
33373SOL     OW 2750   8.359   0.785   6.965 -0.1334 -0.6527 -0.3413
33373SOL    HW1 2751   8.351   0.711   7.025 -2.6723 -0.2524 -0.0531
33373SOL    HW2 2752   8.334   0.749   6.879 -1.9931 -0.0911 -0.0921
33374SOL     OW 2753   3.519   1.473   5.653  0.2467 -0.5066 -0.5241
33374SOL    HW1 2754   3.433   1.496   5.618  0.1242 -0.4585 -0.1941
33374SOL    HW2 2755   3.531   1.532   5.728  0.2473 -1.0191 -0.1187
33375SOL     OW 2756   1.236   1.922   1.409 -0.1104 -0.5200 -0.4048
33375SOL    HW1 2757   1.177   1.867   1.357 -0.7303 -1.8407  1.5688
33375SOL    HW2 2758   1.292   1.860   1.456 -1.0430  0.4188  2.1501
33376SOL     OW 2759   2.181   5.544   8.690  0.6942 -0.2328  0.3455
33376SOL    HW1 2760   2.272   5.532   8.664  0.6548  1.7884 -0.8924
33376SOL    HW2 2761   2.184   5.602   8.765  0.4011  0.8223 -0.4347
33377SOL     OW 2762   5.247   1.449   0.932 -0.4257  0.5577 -0.2508
33377SOL    HW1 2763   5.264   1.399   1.012 -1.0144 -0.9435 -1.0325
33377SOL    HW2 2764   5.170   1.408   0.894 -0.2057  1.3029 -1.5502
33378SOL     OW 2765   5.627   9.573   0.806  0.6839 -0.2268  0.5842
33378SOL    HW1 2766   5.610   9.490   0.851  0.6849 -1.0862 -0.9370
33378SOL    HW2 2767   5.585   9.563   0.721 -0.6914  1.9696  0.9197
33379SOL     OW 2768   7.474   1.061   8.586  0.2569  0.8340  0.4220
33379SOL    HW1 2769   7.490   1.072   8.679  1.6669 -1.0925  0.4719
33379SOL    HW2 2770   7.405   0.995   8.580  1.1858 -0.1384  0.1292
33380SOL     OW 2771   0.098   5.305   6.094 -0.1435  0.4640 -0.1076
33380SOL    HW1 2772   0.184   5.295   6.053  0.7129  0.0456  1.6851
33380SOL    HW2 2773   0.117   5.339   6.182 -1.6537 -1.2639  0.9508
33381SOL     OW 2774   6.780   3.503   2.192  0.2679  0.6375  0.3320
33381SOL    HW1 2775   6.865   3.526   2.153  0.3429  0.5403  0.4384
33381SOL    HW2 2776   6.800   3.482   2.283  0.0590  1.0807  0.4834
33382SOL     OW 2777   0.206   6.008   3.437  0.4843  0.2155  0.0382
33382SOL    HW1 2778   0.174   6.098   3.431 -0.3625 -0.0673  0.1226
33382SOL    HW2 2779   0.279   6.004   3.376 -0.2917  0.6295 -0.9478
33383SOL     OW 2780   9.195   2.579   0.743  1.2166  0.3451  0.0362
33383SOL    HW1 2781   9.156   2.644   0.802 -0.1972  0.1354 -0.6296
33383SOL    HW2 2782   9.287   2.574   0.770  0.6869  0.4989  1.9988
33384SOL     OW 2783   6.558   3.075   5.168  0.3095  0.2896 -0.1181
33384SOL    HW1 2784   6.606   3.046   5.245 -0.1466 -1.3391 -0.4059
33384SOL    HW2 2785   6.625   3.106   5.107  1.0277 -1.7700 -0.4444
33385SOL     OW 2786   0.546   4.764   8.963  0.3637 -0.6057 -0.0477
33385SOL    HW1 2787   0.588   4.694   9.013  2.3494 -0.6154 -1.5956
33385SOL    HW2 2788   0.601   4.841   8.976 -1.4024  0.5429  1.0549
33386SOL     OW 2789   7.923   4.448   3.089  0.0792  0.4936  0.5650
33386SOL    HW1 2790   7.839   4.493   3.101 -0.9376 -0.7551 -1.3444
33386SOL    HW2 2791   7.965   4.494   3.016 -0.2986 -0.6756 -0.4149
33387SOL     OW 2792   7.945   2.710   5.475 -0.1887 -0.0898  0.1190
33387SOL    HW1 2793   7.908   2.645   5.416  1.8398 -1.2529  0.0209
33387SOL    HW2 2794   7.968   2.784   5.418 -1.3955  0.2349  0.0353
33388SOL     OW 2795   4.185   8.101   1.985 -0.2446 -0.3190 -0.0270
33388SOL    HW1 2796   4.264   8.075   2.033 -0.1221  1.6825  0.9570
33388SOL    HW2 2797   4.214   8.110   1.894  0.1854 -1.4008 -0.0216
33389SOL     OW 2798   9.827   0.522   2.162  0.6486 -0.2299  0.4010
33389SOL    HW1 2799   9.783   0.463   2.223 -1.1110 -0.2003 -0.7938
33389SOL    HW2 2800   9.808   0.610   2.194  1.4301 -0.2398  0.9279
33390SOL     OW 2801   5.474   2.704   6.604 -0.3338  0.5181  0.3905
33390SOL    HW1 2802   5.528   2.756   6.664 -0.7932 -0.3455  1.5778
33390SOL    HW2 2803   5.538   2.657   6.549  0.1407 -0.1398  1.4775
33391SOL     OW 2804  10.166   1.936   3.410  0.0478 -0.5598  0.5486
33391SOL    HW1 2805  10.239   1.901   3.462  0.3836 -1.7638 -0.6575
33391SOL    HW2 2806  10.206   2.004   3.356  0.1680 -0.8100  0.3174
33392SOL     OW 2807  10.058   2.269   3.487 -0.5951 -0.7383 -0.1362
33392SOL    HW1 2808   9.990   2.328   3.519 -1.5300 -2.7942  1.9523
33392SOL    HW2 2809  10.109   2.322   3.426 -1.8483  1.9534  0.9981
33393SOL     OW 2810   3.303   2.415   5.581 -0.3342  0.3704  0.3727
33393SOL    HW1 2811   3.359   2.398   5.657  0.1731  1.0160  0.1519
33393SOL    HW2 2812   3.214   2.401   5.613 -0.1232  0.5973  1.0729
33394SOL     OW 2813   3.309   6.813   1.279  0.2899  0.1747  0.0311
33394SOL    HW1 2814   3.345   6.886   1.330 -0.2018  0.9506 -0.7073
33394SOL    HW2 2815   3.356   6.816   1.196 -0.5959  0.4260 -0.4727
33395SOL     OW 2816   5.568   3.465   6.287  0.2614  0.6563 -0.2618
33395SOL    HW1 2817   5.585   3.375   6.259  1.0713  0.8596 -0.4250
33395SOL    HW2 2818   5.481   3.461   6.326 -0.6984  0.2413 -2.2836
33396SOL     OW 2819   2.152   4.547   8.124  0.3668  0.3476  0.5992
33396SOL    HW1 2820   2.100   4.626   8.109  0.5692  0.2402 -0.8591
33396SOL    HW2 2821   2.132   4.522   8.214 -1.0419  1.0898  0.5295
33397SOL     OW 2822   6.625  10.063   0.018  0.0942 -0.1135 -0.1128
33397SOL    HW1 2823   6.574  10.141  -0.004 -0.8179 -0.9305 -0.9308
33397SOL    HW2 2824   6.579  10.024   0.093  0.5469  0.1119  0.2924
33398SOL     OW 2825   3.096   3.201   9.136 -0.0211 -0.7216  0.1062
33398SOL    HW1 2826   3.138   3.151   9.207 -0.9566 -1.3431  0.2490
33398SOL    HW2 2827   3.124   3.157   9.056  0.1963 -0.6771  0.1585
33399SOL     OW 2828   2.704   0.935   1.687  0.0985 -0.0105 -0.0126
33399SOL    HW1 2829   2.655   1.009   1.649  0.3393  0.8799  1.3524
33399SOL    HW2 2830   2.706   0.953   1.781  0.7896 -1.4026  0.2676
33400SOL     OW 2831   6.502   4.856   2.996  0.1734 -0.4213  0.2254
33400SOL    HW1 2832   6.419   4.901   2.978  0.0658  0.0547  1.8077
33400SOL    HW2 2833   6.550   4.916   3.053  2.4763  0.2046 -2.1751
33401SOL     OW 2834   9.988   6.690   2.028  0.0085  0.3004 -0.5628
33401SOL    HW1 2835   9.926   6.760   2.044 -1.8092 -1.4843  0.7687
33401SOL    HW2 2836   9.953   6.615   2.077  2.4554 -1.2161 -0.9429
33402SOL     OW 2837  10.191   6.080   5.065 -0.1483  0.3607 -0.6269
33402SOL    HW1 2838  10.155   6.164   5.093  0.7842  0.7116 -0.4143
33402SOL    HW2 2839  10.286   6.091   5.074 -0.0490 -1.1715  0.7647
33403SOL     OW 2840   8.373   0.084   5.240 -0.3114 -0.1619 -0.1951
33403SOL    HW1 2841   8.290   0.061   5.198  0.1191  0.0740 -1.2215
33403SOL    HW2 2842   8.439   0.034   5.192  0.2630  0.5907 -0.2065
33404SOL     OW 2843   7.870   3.071   4.818 -0.0301 -0.3036 -0.0743
33404SOL    HW1 2844   7.881   3.136   4.748 -0.7252  1.5525  1.4235
33404SOL    HW2 2845   7.842   2.991   4.773  0.9237  0.3974 -2.0208
33405SOL     OW 2846   0.801   3.031   4.219  0.4928 -0.4857  0.3790
33405SOL    HW1 2847   0.886   3.062   4.188 -0.3048  0.7495 -0.6306
33405SOL    HW2 2848   0.799   3.057   4.311  0.9204  0.1104  0.2265
33406SOL     OW 2849   8.412   2.267   2.620  0.1402  0.2115  0.4701
33406SOL    HW1 2850   8.416   2.266   2.715  0.2128  2.7031  0.5583
33406SOL    HW2 2851   8.442   2.180   2.594 -0.7916 -0.8658  2.7175
33407SOL     OW 2852   0.169   0.227   1.007 -0.2017 -0.9946 -0.5880
33407SOL    HW1 2853   0.154   0.225   1.101 -0.7229 -0.4187 -0.6560
33407SOL    HW2 2854   0.107   0.164   0.971  1.6153 -3.0298 -0.3574
33408SOL     OW 2855   5.826   8.639   7.221  0.0379  0.4633 -0.1356
33408SOL    HW1 2856   5.868   8.629   7.306  0.6791 -1.1841 -0.6129
33408SOL    HW2 2857   5.795   8.730   7.220  0.3394  0.6133  1.6913
33409SOL     OW 2858   6.754   9.717   6.546  0.2187 -0.1288 -0.1738
33409SOL    HW1 2859   6.738   9.674   6.630 -2.6196 -0.4885 -0.8181
33409SOL    HW2 2860   6.735   9.650   6.480  2.3487  0.1623 -1.1700
33410SOL     OW 2861   8.519   1.210   3.948  0.3116  0.1927  0.3802
33410SOL    HW1 2862   8.477   1.284   3.992  3.3927  1.7519  1.0225
33410SOL    HW2 2863   8.612   1.236   3.943  1.1272 -2.6849 -1.4285
33411SOL     OW 2864  10.123   1.819   2.277 -0.2792 -0.9485 -0.5080
33411SOL    HW1 2865  10.037   1.808   2.237  0.0551 -1.7175 -1.0224
33411SOL    HW2 2866  10.105   1.868   2.358 -0.9832  0.4237 -1.4516
33412SOL     OW 2867   8.894   8.974   0.942  0.4162  0.5972  0.2426
33412SOL    HW1 2868   8.905   8.935   0.855  0.9231  2.8529 -0.7562
33412SOL    HW2 2869   8.833   9.046   0.929  0.6974  1.1341  1.7207
33413SOL     OW 2870   9.535   9.213   8.825 -0.6073 -0.0844  0.0218
33413SOL    HW1 2871   9.452   9.176   8.854 -1.0935  2.0998  1.6608
33413SOL    HW2 2872   9.511   9.281   8.763  0.0270  0.0025 -0.1419
33414SOL     OW 2873   0.222   4.663   4.099  0.0077 -0.1488  0.3697
33414SOL    HW1 2874   0.255   4.752   4.082  0.3158 -0.1879  0.7659
33414SOL    HW2 2875   0.189   4.666   4.189  1.3918 -0.8419  0.9184
33415SOL     OW 2876   9.475   4.040  10.199 -0.2432  1.0251  0.1132
33415SOL    HW1 2877   9.434   3.998  10.274  1.0120  0.2847  0.4254
33415SOL    HW2 2878   9.439   4.129  10.197 -0.5249  0.9513  1.3891
33416SOL     OW 2879   6.029   1.418   9.256  0.3449 -0.2628 -0.2643
33416SOL    HW1 2880   6.047   1.328   9.281  0.4665  0.1485  1.2478
33416SOL    HW2 2881   6.116   1.456   9.239  0.4019 -0.0872  0.3958
33417SOL     OW 2882   2.863   3.057   7.423  0.0329 -0.4156 -0.0599
33417SOL    HW1 2883   2.842   2.988   7.361  1.0298  0.2001 -1.1174
33417SOL    HW2 2884   2.913   3.121   7.372  1.4091 -0.1762  1.4962
33418SOL     OW 2885   8.353   1.731   3.069  0.2138 -0.5719  0.6401
33418SOL    HW1 2886   8.443   1.705   3.049 -0.5673 -1.2220 -2.8077
33418SOL    HW2 2887   8.309   1.649   3.091 -0.0534 -0.6827 -0.2549
33419SOL     OW 2888   4.280   1.425  10.288 -0.2883  0.1529  0.1481
33419SOL    HW1 2889   4.294   1.338  10.250 -0.4984  0.1360  0.1068
33419SOL    HW2 2890   4.232   1.408  10.369  0.5773  0.1495  0.6743
33420SOL     OW 2891   1.635   3.863   3.428 -0.2224 -0.6283 -0.2226
33420SOL    HW1 2892   1.689   3.929   3.471  1.1211 -1.4632 -0.5720
33420SOL    HW2 2893   1.606   3.806   3.500  2.9730 -2.7119 -0.3849
33421SOL     OW 2894   9.158   8.548   4.161  0.3103  0.1564  0.3219
33421SOL    HW1 2895   9.221   8.532   4.232 -0.2694  1.1598  1.0920
33421SOL    HW2 2896   9.170   8.641   4.140  1.8336 -0.5230 -2.2754
33422SOL     OW 2897   8.309   0.562   9.294  0.0172 -0.5495 -0.0225
33422SOL    HW1 2898   8.257   0.501   9.346 -0.8309  0.7477  0.7062
33422SOL    HW2 2899   8.354   0.507   9.229 -0.9913 -1.8843  0.3796
33423SOL     OW 2900   6.989   4.352   9.057  0.1977 -0.2029  0.1460
33423SOL    HW1 2901   6.945   4.269   9.072 -0.4531 -0.3692 -2.2577
33423SOL    HW2 2902   6.970   4.373   8.965  1.6946  1.7970  0.2264
33424SOL     OW 2903   4.325   3.190   1.686  0.2585  0.0976  0.2075
33424SOL    HW1 2904   4.321   3.283   1.708 -0.3672  0.0388  0.3713
33424SOL    HW2 2905   4.292   3.185   1.596  1.2260  0.1452 -0.1558
33425SOL     OW 2906   1.033   7.417   3.975 -0.5705  0.6987  0.6746
33425SOL    HW1 2907   1.117   7.373   3.987 -0.9499  0.0125  0.8562
33425SOL    HW2 2908   0.990   7.410   4.061 -1.3912 -0.2028  0.2087
33426SOL     OW 2909   3.756   1.538   0.774 -0.0160  0.0284 -0.1929
33426SOL    HW1 2910   3.689   1.582   0.723  0.2340  1.5460  0.7267
33426SOL    HW2 2911   3.709   1.471   0.824 -0.9302  1.2583  0.6525
33427SOL     OW 2912   0.276   3.717   2.085  0.3028  0.0765 -0.3791
33427SOL    HW1 2913   0.342   3.662   2.128 -0.3805 -0.8756 -0.5100
33427SOL    HW2 2914   0.289   3.803   2.124  2.8444  0.4027 -1.7104
33428SOL     OW 2915   4.387   4.043   6.854 -0.3202  0.1736 -0.1547
33428SOL    HW1 2916   4.303   4.085   6.873  0.7639  2.4731 -0.0131
33428SOL    HW2 2917   4.397   3.977   6.922 -1.3447  0.9201  0.7558
33429SOL     OW 2918   8.326   6.045   1.070  0.1706  0.3753 -0.1882
33429SOL    HW1 2919   8.344   6.133   1.036  0.9672  0.5268  0.5652
33429SOL    HW2 2920   8.403   5.994   1.044 -0.1524 -0.0228 -0.3635
33430SOL     OW 2921   9.846   4.085   9.004 -0.1885  0.1394 -0.3867
33430SOL    HW1 2922   9.778   4.083   9.071 -0.3100  0.2028 -0.5063
33430SOL    HW2 2923   9.899   4.008   9.021 -0.9236 -0.5110 -0.9437
33431SOL     OW 2924   0.949   2.334   2.281 -0.1291  0.0528  0.1116
33431SOL    HW1 2925   0.925   2.257   2.230  2.1175 -0.7710  0.1840
33431SOL    HW2 2926   0.875   2.349   2.339 -1.2424 -1.1207 -0.9518
33432SOL     OW 2927   3.145   9.756   3.673 -0.5176  0.0809  0.0338
33432SOL    HW1 2928   3.214   9.700   3.636 -1.0860  0.6809 -2.1075
33432SOL    HW2 2929   3.189   9.837   3.696 -0.6331  1.1154 -2.8905
33433SOL     OW 2930   7.293   2.640   8.742 -0.4830 -0.4874 -0.4138
33433SOL    HW1 2931   7.326   2.722   8.779 -0.5441 -0.9959  0.8091
33433SOL    HW2 2932   7.238   2.668   8.669 -0.6598  0.5819  0.0985
33434SOL     OW 2933   3.450   4.235   2.286  0.0114 -0.2333 -0.9884
33434SOL    HW1 2934   3.527   4.198   2.243 -0.6958 -1.8353 -0.9249
33434SOL    HW2 2935   3.380   4.226   2.222 -0.5195 -0.4325 -0.3900
33435SOL     OW 2936   2.434   1.705   2.783  0.0309  0.3507 -0.2889
33435SOL    HW1 2937   2.495   1.634   2.763 -0.2937  0.6161 -2.4785
33435SOL    HW2 2938   2.483   1.785   2.762 -0.5031  0.6369 -0.4674
33436SOL     OW 2939   6.100   3.755   2.276  0.3352 -0.1354 -0.4529
33436SOL    HW1 2940   6.029   3.704   2.315 -0.8866  1.8157  0.0099
33436SOL    HW2 2941   6.170   3.751   2.342 -0.2597 -0.0705  0.1922
33437SOL     OW 2942   1.123   1.272   6.217 -0.1170 -0.3720  0.3292
33437SOL    HW1 2943   1.115   1.367   6.215 -0.6448 -0.3715  1.6899
33437SOL    HW2 2944   1.033   1.240   6.221  0.0551 -0.9325 -0.1080
33438SOL     OW 2945   5.087   2.349  10.110  0.3764 -0.1027  0.3265
33438SOL    HW1 2946   5.034   2.429  10.110  1.2704  0.5216  1.8831
33438SOL    HW2 2947   5.091   2.324  10.017  0.8347  2.1781 -0.3383
33439SOL     OW 2948   2.567   3.509   0.227  0.0906  0.2941 -0.9071
33439SOL    HW1 2949   2.662   3.504   0.219  0.0633  0.3700 -1.3044
33439SOL    HW2 2950   2.536   3.427   0.188  0.0389 -0.2478  0.2166
33440SOL     OW 2951   7.678   9.754   7.184  0.3102 -0.7892  0.2509
33440SOL    HW1 2952   7.608   9.728   7.243  0.1079 -0.0149  0.3511
33440SOL    HW2 2953   7.678   9.849   7.185  0.8915 -0.7703 -0.3061
33441SOL     OW 2954  10.055   6.446   8.808  0.1882 -0.1448  0.2097
33441SOL    HW1 2955  10.083   6.536   8.827 -1.6134  0.5684 -0.3709
33441SOL    HW2 2956  10.131   6.407   8.764  1.2061  0.8947  0.9586
33442SOL     OW 2957   6.111   0.230   7.089 -0.4292  0.4323  0.0704
33442SOL    HW1 2958   6.091   0.323   7.077 -0.0973  0.5165  0.1598
33442SOL    HW2 2959   6.042   0.199   7.149 -1.2776  0.3265 -0.9272
33443SOL     OW 2960   2.921  10.224   9.726 -0.0237  0.4434 -0.1801
33443SOL    HW1 2961   2.888  10.196   9.641  0.0228 -1.4422  0.3769
33443SOL    HW2 2962   2.855  10.286   9.758 -0.3274  0.7298 -1.3248
33444SOL     OW 2963   7.830   1.983   0.075 -0.1167  0.0024 -0.5425
33444SOL    HW1 2964   7.763   2.051   0.078 -2.7428 -2.4240  0.9865
33444SOL    HW2 2965   7.851   1.974  -0.017 -0.6134  2.0034 -0.8978
33445SOL     OW 2966   6.209   1.535   7.642  0.0651 -0.0483 -0.2886
33445SOL    HW1 2967   6.183   1.459   7.693  1.1629 -0.3155 -0.1035
33445SOL    HW2 2968   6.183   1.610   7.696  1.4544 -0.3284  0.8065
33446SOL     OW 2969   2.081   4.864   1.037  0.1241 -0.0167  0.3718
33446SOL    HW1 2970   2.060   4.869   1.130 -0.3466  0.7919  0.2337
33446SOL    HW2 2971   2.003   4.826   0.997 -0.4767  1.4513  0.0725
33447SOL     OW 2972   9.592   0.582   6.761  0.0754  0.9267 -0.0925
33447SOL    HW1 2973   9.608   0.497   6.719 -0.1058  1.5345 -1.4200
33447SOL    HW2 2974   9.623   0.570   6.851  0.6753 -0.3383 -0.4453
33448SOL     OW 2975   3.304   7.351   2.255 -0.5465 -0.1319 -0.1075
33448SOL    HW1 2976   3.356   7.369   2.177  0.5600  3.0178  1.1703
33448SOL    HW2 2977   3.349   7.279   2.299  0.5843  0.0794 -0.8773
33449SOL     OW 2978   6.834   8.852   1.805 -0.7113  0.5203 -0.0713
33449SOL    HW1 2979   6.924   8.878   1.784 -0.0064 -1.2421  0.6384
33449SOL    HW2 2980   6.808   8.794   1.733 -1.3636  1.1544 -0.3608
33450SOL     OW 2981   9.271  10.347   1.766 -0.4456 -0.3709  0.7975
33450SOL    HW1 2982   9.177  10.365   1.759 -0.4679 -0.9775 -1.1306
33450SOL    HW2 2983   9.309  10.392   1.691  0.5609 -1.5529  0.5736
33451SOL     OW 2984   6.436   5.749   2.743 -0.4480 -0.2138  0.0691
33451SOL    HW1 2985   6.509   5.688   2.750  0.4721  0.8618  0.1303
33451SOL    HW2 2986   6.477   5.836   2.742 -1.5996  0.3588 -1.7276
33452SOL     OW 2987   9.950   0.528   6.933  0.0077 -0.3354 -0.7662
33452SOL    HW1 2988   9.994   0.462   6.987  0.3494  2.5306  2.9023
33452SOL    HW2 2989   9.857   0.517   6.952  0.1450  0.8238  0.7527
33453SOL     OW 2990   6.378   7.168   0.445  0.2502  0.3070 -0.6950
33453SOL    HW1 2991   6.374   7.073   0.450  0.3154  0.2917 -0.9196
33453SOL    HW2 2992   6.460   7.187   0.398 -0.4439  0.4286 -1.9155
33454SOL     OW 2993   7.094   0.513   8.456  0.1614 -0.1225 -0.3420
33454SOL    HW1 2994   7.000   0.504   8.466  0.2485 -1.8872 -0.7692
33454SOL    HW2 2995   7.125   0.545   8.541 -0.8257  0.5672 -0.2390
33455SOL     OW 2996   9.352   1.560   0.653  0.3246 -0.0216  0.3907
33455SOL    HW1 2997   9.275   1.530   0.604 -0.1712  0.8899  0.5907
33455SOL    HW2 2998   9.416   1.490   0.641 -0.0273 -0.1505 -0.9872
33456SOL     OW 2999   0.696   6.231   8.249 -0.1307 -0.3228 -1.0063
33456SOL    HW1 3000   0.681   6.315   8.206 -0.8934  0.3882  0.6041
33456SOL    HW2 3001   0.664   6.166   8.186 -1.0486  0.6747 -1.6020
33457SOL     OW 3002   1.851   8.068   0.834  0.1483 -0.1885 -0.1854
33457SOL    HW1 3003   1.817   8.108   0.755  0.3435  2.0997  0.8089
33457SOL    HW2 3004   1.794   7.992   0.849 -2.1513  1.3421 -0.6137
33458SOL     OW 3005   4.652  10.314   6.182  0.1841 -0.6459 -0.0691
33458SOL    HW1 3006   4.738  10.355   6.170 -0.6952  0.7463 -1.9797
33458SOL    HW2 3007   4.668  10.221   6.168  1.2360 -0.3005 -1.3285
33459SOL     OW 3008   4.868   3.344   4.190  0.2145 -0.4275 -0.1336
33459SOL    HW1 3009   4.819   3.280   4.139  0.8813 -0.9626 -0.1087
33459SOL    HW2 3010   4.828   3.340   4.277 -1.8561  1.4727 -0.8911
33460SOL     OW 3011   6.823   9.909   5.432  0.8501 -0.3416  0.2938
33460SOL    HW1 3012   6.729   9.896   5.427  0.7297  0.3518  0.7068
33460SOL    HW2 3013   6.859   9.853   5.363  0.1772 -0.9796  0.4534
33461SOL     OW 3014   9.931   5.824   7.977  0.0563  0.8543  0.2095
33461SOL    HW1 3015   9.923   5.920   7.979  1.2155  0.9973 -0.7671
33461SOL    HW2 3016   9.989   5.803   8.050 -0.3570  0.8740  0.5451
33462SOL     OW 3017   7.552   7.089   8.304 -0.8145  0.3645  0.6687
33462SOL    HW1 3018   7.638   7.094   8.344 -0.9774  0.3936  1.0191
33462SOL    HW2 3019   7.569   7.090   8.209 -0.2304 -2.3658  0.6524
33463SOL     OW 3020   9.833   8.519   9.499  0.3740  0.6265  0.2873
33463SOL    HW1 3021   9.889   8.596   9.509  2.0214 -0.4578 -0.3620
33463SOL    HW2 3022   9.866   8.475   9.421  0.2747 -1.4065  1.3369
33464SOL     OW 3023   8.938   7.140   0.103  0.1812  0.4225  0.4812
33464SOL    HW1 3024   9.015   7.123   0.048 -0.6920 -1.3085 -0.2812
33464SOL    HW2 3025   8.863   7.122   0.045 -0.8291  2.5079  1.0677
33465SOL     OW 3026   5.210   8.155   8.149  0.2659  0.2290  0.4420
33465SOL    HW1 3027   5.170   8.124   8.230  1.4866  0.0307  0.9823
33465SOL    HW2 3028   5.268   8.226   8.176 -0.9134  1.6122 -0.5341
33466SOL     OW 3029   1.125   7.257   9.811 -0.0190  0.0107 -0.6579
33466SOL    HW1 3030   1.104   7.164   9.797 -1.2774  0.1208  0.2697
33466SOL    HW2 3031   1.168   7.260   9.896 -1.9277  0.4735  0.3524
33467SOL     OW 3032   3.316   1.565   9.334  0.0177  0.2492  0.5556
33467SOL    HW1 3033   3.225   1.554   9.308 -0.1367  1.1892  0.6490
33467SOL    HW2 3034   3.332   1.497   9.399  0.3208 -2.0069 -1.6911
33468SOL     OW 3035   8.017   4.177   9.240 -0.2326 -0.7087  0.1059
33468SOL    HW1 3036   7.939   4.228   9.217  0.9930  0.3245 -2.0686
33468SOL    HW2 3037   8.063   4.232   9.304 -0.2726 -0.3858 -0.1433
33469SOL     OW 3038   6.298   3.765   4.463 -0.3384 -0.4878  0.3786
33469SOL    HW1 3039   6.356   3.715   4.521  1.2004  0.2962 -0.4079
33469SOL    HW2 3040   6.314   3.856   4.486 -1.2045 -0.2463  0.0617
33470SOL     OW 3041   1.859   6.867   1.063 -0.0339  0.1226  0.0474
33470SOL    HW1 3042   1.768   6.871   1.036 -0.1969 -2.2134  0.0759
33470SOL    HW2 3043   1.908   6.851   0.982 -0.1313 -2.8156  0.4540
33471SOL     OW 3044   8.312   3.554   6.092  0.1310 -0.2975 -0.2602
33471SOL    HW1 3045   8.403   3.555   6.062 -0.6272 -0.7683 -2.8535
33471SOL    HW2 3046   8.296   3.463   6.115  0.3930 -0.1534  0.5098
33472SOL     OW 3047   3.841   8.239   9.076  0.4876  0.2670  0.4294
33472SOL    HW1 3048   3.789   8.174   9.121  0.1822  0.6766  0.6699
33472SOL    HW2 3049   3.929   8.228   9.111  0.3117  0.3862  0.9047
33473SOL     OW 3050   7.960   7.154   7.770 -0.0085  0.2546 -0.4891
33473SOL    HW1 3051   7.888   7.166   7.709 -0.2055 -0.7256 -0.4694
33473SOL    HW2 3052   7.953   7.227   7.831  0.8177  1.8748 -2.2061
33474SOL     OW 3053   1.623   0.800   1.212 -0.2282 -0.4949  0.3652
33474SOL    HW1 3054   1.642   0.731   1.276 -1.9494  0.3213  1.8462
33474SOL    HW2 3055   1.528   0.812   1.218 -0.4692 -0.4021 -2.4081
33475SOL     OW 3056   1.332   2.645   0.421  0.4442  0.3016  0.1139
33475SOL    HW1 3057   1.238   2.627   0.423  0.3851  0.6572  0.8294
33475SOL    HW2 3058   1.369   2.586   0.487  0.3341  2.1894  1.9879
33476SOL     OW 3059   9.189   0.495   8.606 -0.4080 -0.8871  0.1039
33476SOL    HW1 3060   9.118   0.518   8.666 -1.7361 -1.6058 -1.1116
33476SOL    HW2 3061   9.222   0.578   8.573 -0.5544 -0.5388  0.8216
33477SOL     OW 3062   3.570   0.008   1.211  0.3608 -0.3322  0.0456
33477SOL    HW1 3063   3.548  -0.044   1.288  2.2470  0.0733  0.9316
33477SOL    HW2 3064   3.587   0.096   1.246 -0.3142  0.2716 -1.0752
33478SOL     OW 3065   8.844   9.670   1.628  0.3262 -0.5085 -0.5185
33478SOL    HW1 3066   8.881   9.718   1.702  2.6605  2.8806 -3.5244
33478SOL    HW2 3067   8.904   9.596   1.615  1.6646  0.5556 -0.6760
33479SOL     OW 3068   7.483   7.612   4.864  0.0252 -0.5470  0.3779
33479SOL    HW1 3069   7.539   7.585   4.791  0.6267 -1.9108  1.3192
33479SOL    HW2 3070   7.446   7.531   4.897 -1.1795  0.1815  0.8571
33480SOL     OW 3071   8.623   6.338   6.316 -0.1148  0.2010  0.3876
33480SOL    HW1 3072   8.539   6.359   6.357 -0.8156 -1.4375 -0.1263
33480SOL    HW2 3073   8.629   6.242   6.320  1.7303  0.2669  0.3827
33481SOL     OW 3074   8.828   9.212   7.951  0.1812 -0.3064  0.5890
33481SOL    HW1 3075   8.855   9.235   8.040 -1.6609  0.9522  0.8831
33481SOL    HW2 3076   8.754   9.152   7.963  0.5913 -0.9719 -0.1237
33482SOL     OW 3077   6.565   0.393   7.153 -0.7201  0.1427  0.1677
33482SOL    HW1 3078   6.530   0.478   7.180 -1.6997 -0.9115  2.4374
33482SOL    HW2 3079   6.636   0.376   7.214  0.2639 -0.1819 -1.0181
33483SOL     OW 3080   8.417   9.382   1.075 -0.0273 -0.4725  0.4067
33483SOL    HW1 3081   8.419   9.351   0.984 -0.9187  0.2121  0.1368
33483SOL    HW2 3082   8.354   9.326   1.119  0.5872 -0.9644  0.6813
33484SOL     OW 3083   2.258   3.861   9.109 -0.3476 -0.2616  0.1179
33484SOL    HW1 3084   2.278   3.951   9.134 -0.0001  0.1135 -1.4424
33484SOL    HW2 3085   2.164   3.861   9.091 -0.6882 -0.6318  1.6888
33485SOL     OW 3086   5.712   0.614   4.188 -0.0064  0.1341  0.5978
33485SOL    HW1 3087   5.671   0.695   4.156  0.0838  1.0238  2.5742
33485SOL    HW2 3088   5.799   0.641   4.216 -0.7009 -0.1205  3.2791
33486SOL     OW 3089   3.946   8.482   7.183  0.5259 -0.3812  0.0476
33486SOL    HW1 3090   3.953   8.535   7.103  0.4577 -0.9883 -0.3629
33486SOL    HW2 3091   3.927   8.546   7.252 -1.0018 -0.0113 -0.6799
33487SOL     OW 3092   4.433   9.056   1.381 -0.7042  0.6922  0.4740
33487SOL    HW1 3093   4.513   9.010   1.357 -0.0268  1.9916  0.1404
33487SOL    HW2 3094   4.369   9.028   1.316 -0.7210 -0.8182  1.0972
33488SOL     OW 3095   4.173   3.127   3.131  0.0002  0.2235  0.2043
33488SOL    HW1 3096   4.203   3.075   3.057  0.8263 -1.5675  1.7319
33488SOL    HW2 3097   4.246   3.187   3.149  0.0736  0.1899  0.0241
33489SOL     OW 3098   9.451   8.418   4.173 -0.2528 -0.0458 -0.4518
33489SOL    HW1 3099   9.404   8.419   4.256 -0.9631 -0.2471 -0.8407
33489SOL    HW2 3100   9.543   8.404   4.197 -0.3466  0.6027  0.3350
33490SOL     OW 3101   4.794   8.310   0.535  0.7163 -0.2341  0.1330
33490SOL    HW1 3102   4.845   8.307   0.617  1.0174  0.4477 -0.0266
33490SOL    HW2 3103   4.860   8.297   0.466  0.8099  1.4446 -0.1194
33491SOL     OW 3104   1.660   0.553   2.147 -0.1510  0.0786 -0.6215
33491SOL    HW1 3105   1.740   0.532   2.196  1.2368  1.5433 -2.1371
33491SOL    HW2 3106   1.592   0.559   2.214  0.9811 -1.2071  0.7140
33492SOL     OW 3107   1.760   7.504   5.030 -0.5463  0.4310  0.0714
33492SOL    HW1 3108   1.819   7.447   5.078  0.3459  1.5220  0.3284
33492SOL    HW2 3109   1.808   7.527   4.950 -0.6330  1.2570  0.2412
33493SOL     OW 3110   8.421   7.892   3.262  0.4068  0.1103  0.0290
33493SOL    HW1 3111   8.500   7.861   3.306  1.2060  0.5008 -1.0762
33493SOL    HW2 3112   8.414   7.836   3.184  0.6271  1.2428 -0.8249
33494SOL     OW 3113   1.282   9.332   2.058 -0.6079  0.1334 -0.1214
33494SOL    HW1 3114   1.198   9.298   2.087 -0.3753  0.1658  0.5986
33494SOL    HW2 3115   1.319   9.374   2.135 -0.3413  0.9427 -0.6714
33495SOL     OW 3116   4.249   5.070   9.932 -0.1285 -0.0163  0.7531
33495SOL    HW1 3117   4.175   5.052   9.874  0.9163  1.4723 -1.1348
33495SOL    HW2 3118   4.275   4.984   9.965 -1.7979 -0.7195  0.3780
33496SOL     OW 3119  10.158   3.662   7.390 -0.7297  0.0797 -0.0156
33496SOL    HW1 3120  10.141   3.752   7.364 -0.9454 -0.0658 -0.3977
33496SOL    HW2 3121  10.250   3.661   7.416  0.4368 -0.3429 -3.5820
33497SOL     OW 3122   5.468   7.906   7.661  0.0372 -0.3249  0.3664
33497SOL    HW1 3123   5.476   7.884   7.568  1.5477 -0.4126  0.4925
33497SOL    HW2 3124   5.443   7.999   7.662 -2.3245 -0.8852 -0.1156
33498SOL     OW 3125   5.297   9.332   5.041 -0.3213  0.2817 -0.1681
33498SOL    HW1 3126   5.298   9.240   5.015 -0.0746  0.6407 -1.5068
33498SOL    HW2 3127   5.215   9.366   5.004 -0.9113  0.3776  1.1829
33499SOL     OW 3128  10.224   2.693   1.979 -0.3118  0.4101  0.3943
33499SOL    HW1 3129  10.158   2.747   1.935 -1.9161 -0.0421  2.1070
33499SOL    HW2 3130  10.206   2.705   2.072  0.2517 -1.8957  0.8661
33500SOL     OW 3131   4.908   3.957   8.909  0.5070  0.0435  0.2151
33500SOL    HW1 3132   4.814   3.939   8.920  0.4205  0.3678  0.0283
33500SOL    HW2 3133   4.950   3.905   8.978  0.1664  0.1364  0.4985
33501SOL     OW 3134   0.668   3.167   8.025 -0.2042  0.8348 -0.5416
33501SOL    HW1 3135   0.591   3.173   8.081  0.5144  0.8193  0.4850
33501SOL    HW2 3136   0.642   3.109   7.954 -1.1002  0.7233 -0.1357
33502SOL     OW 3137  10.171   9.165   2.599 -0.5036  0.1381  0.1336
33502SOL    HW1 3138  10.139   9.255   2.601  1.4483  0.9319 -1.3165
33502SOL    HW2 3139  10.187   9.142   2.690  0.3115  1.7911  0.4308
33503SOL     OW 3140   8.845   0.587   4.879 -0.3093  0.3444  0.1954
33503SOL    HW1 3141   8.785   0.587   4.953  0.7768  0.8372  1.1157
33503SOL    HW2 3142   8.867   0.680   4.867 -1.3134  0.3977 -1.4779
33504SOL     OW 3143   2.017   1.238   6.957 -0.1047 -0.5914  0.3947
33504SOL    HW1 3144   1.975   1.250   6.872 -2.1820 -0.3082  1.3857
33504SOL    HW2 3145   2.009   1.323   7.000  1.6306 -0.5033  0.6015
33505SOL     OW 3146   0.278   0.227   7.148  0.6625 -0.4030  0.3728
33505SOL    HW1 3147   0.284   0.132   7.136  2.0213 -0.5365  1.7675
33505SOL    HW2 3148   0.186   0.248   7.130  0.3367 -1.9810  0.0573
33506SOL     OW 3149  10.123   3.194   4.285  0.4097 -0.6381 -0.2132
33506SOL    HW1 3150  10.101   3.101   4.279 -2.0510 -0.2205  0.8962
33506SOL    HW2 3151  10.129   3.223   4.194  2.4886 -2.0864 -0.6039
33507SOL     OW 3152   3.399   8.569  10.046 -0.3378  0.4290  0.3641
33507SOL    HW1 3153   3.481   8.567   9.997  1.0834 -2.6113  2.5449
33507SOL    HW2 3154   3.354   8.488  10.022 -1.0322  0.3628  1.7708
33508SOL     OW 3155   4.357   5.267   7.732 -0.3138  0.1423  0.1916
33508SOL    HW1 3156   4.417   5.332   7.768  0.8084 -0.0362 -1.2948
33508SOL    HW2 3157   4.408   5.186   7.729 -0.9468 -0.2496 -0.1540
33509SOL     OW 3158   0.045   8.709   7.803 -0.7140 -0.2343 -0.4303
33509SOL    HW1 3159   0.110   8.775   7.781 -2.5495  1.3570 -1.3562
33509SOL    HW2 3160   0.023   8.725   7.895 -0.9618  0.2922 -0.5794
33510SOL     OW 3161   2.624   6.009   7.708 -0.1626  0.4213  0.0266
33510SOL    HW1 3162   2.543   5.959   7.713  1.5392 -2.6442 -1.0101
33510SOL    HW2 3163   2.667   5.995   7.792 -0.1099  0.9948  0.1040
33511SOL     OW 3164   3.052   5.341   4.068 -0.0858  0.1623  0.1113
33511SOL    HW1 3165   3.132   5.348   4.016 -1.3310 -0.7126 -2.0920
33511SOL    HW2 3166   3.022   5.431   4.079  0.9392  0.4622  0.5579
33512SOL     OW 3167  10.360   3.512   8.991  0.0707 -0.7495  0.5062
33512SOL    HW1 3168  10.428   3.482   8.931  1.0983  1.1389  0.6698
33512SOL    HW2 3169  10.400   3.507   9.077 -0.4068 -0.7131  0.7334
33513SOL     OW 3170   6.244   3.523   9.931  0.1873 -0.2422  0.3564
33513SOL    HW1 3171   6.315   3.579   9.960 -0.1267 -0.4770  1.6811
33513SOL    HW2 3172   6.218   3.474  10.010 -1.8222  0.2693  0.0844
33514SOL     OW 3173   9.003   1.848   9.029 -0.0621 -0.1951 -0.4583
33514SOL    HW1 3174   9.037   1.779   9.087 -0.4309  0.2849  0.3515
33514SOL    HW2 3175   8.908   1.843   9.040 -0.0449  1.5081  0.9094
33515SOL     OW 3176   6.714   3.194   2.868  0.0644  0.0517 -0.0767
33515SOL    HW1 3177   6.651   3.248   2.915 -3.1690 -1.2793 -2.5242
33515SOL    HW2 3178   6.709   3.224   2.777  4.1840  0.8366 -0.2735
33516SOL     OW 3179   1.733   6.005   8.682  0.2505 -0.2543  0.1430
33516SOL    HW1 3180   1.697   6.024   8.769 -0.5433  0.7530 -0.3855
33516SOL    HW2 3181   1.737   5.909   8.679 -1.0547 -0.3576  0.7804
33517SOL     OW 3182   7.754   8.641   1.637  0.3273 -0.0404 -0.2747
33517SOL    HW1 3183   7.849   8.644   1.643  0.2409  1.5791  0.8901
33517SOL    HW2 3184   7.725   8.599   1.717  0.0692 -1.6415 -1.1679
33518SOL     OW 3185   1.971   7.436   0.210 -0.2648 -0.1894  0.2319
33518SOL    HW1 3186   1.930   7.460   0.293 -0.8609 -1.6515  0.3897
33518SOL    HW2 3187   1.937   7.500   0.147 -1.3398 -0.2323  0.7368
33519SOL     OW 3188   8.718   0.647   7.582  0.1366  0.2726  0.0407
33519SOL    HW1 3189   8.690   0.632   7.492 -2.6339 -0.0614  0.8750
33519SOL    HW2 3190   8.687   0.735   7.604 -0.6325 -0.2403  1.1303
33520SOL     OW 3191   3.787   8.066   0.603  0.2987  0.0438  0.4226
33520SOL    HW1 3192   3.791   8.056   0.698 -0.7837  1.0090  0.5842
33520SOL    HW2 3193   3.718   8.130   0.588  0.1477 -0.4256 -1.0452
33521SOL     OW 3194   8.174  10.336   1.621 -0.5542  0.5151 -0.0127
33521SOL    HW1 3195   8.258  10.380   1.605 -0.9492  1.4403  0.4159
33521SOL    HW2 3196   8.108  10.399   1.594 -1.1317  0.2054  0.6417
33522SOL     OW 3197   7.796   1.202  10.123  0.5910  0.5020 -0.3480
33522SOL    HW1 3198   7.803   1.145  10.047  0.0627  0.0624 -0.0759
33522SOL    HW2 3199   7.749   1.279  10.091 -2.6062 -1.0427  0.2092
33523SOL     OW 3200   9.413   3.022   5.480 -0.1745 -0.5474  0.5870
33523SOL    HW1 3201   9.372   3.108   5.471 -3.4918 -2.0816 -0.5422
33523SOL    HW2 3202   9.472   3.031   5.556  0.0763  2.7945  0.1362
33524SOL     OW 3203   1.085   2.876   2.245 -0.0487 -0.3537  0.6215
33524SOL    HW1 3204   1.164   2.851   2.292  0.7743 -1.2911 -1.1382
33524SOL    HW2 3205   1.057   2.795   2.202 -1.0983  0.3058  0.0190
33525SOL     OW 3206   7.719   7.634   2.893 -0.2137 -0.4013  0.6300
33525SOL    HW1 3207   7.732   7.571   2.822 -0.5251 -1.5429  1.5576
33525SOL    HW2 3208   7.804   7.676   2.904 -0.2638  0.0919 -0.6758
33526SOL     OW 3209   7.395   3.631   9.781  0.2450 -0.4177  0.0767
33526SOL    HW1 3210   7.317   3.617   9.729  0.1247 -0.8404  0.3588
33526SOL    HW2 3211   7.363   3.642   9.871  0.4364  0.4536  0.0461
33527SOL     OW 3212   1.228   4.500   6.361  0.3074  0.1769  0.3032
33527SOL    HW1 3213   1.296   4.434   6.371 -0.0861 -0.2465  0.2452
33527SOL    HW2 3214   1.197   4.516   6.450  1.6578  1.6612  0.5543
33528SOL     OW 3215  10.287   8.343   3.040 -0.3539 -0.1184  0.3044
33528SOL    HW1 3216  10.370   8.388   3.051 -0.6547  0.2722  1.0453
33528SOL    HW2 3217  10.299   8.259   3.085 -0.3026 -0.1349  0.2611
33529SOL     OW 3218   6.942   0.067   4.840  0.1834  0.2901  0.1271
33529SOL    HW1 3219   6.886   0.001   4.799  0.6425  0.0871 -0.1797
33529SOL    HW2 3220   6.881   0.136   4.868 -0.2612 -0.0983  0.1410
33530SOL     OW 3221   7.343   2.415   3.952  0.4727 -0.4970 -0.2616
33530SOL    HW1 3222   7.250   2.403   3.933  0.0824  1.6787  0.0304
33530SOL    HW2 3223   7.355   2.377   4.039 -0.0331 -1.1960 -0.4883
33531SOL     OW 3224   5.337   0.883   7.496 -0.0221  0.5296  0.2497
33531SOL    HW1 3225   5.365   0.961   7.448 -1.4344  1.2385  0.5228
33531SOL    HW2 3226   5.245   0.899   7.517 -0.8748 -1.9328 -1.1294
33532SOL     OW 3227   2.457   9.113   6.938 -0.0086  0.8744 -0.6390
33532SOL    HW1 3228   2.373   9.101   6.981  1.2085 -1.9325  1.2978
33532SOL    HW2 3229   2.480   9.026   6.905  1.8385  1.6923 -1.6981
33533SOL     OW 3230   9.087   4.982   3.125 -0.2469 -0.4057 -0.2498
33533SOL    HW1 3231   9.098   4.889   3.141  0.6231 -0.2718 -0.0465
33533SOL    HW2 3232   9.124   5.025   3.202 -1.1418  0.1018 -0.0810
33534SOL     OW 3233   1.957   8.728   2.730 -0.1379  0.1305 -0.1551
33534SOL    HW1 3234   1.993   8.675   2.802  0.7010  2.0381  0.9158
33534SOL    HW2 3235   1.875   8.762   2.765 -0.0442  0.5447 -0.3350
33535SOL     OW 3236   4.726   9.086   6.781  0.3441 -0.0505 -0.0811
33535SOL    HW1 3237   4.654   9.030   6.811 -0.7338  0.8728 -0.8904
33535SOL    HW2 3238   4.774   9.108   6.861 -1.2312  0.6490  0.6989
33536SOL     OW 3239   3.253   9.521   4.589  0.2080  0.0868 -0.0576
33536SOL    HW1 3240   3.333   9.558   4.552  0.0352 -1.5702 -2.2630
33536SOL    HW2 3241   3.191   9.594   4.591  0.7944  0.6515 -1.4140
33537SOL     OW 3242   1.627   2.488   7.181 -0.0240  0.3365  0.0458
33537SOL    HW1 3243   1.549   2.529   7.219 -0.1451 -1.2091  1.6330
33537SOL    HW2 3244   1.656   2.426   7.248  2.2468  0.4349 -0.7440
33538SOL     OW 3245  10.134   7.350   2.249  0.3123 -0.0193 -0.3765
33538SOL    HW1 3246  10.129   7.443   2.225  1.1840  0.0331 -0.3819
33538SOL    HW2 3247  10.222   7.323   2.221  1.1002 -0.1690  1.9918
33539SOL     OW 3248   4.865   4.602   4.721  0.2976  0.0820  0.2062
33539SOL    HW1 3249   4.865   4.691   4.688 -0.2029  0.4037  1.0300
33539SOL    HW2 3250   4.912   4.607   4.805 -2.0096  0.1323  1.5882
33540SOL     OW 3251   6.856   8.018   7.817 -0.4295  0.2342  0.4021
33540SOL    HW1 3252   6.815   8.037   7.902 -2.0578  0.7918 -0.4634
33540SOL    HW2 3253   6.857   8.102   7.772 -0.4525 -0.2388 -0.4867
33541SOL     OW 3254   2.188   0.999   9.508  0.0185  0.0363 -0.1137
33541SOL    HW1 3255   2.184   0.919   9.455  1.9384 -0.4966  0.4617
33541SOL    HW2 3256   2.223   1.065   9.448  1.6028 -0.4144  0.2669
33542SOL     OW 3257   5.049   4.972   0.314  0.0940  0.1823  0.1476
33542SOL    HW1 3258   4.957   4.990   0.292 -0.6228 -3.0971 -0.0582
33542SOL    HW2 3259   5.051   4.975   0.410 -0.4220 -0.4265  0.1861
33543SOL     OW 3260   2.499   1.101   3.794  0.4311  0.2734  0.4776
33543SOL    HW1 3261   2.441   1.091   3.718  1.1489 -1.2536  0.0964
33543SOL    HW2 3262   2.444   1.141   3.861 -1.5057 -2.2656  0.5506
33544SOL     OW 3263   0.183   4.986   6.874  0.2845  0.2291  0.2309
33544SOL    HW1 3264   0.183   4.944   6.960 -2.3096 -2.7092 -1.0096
33544SOL    HW2 3265   0.250   4.940   6.824 -1.8762 -2.0794 -0.8145
33545SOL     OW 3266   8.352   6.451   9.601  0.1746  0.1847  0.1606
33545SOL    HW1 3267   8.438   6.490   9.586 -0.6996  1.7817 -0.9260
33545SOL    HW2 3268   8.339   6.391   9.528 -0.0735  0.7593 -0.2732
33546SOL     OW 3269   3.604   9.128   8.235  0.0445  0.0742 -0.1699
33546SOL    HW1 3270   3.566   9.173   8.311  0.4972  2.7367 -1.4051
33546SOL    HW2 3271   3.691   9.101   8.264 -0.2305  0.0000  0.6135
33547SOL     OW 3272   6.693   0.210   9.429  0.1214  0.4755  0.4102
33547SOL    HW1 3273   6.628   0.145   9.405 -0.2343  1.6517 -2.1693
33547SOL    HW2 3274   6.707   0.197   9.523 -3.8951  0.2233  1.1541
33548SOL     OW 3275   2.751   2.822   8.804 -0.2607  0.3175  0.0259
33548SOL    HW1 3276   2.820   2.780   8.856 -0.9476 -0.5668  0.2347
33548SOL    HW2 3277   2.776   2.915   8.803  1.6855 -0.1606 -1.0683
33549SOL     OW 3278   2.057   0.774   9.931  0.1654 -0.3771  0.6695
33549SOL    HW1 3279   1.984   0.795   9.989  0.1141 -1.3951  0.9912
33549SOL    HW2 3280   2.016   0.752   9.847  0.2099  0.5943  0.3800
33550SOL     OW 3281   1.815   1.913   2.278  0.1289  0.7545  0.2471
33550SOL    HW1 3282   1.846   1.986   2.332  1.0380  0.3776  0.2600
33550SOL    HW2 3283   1.894   1.862   2.259 -0.5438 -0.4366  0.5356
33551SOL     OW 3284   6.168   1.257   0.910  0.0206 -0.1688 -0.2907
33551SOL    HW1 3285   6.245   1.293   0.865 -0.7636  1.2479 -0.5766
33551SOL    HW2 3286   6.184   1.163   0.913  1.0796 -0.0771 -1.6887
33552SOL     OW 3287   8.447   0.783   1.626 -0.2545 -0.0075  0.0840
33552SOL    HW1 3288   8.475   0.705   1.675 -1.8142 -0.4700  0.3033
33552SOL    HW2 3289   8.417   0.844   1.693 -0.4620  0.1731 -0.1695
33553SOL     OW 3290   7.778   6.201   6.195 -0.6114 -0.0593 -0.0357
33553SOL    HW1 3291   7.717   6.269   6.222 -0.7111  0.1594 -0.7879
33553SOL    HW2 3292   7.828   6.180   6.274 -0.0103  1.4730  0.0084
33554SOL     OW 3293   0.096   5.276   1.473 -0.8565 -0.2274 -0.1300
33554SOL    HW1 3294   0.009   5.262   1.437  0.0373 -0.1192 -2.5183
33554SOL    HW2 3295   0.136   5.189   1.473 -0.9424 -0.2833  0.9945
33555SOL     OW 3296   8.740   3.323   5.760  1.2092  0.0774  0.1806
33555SOL    HW1 3297   8.773   3.399   5.712  1.4877  0.2776  0.6867
33555SOL    HW2 3298   8.795   3.317   5.838  1.1477 -0.6058  0.1801
33556SOL     OW 3299   7.614   2.406   6.314 -0.2463  0.6586 -0.3987
33556SOL    HW1 3300   7.688   2.439   6.263 -0.0617 -0.1996 -0.7022
33556SOL    HW2 3301   7.616   2.311   6.300  0.0926  0.3309  1.5750
33557SOL     OW 3302   6.957   0.336   1.627  0.6086 -0.3472  0.0866
33557SOL    HW1 3303   6.991   0.409   1.678  0.0475 -0.5019  0.7004
33557SOL    HW2 3304   6.971   0.361   1.536 -1.4933  1.5043  0.1919
33558SOL     OW 3305   6.984  10.338   6.290 -0.2572  0.4541 -0.0471
33558SOL    HW1 3306   6.977  10.242   6.294  0.8454  0.2836 -1.5148
33558SOL    HW2 3307   7.049  10.360   6.357  0.5959  0.0108 -0.7108
33559SOL     OW 3308   8.692   8.188   2.412 -0.6292 -0.6375 -0.4143
33559SOL    HW1 3309   8.639   8.152   2.483 -1.1608 -1.2170 -1.0973
33559SOL    HW2 3310   8.697   8.282   2.431 -0.5906 -0.8120  0.4944
33560SOL     OW 3311   8.051   2.179   8.892 -0.2863 -0.0244 -0.0894
33560SOL    HW1 3312   8.126   2.120   8.889 -0.9736 -0.8800 -1.3125
33560SOL    HW2 3313   8.073   2.241   8.961  1.3981 -0.4383 -0.1980
33561SOL     OW 3314  10.124   3.424   2.835 -0.7050  0.0702 -0.1845
33561SOL    HW1 3315  10.218   3.410   2.850 -1.2876 -3.2850  1.1226
33561SOL    HW2 3316  10.099   3.489   2.901  0.8642  2.0904 -1.4568
33562SOL     OW 3317   3.895   0.240   7.192 -0.0560 -0.0333 -0.1120
33562SOL    HW1 3318   3.972   0.289   7.222  0.1271 -0.7946  0.6910
33562SOL    HW2 3319   3.822   0.278   7.239 -0.3171  1.2038 -1.4348
33563SOL     OW 3320   2.669   0.387   6.149  0.2325  0.2340  0.2081
33563SOL    HW1 3321   2.743   0.350   6.102  0.0198  0.5815 -0.4126
33563SOL    HW2 3322   2.661   0.476   6.114  0.1562  0.5465  0.9997
33564SOL     OW 3323   6.407   1.944   0.207  0.4157  0.1603 -0.1774
33564SOL    HW1 3324   6.497   1.951   0.174 -1.1104 -0.1979 -5.4789
33564SOL    HW2 3325   6.390   2.028   0.250  2.3804  1.6153 -2.0137
33565SOL     OW 3326   6.107   4.779   4.368 -0.0011  0.1360 -0.3581
33565SOL    HW1 3327   6.070   4.736   4.445  2.1147  0.5990  1.0003
33565SOL    HW2 3328   6.049   4.855   4.353 -0.5082 -0.0193  0.7111
33566SOL     OW 3329   6.926   6.326   0.924 -0.1485  0.0589  1.0956
33566SOL    HW1 3330   7.015   6.359   0.939 -0.3234  0.8904  0.3779
33566SOL    HW2 3331   6.923   6.308   0.830 -0.7690  0.1189  1.1028
33567SOL     OW 3332   0.623   5.877   9.716  0.7640 -0.5629 -0.4388
33567SOL    HW1 3333   0.642   5.858   9.625  1.3126  0.1582 -0.4816
33567SOL    HW2 3334   0.580   5.798   9.749 -1.2554 -0.1020 -1.8322
33568SOL     OW 3335   4.160   8.339   7.107 -0.1876  0.3658 -0.2492
33568SOL    HW1 3336   4.160   8.330   7.012 -1.5795 -2.5167 -0.0938
33568SOL    HW2 3337   4.078   8.382   7.128  0.3023  1.3696 -0.3383
33569SOL     OW 3338   4.368   1.215   5.943 -0.5609 -0.5602 -0.0729
33569SOL    HW1 3339   4.440   1.216   5.881 -0.4917  0.7241 -0.0100
33569SOL    HW2 3340   4.390   1.145   6.005 -0.7298 -1.9910 -1.5692
33570SOL     OW 3341   6.778   7.296   4.372  0.1997  0.0656  0.2374
33570SOL    HW1 3342   6.869   7.269   4.383 -0.4194 -2.4407 -0.0826
33570SOL    HW2 3343   6.734   7.268   4.452 -0.2248  1.7494  0.6313
33571SOL     OW 3344   0.883   0.475   8.888  0.0016  0.5987  0.2660
33571SOL    HW1 3345   0.820   0.545   8.871 -0.1045  0.1677 -1.2560
33571SOL    HW2 3346   0.956   0.493   8.828  0.4456 -0.0043  0.6161
33572SOL     OW 3347   4.986   0.750   4.165  0.6964  0.2369 -0.5854
33572SOL    HW1 3348   4.939   0.828   4.134  0.9997  0.5918 -0.1652
33572SOL    HW2 3349   4.949   0.678   4.115 -2.8028 -0.0694  2.0715
33573SOL     OW 3350   9.057   6.224  10.130  0.5076 -0.1131 -0.3570
33573SOL    HW1 3351   9.093   6.307  10.161  2.0068 -1.0576  0.5415
33573SOL    HW2 3352   8.976   6.248  10.086  1.7841  2.0370 -1.7186
33574SOL     OW 3353   2.062   2.742   7.992  0.3818  0.4666 -0.1505
33574SOL    HW1 3354   1.996   2.675   8.010  0.2061  0.7530  0.2814
33574SOL    HW2 3355   2.022   2.796   7.924  0.1335  0.6869  0.1665
33575SOL     OW 3356   6.037   9.169   6.902  0.1503  0.3154  0.0370
33575SOL    HW1 3357   5.966   9.227   6.873 -0.8823 -1.6136 -1.4976
33575SOL    HW2 3358   5.997   9.114   6.970  1.1375  1.3317  1.5205
33576SOL     OW 3359   1.519   2.063   9.465  0.1016  0.0674  0.8514
33576SOL    HW1 3360   1.533   2.047   9.372 -0.0584  0.0695  0.8252
33576SOL    HW2 3361   1.456   2.135   9.468  0.0663  0.0334  0.9583
33577SOL     OW 3362   7.346   0.258   4.405 -0.3303  0.9611 -0.7283
33577SOL    HW1 3363   7.342   0.177   4.457  0.5509  0.5295 -1.2969
33577SOL    HW2 3364   7.439   0.271   4.389 -0.5344  1.5322 -1.5104
33578SOL     OW 3365   4.486   2.937   6.488 -0.1968  0.8703 -0.1809
33578SOL    HW1 3366   4.546   2.882   6.538  0.4926  0.5959 -1.2643
33578SOL    HW2 3367   4.518   2.931   6.398 -2.8178 -0.6016 -1.1121
33579SOL     OW 3368   5.896   7.038   8.356  0.1477  0.4649 -0.0327
33579SOL    HW1 3369   5.955   7.020   8.429  1.7495 -0.3772 -1.4627
33579SOL    HW2 3370   5.811   7.007   8.386  0.9143 -0.5026  1.2238
33580SOL     OW 3371   5.630   4.554   0.316  0.2042 -0.0477  0.5769
33580SOL    HW1 3372   5.659   4.596   0.235  1.8068 -1.1145  0.5584
33580SOL    HW2 3373   5.534   4.551   0.309  0.3432 -0.7389 -1.6135
33581SOL     OW 3374   8.529   5.400   0.258  0.1167  0.5860 -0.5455
33581SOL    HW1 3375   8.491   5.448   0.332 -0.6962 -1.2592  0.3095
33581SOL    HW2 3376   8.591   5.339   0.298 -0.9698 -1.0543 -1.2441
33582SOL     OW 3377   2.221  10.337   7.928 -0.2052  0.0169 -0.3428
33582SOL    HW1 3378   2.146  10.291   7.891 -0.2078  1.1499 -1.8472
33582SOL    HW2 3379   2.189  10.373   8.011 -1.5959  1.1540 -1.3248
33583SOL     OW 3380   5.950   1.825   0.865  0.2142  0.3597  0.1206
33583SOL    HW1 3381   5.942   1.886   0.792  0.5817  2.5769  1.8227
33583SOL    HW2 3382   5.884   1.853   0.928  0.9183 -0.5069  1.2916
33584SOL     OW 3383   5.315   2.780  10.094  0.1496  0.5669 -0.2074
33584SOL    HW1 3384   5.253   2.852  10.106 -0.6415 -0.0242 -0.6197
33584SOL    HW2 3385   5.271   2.721  10.032  1.2039  0.2211 -0.6540
33585SOL     OW 3386   1.257   9.016   0.602  0.1336 -0.0943  0.4125
33585SOL    HW1 3387   1.181   9.071   0.583  0.5613  0.9786  1.6904
33585SOL    HW2 3388   1.252   8.946   0.537 -1.5931  0.2925  0.0682
33586SOL     OW 3389   0.635   9.343   7.911  0.3864 -0.2165 -0.0532
33586SOL    HW1 3390   0.667   9.421   7.866 -0.3354 -0.2753 -0.6910
33586SOL    HW2 3391   0.583   9.376   7.983  0.3243 -0.1113 -0.1463
33587SOL     OW 3392   5.955   3.325   2.444  0.4104 -0.6517 -0.2311
33587SOL    HW1 3393   5.918   3.273   2.373  0.6051  0.5439 -1.2490
33587SOL    HW2 3394   5.924   3.282   2.524 -0.1977 -1.7576 -1.0270
33588SOL     OW 3395   8.016   1.317   4.489  0.2444 -0.3975  0.1006
33588SOL    HW1 3396   7.974   1.295   4.406 -0.4427 -0.1649  0.3730
33588SOL    HW2 3397   7.944   1.319   4.552  0.4061  1.6298  0.2742
33589SOL     OW 3398   0.296   5.726   8.470 -0.3056  0.1824  0.3397
33589SOL    HW1 3399   0.258   5.646   8.507  1.0591 -1.0329 -0.7613
33589SOL    HW2 3400   0.340   5.768   8.544  0.2665 -0.9014  0.6365
33590SOL     OW 3401   6.164   3.722   0.325 -0.1520 -0.6682  0.6279
33590SOL    HW1 3402   6.171   3.666   0.248 -0.0069 -0.8806  0.7954
33590SOL    HW2 3403   6.166   3.811   0.289  0.2553 -0.7611  0.4111
33591SOL     OW 3404   1.261   8.185   8.673 -0.4673 -0.4941 -0.4666
33591SOL    HW1 3405   1.218   8.189   8.758 -0.1017 -1.3019 -0.2386
33591SOL    HW2 3406   1.225   8.260   8.625  1.7570  2.0834  1.5250
33592SOL     OW 3407   3.459   7.907   7.577 -0.1414 -0.4351 -0.4481
33592SOL    HW1 3408   3.474   7.816   7.602  0.0146 -0.7580 -1.6484
33592SOL    HW2 3409   3.543   7.936   7.542 -0.8402 -0.6203 -2.3755
33593SOL     OW 3410   2.657   2.002   0.486  0.0258 -0.4740 -0.1225
33593SOL    HW1 3411   2.660   1.913   0.453 -0.1972 -0.2545 -0.7457
33593SOL    HW2 3412   2.589   2.045   0.435  0.5632  0.2258 -0.2691
33594SOL     OW 3413   5.273   1.976   4.505 -0.0965 -0.3376 -0.3023
33594SOL    HW1 3414   5.257   2.049   4.565  0.3510 -1.0982  0.7730
33594SOL    HW2 3415   5.367   1.961   4.509 -0.2687 -1.4057  0.0028
33595SOL     OW 3416   3.636   0.191   6.571 -0.1636  0.0428 -0.2203
33595SOL    HW1 3417   3.694   0.229   6.505  0.7580 -1.8978 -0.6323
33595SOL    HW2 3418   3.683   0.113   6.601 -0.6106  0.7673  2.6611
33596SOL     OW 3419   1.555   6.639   2.124  0.1766 -0.2344 -0.1840
33596SOL    HW1 3420   1.513   6.558   2.153 -1.8993  0.8496 -0.0162
33596SOL    HW2 3421   1.574   6.687   2.205 -1.3974  0.7468 -0.3463
33597SOL     OW 3422   8.788   8.927   5.354  0.1210 -0.4149  0.1673
33597SOL    HW1 3423   8.780   8.834   5.336 -0.3337 -0.0809 -1.6041
33597SOL    HW2 3424   8.861   8.956   5.300 -2.0466  0.8751 -2.3330
33598SOL     OW 3425   5.284   7.732   4.653  0.0326 -0.2033 -0.4466
33598SOL    HW1 3426   5.351   7.778   4.703  1.6662 -0.9751 -1.8178
33598SOL    HW2 3427   5.253   7.664   4.713  1.5427 -0.7605 -0.2397
33599SOL     OW 3428   2.288   4.696   8.801  0.1110  0.2158 -0.5541
33599SOL    HW1 3429   2.247   4.757   8.863  1.5102 -0.8472  1.5099
33599SOL    HW2 3430   2.382   4.704   8.817  0.3548 -2.3852 -0.2273
33600SOL     OW 3431   2.939   1.683   9.367  0.5706 -0.2409 -0.0095
33600SOL    HW1 3432   2.927   1.603   9.316 -0.4990 -1.4430  1.9718
33600SOL    HW2 3433   3.032   1.684   9.389  0.9992  0.1915 -1.7490
33601SOL     OW 3434   5.420   5.523   8.123 -0.9481  0.0420 -0.4350
33601SOL    HW1 3435   5.479   5.451   8.147  0.7904  1.4015 -0.4570
33601SOL    HW2 3436   5.374   5.491   8.046  0.8924 -0.5481 -1.3626
33602SOL     OW 3437   3.024   3.571   6.620  0.3459  0.0076 -0.0609
33602SOL    HW1 3438   3.113   3.588   6.589  0.6676  0.7813  1.2171
33602SOL    HW2 3439   3.034   3.502   6.686  0.5599  2.4155  2.6339
33603SOL     OW 3440   7.902   2.519   1.105  0.0121  0.0099 -0.0915
33603SOL    HW1 3441   7.812   2.526   1.140 -0.7773  2.6868 -2.2715
33603SOL    HW2 3442   7.958   2.536   1.181 -1.5094  2.0104  0.6840
33604SOL     OW 3443   3.618   5.013   6.553 -0.1001 -0.2942  0.3338
33604SOL    HW1 3444   3.589   5.102   6.569  0.0677  0.2103 -1.8629
33604SOL    HW2 3445   3.539   4.966   6.525  0.0208 -0.5760  0.4530
33605SOL     OW 3446   8.924   6.387   0.536  0.1373 -0.3572  0.0575
33605SOL    HW1 3447   8.960   6.300   0.523 -1.3325 -1.5925  3.2151
33605SOL    HW2 3448   8.833   6.381   0.508  0.2075  0.4029 -0.3804
33606SOL     OW 3449   9.886   4.611   8.111  0.2029  0.5943  0.0076
33606SOL    HW1 3450   9.927   4.529   8.084 -0.3004  0.1515  0.5889
33606SOL    HW2 3451   9.871   4.602   8.205  1.1371  1.7879  0.3116
33607SOL     OW 3452   4.155   1.867   3.963  0.0178 -0.5555 -0.0920
33607SOL    HW1 3453   4.105   1.934   4.010 -1.4522 -1.1437 -0.7456
33607SOL    HW2 3454   4.167   1.904   3.875 -0.1190 -0.8085 -0.2195
33608SOL     OW 3455   2.102   4.251   3.328 -0.3302 -0.1331 -0.4566
33608SOL    HW1 3456   2.132   4.337   3.358 -0.0356 -1.1467  2.4405
33608SOL    HW2 3457   2.013   4.266   3.297  0.7650  1.7333 -3.0925
33609SOL     OW 3458   3.018   9.785   7.912 -0.4157  0.2639 -0.2638
33609SOL    HW1 3459   2.953   9.854   7.925 -1.0993 -0.4701  0.3557
33609SOL    HW2 3460   3.041   9.757   8.001 -2.8007 -2.6936 -0.4004
33610SOL     OW 3461   6.256   0.681   5.711  0.9971  0.4150 -0.3522
33610SOL    HW1 3462   6.204   0.761   5.714 -0.4817 -0.5235  0.7366
33610SOL    HW2 3463   6.242   0.646   5.623 -0.3802  0.1265 -0.0500
33611SOL     OW 3464   7.709   8.742   5.835  0.2731  0.6675 -0.3790
33611SOL    HW1 3465   7.799   8.734   5.865 -0.0770  1.2809  0.9214
33611SOL    HW2 3466   7.680   8.651   5.822  0.1328  0.2639  2.2474
33612SOL     OW 3467   5.403   7.296  10.120 -0.1378 -0.1054 -0.0783
33612SOL    HW1 3468   5.437   7.368  10.172 -1.9977 -0.8957  2.4120
33612SOL    HW2 3469   5.350   7.338  10.052 -0.0235  0.8964  0.4373
33613SOL     OW 3470   8.678   1.739   9.286  0.5740  0.0459 -0.6987
33613SOL    HW1 3471   8.743   1.671   9.304 -0.9344 -1.3190 -0.2063
33613SOL    HW2 3472   8.718   1.819   9.318  2.2647 -0.6456 -0.9622
33614SOL     OW 3473   1.479   1.412   4.755  0.1970  0.3392  0.5993
33614SOL    HW1 3474   1.537   1.473   4.801 -1.1266 -0.2535  3.2050
33614SOL    HW2 3475   1.439   1.466   4.686 -0.5392  2.3630  2.4838
33615SOL     OW 3476   0.920   7.462   3.202  0.1960  0.5686 -0.4250
33615SOL    HW1 3477   0.911   7.486   3.294 -0.4481  0.4058 -0.4424
33615SOL    HW2 3478   0.834   7.427   3.177  0.6392 -0.2893 -0.8198
33616SOL     OW 3479   4.181   2.930   1.152 -0.0181 -0.4648  0.3903
33616SOL    HW1 3480   4.150   2.948   1.241 -2.1121  2.2291 -0.7677
33616SOL    HW2 3481   4.221   3.012   1.123  0.8376 -1.3666 -1.1123
33617SOL     OW 3482   4.798  10.230   4.340  0.3791 -0.2745 -0.2092
33617SOL    HW1 3483   4.819  10.292   4.271 -1.8164 -1.3099 -1.9295
33617SOL    HW2 3484   4.877  10.175   4.349  1.3886  1.0989 -0.4628
33618SOL     OW 3485   2.938   4.683   2.640  0.3396  0.0534  0.3396
33618SOL    HW1 3486   2.913   4.676   2.548 -0.6547 -0.4007  0.6276
33618SOL    HW2 3487   3.034   4.686   2.639  0.3860 -1.0136 -0.6455
33619SOL     OW 3488   1.922  10.270   9.364 -0.5868  0.3675  0.4597
33619SOL    HW1 3489   1.989  10.329   9.400 -1.5862  3.1872 -1.8781
33619SOL    HW2 3490   1.967  10.187   9.350  1.3279  0.9654  2.4875
33620SOL     OW 3491   9.561   9.814   4.995 -0.3844  0.2934 -0.3665
33620SOL    HW1 3492   9.493   9.827   5.061 -2.3964 -1.5776 -1.9481
33620SOL    HW2 3493   9.575   9.719   4.993  0.6932  0.4493 -1.6270
33621SOL     OW 3494   4.123  10.030   5.636 -0.1650 -0.5448 -1.2061
33621SOL    HW1 3495   4.115   9.949   5.586 -0.0688 -1.6397  0.4628
33621SOL    HW2 3496   4.200  10.017   5.691 -1.8743 -0.6438  1.3334
33622SOL     OW 3497   6.332   5.836   5.074  0.3277 -0.2892 -0.2036
33622SOL    HW1 3498   6.255   5.890   5.058  0.2125 -0.6022 -0.7336
33622SOL    HW2 3499   6.326   5.811   5.166 -0.8671 -1.3188 -0.5336
33623SOL     OW 3500   2.339   5.495   3.387 -0.5181 -0.0341 -0.5109
33623SOL    HW1 3501   2.280   5.423   3.363  0.8083 -1.4856  0.3777
33623SOL    HW2 3502   2.336   5.497   3.483 -2.2110  2.6023 -0.5359
33624SOL     OW 3503   5.020   8.256   1.574  0.1386 -0.1870  0.0817
33624SOL    HW1 3504   4.934   8.246   1.615  0.2676  1.7249  0.9753
33624SOL    HW2 3505   5.062   8.325   1.626  2.3346 -1.2747 -0.1528
33625SOL     OW 3506   5.178   0.503   8.627 -0.2990  0.1185 -0.5540
33625SOL    HW1 3507   5.213   0.573   8.682 -0.8766  1.1898 -1.5100
33625SOL    HW2 3508   5.237   0.498   8.552 -0.4293 -0.2145 -0.6388
33626SOL     OW 3509   0.086  10.108   2.828  0.1687 -0.3058 -0.2395
33626SOL    HW1 3510   0.059  10.075   2.914 -1.4974  1.5189 -0.0122
33626SOL    HW2 3511   0.180  10.126   2.838  0.1222 -0.6764  1.0142
33627SOL     OW 3512   2.208   3.783   6.477  0.2091  0.6761  0.0261
33627SOL    HW1 3513   2.212   3.860   6.534  0.3208 -0.1914  1.2305
33627SOL    HW2 3514   2.292   3.740   6.489 -1.0412 -1.4130  1.9971
33628SOL     OW 3515   1.681   2.785   9.597  0.4426  0.8257  0.5069
33628SOL    HW1 3516   1.610   2.836   9.635  1.3555  2.0360  0.6654
33628SOL    HW2 3517   1.718   2.842   9.529  0.2275 -0.4361 -0.7084
33629SOL     OW 3518   4.277   8.595  10.181 -0.7337  0.1898 -0.1705
33629SOL    HW1 3519   4.369   8.597  10.205 -0.5882  0.1679 -0.7050
33629SOL    HW2 3520   4.260   8.504  10.156 -1.1639 -0.0338  0.9095
33630SOL     OW 3521   2.346  10.160   8.198  0.3847  0.0893 -0.1404
33630SOL    HW1 3522   2.331  10.196   8.286  0.2499 -1.3518  0.4431
33630SOL    HW2 3523   2.258  10.154   8.160  0.2092 -1.2189  0.4223
33631SOL     OW 3524   1.602   4.729   8.818  0.3508  0.0115 -0.3142
33631SOL    HW1 3525   1.589   4.818   8.785  1.1994 -0.1697 -1.1733
33631SOL    HW2 3526   1.599   4.738   8.913 -1.4702  0.6556 -0.3869
33632SOL     OW 3527   7.985   7.783   8.487 -0.2503  0.0772  0.0482
33632SOL    HW1 3528   7.962   7.697   8.524 -0.1362 -0.4306 -1.0089
33632SOL    HW2 3529   8.080   7.787   8.497 -0.1184 -0.4258 -0.9162
33633SOL     OW 3530   6.271   8.990   8.308 -0.2371  0.0195  0.8347
33633SOL    HW1 3531   6.333   9.017   8.376 -0.4384  0.8228  0.7100
33633SOL    HW2 3532   6.245   8.901   8.333  0.4149 -0.0516  1.2777
33634SOL     OW 3533   3.668   4.312   0.982 -0.0598  0.0678 -0.4965
33634SOL    HW1 3534   3.591   4.324   0.926 -0.4484 -1.4640 -0.3322
33634SOL    HW2 3535   3.656   4.374   1.054 -0.6266  0.5432 -0.9924
33635SOL     OW 3536   1.365   9.968   0.025 -0.0912 -0.2606 -0.1508
33635SOL    HW1 3537   1.299  10.033   0.050 -1.4246 -0.6700 -2.3737
33635SOL    HW2 3538   1.423   9.963   0.101 -1.9658  0.9323  1.4609
33636SOL     OW 3539   3.327   3.724   0.963 -0.5047 -0.3917 -0.2261
33636SOL    HW1 3540   3.306   3.692   1.051  0.8636  0.3768  0.4047
33636SOL    HW2 3541   3.354   3.645   0.915 -1.4224 -0.8438 -0.0254
33637SOL     OW 3542   0.062   9.266   9.735  0.1672 -0.0033 -0.4464
33637SOL    HW1 3543   0.081   9.355   9.706 -1.2231  0.4231 -0.1469
33637SOL    HW2 3544  -0.033   9.264   9.743  0.3569 -0.4745  2.8320
33638SOL     OW 3545   5.210   5.692   8.030 -0.0905  0.0652 -0.1872
33638SOL    HW1 3546   5.291   5.674   8.078  0.1374  1.5201  0.0269
33638SOL    HW2 3547   5.141   5.684   8.096 -0.1730 -1.5058 -0.4443
33639SOL     OW 3548   5.552   6.074   4.629 -0.5452 -0.0499 -0.6147
33639SOL    HW1 3549   5.601   6.115   4.700 -1.2342  3.6730 -2.0773
33639SOL    HW2 3550   5.495   6.010   4.673  1.4606 -0.3586  1.7094
33640SOL     OW 3551   1.288   9.948   2.172 -0.0325 -0.3098 -0.5844
33640SOL    HW1 3552   1.253   9.888   2.106  2.5386 -1.2895 -1.1616
33640SOL    HW2 3553   1.380   9.958   2.150  0.2213  1.8342  1.0686
33641SOL     OW 3554   5.371   3.211   6.878 -0.2825 -0.1413  0.1983
33641SOL    HW1 3555   5.313   3.190   6.950 -1.5609  1.1495 -0.4039
33641SOL    HW2 3556   5.355   3.144   6.812  1.7040 -1.9938  1.4693
33642SOL     OW 3557   5.957   2.153   1.853 -0.8844  0.3866  0.3990
33642SOL    HW1 3558   5.970   2.086   1.786  0.5856  1.1853 -0.1811
33642SOL    HW2 3559   5.866   2.180   1.844 -0.4963  1.1725 -2.0169
33643SOL     OW 3560   6.788   2.131   7.120  0.6450  0.1644  0.1309
33643SOL    HW1 3561   6.749   2.215   7.144 -1.9066 -0.0087 -2.8853
33643SOL    HW2 3562   6.721   2.066   7.141  0.7423 -0.5832 -1.7065
33644SOL     OW 3563   4.760   4.043   9.962  0.4131  0.5217  0.2330
33644SOL    HW1 3564   4.843   4.012   9.998  1.0300  1.1509 -0.6212
33644SOL    HW2 3565   4.784   4.111   9.899 -0.6612 -0.3973 -1.2203
33645SOL     OW 3566   7.818   8.599   3.578 -0.2225 -0.1090 -0.0826
33645SOL    HW1 3567   7.878   8.604   3.503  2.3771  1.1282  1.9149
33645SOL    HW2 3568   7.787   8.689   3.589  0.3078 -0.0456  0.9745
33646SOL     OW 3569   0.357   5.344   8.434  0.0173 -0.5804  0.2400
33646SOL    HW1 3570   0.438   5.304   8.404  0.6645  0.2395  0.8654
33646SOL    HW2 3571   0.383   5.427   8.472 -1.0344 -0.5977  1.0536
33647SOL     OW 3572   6.776   0.979   2.686 -0.0882  1.0236  0.0099
33647SOL    HW1 3573   6.850   1.006   2.740 -1.3691  1.3391  1.6887
33647SOL    HW2 3574   6.712   1.050   2.696 -1.1678  0.1166 -0.2709
33648SOL     OW 3575   4.966   8.002   0.760  0.1856  0.4635  0.1665
33648SOL    HW1 3576   4.895   8.062   0.781  1.7544  2.5992 -0.2870
33648SOL    HW2 3577   4.984   8.018   0.667 -1.5287 -3.2386 -1.0351
33649SOL     OW 3578  10.214   8.886   2.139  0.0279  0.1956 -0.5463
33649SOL    HW1 3579  10.129   8.841   2.145  0.0083  0.4146  1.5004
33649SOL    HW2 3580  10.255   8.872   2.224  1.0276  2.0903 -0.6565
33650SOL     OW 3581   8.202   5.387   4.669  0.1468  0.2584 -0.4055
33650SOL    HW1 3582   8.133   5.364   4.606  0.3032 -0.0272 -0.4734
33650SOL    HW2 3583   8.251   5.457   4.625  1.0793 -0.8490 -1.1871
33651SOL     OW 3584   9.963   9.201   5.510  0.0600 -0.4118 -0.3030
33651SOL    HW1 3585   9.914   9.236   5.584 -0.8954  0.1444 -1.1774
33651SOL    HW2 3586   9.901   9.201   5.438  1.1060 -0.5071 -1.2313
33652SOL     OW 3587   8.641   0.684   0.357 -0.7385  0.1579  0.1886
33652SOL    HW1 3588   8.614   0.757   0.302 -0.8947  0.1706  0.2816
33652SOL    HW2 3589   8.713   0.643   0.309 -2.1177 -1.0069 -0.9814
33653SOL     OW 3590   5.857   1.758   2.446 -0.0917  0.0122  0.1942
33653SOL    HW1 3591   5.931   1.803   2.404  0.0718  0.4793  0.9785
33653SOL    HW2 3592   5.789   1.757   2.379  0.5953 -0.3648 -0.5205
33654SOL     OW 3593   2.951   8.507   8.249  0.2889  0.0986  0.5978
33654SOL    HW1 3594   3.007   8.527   8.173  1.0678  1.3606  1.4795
33654SOL    HW2 3595   2.872   8.559   8.235  0.9160  1.2489  1.2048
33655SOL     OW 3596   4.306   1.060   8.132  0.0407  0.3552 -0.3154
33655SOL    HW1 3597   4.392   1.078   8.096  1.2631 -2.0715  1.1247
33655SOL    HW2 3598   4.268   0.997   8.071  0.7064 -1.1157  0.7301
33656SOL     OW 3599   6.099   6.731   4.035 -0.1022  0.2204  0.5131
33656SOL    HW1 3600   6.136   6.649   4.066 -0.8444  0.0398  0.9575
33656SOL    HW2 3601   6.021   6.706   3.986 -0.2390  0.6478  0.5033
33657SOL     OW 3602   8.475   8.198   2.673  0.7409  0.1735  0.2048
33657SOL    HW1 3603   8.414   8.127   2.654  0.6587  0.3558 -0.2210
33657SOL    HW2 3604   8.420   8.274   2.688  0.8826  0.5259 -0.9847
33658SOL     OW 3605   8.999   7.689   1.501 -0.3623 -0.4000 -0.3186
33658SOL    HW1 3606   9.015   7.622   1.434  1.5218  0.7458 -1.0920
33658SOL    HW2 3607   9.087   7.712   1.532 -1.0504  0.9342  0.7123
33659SOL     OW 3608   0.032   4.766   1.204  0.1550  0.5347 -0.5714
33659SOL    HW1 3609   0.090   4.770   1.129 -0.8995 -0.3588 -1.4692
33659SOL    HW2 3610  -0.011   4.852   1.205  0.5214  0.7232 -0.6822
33660SOL     OW 3611   8.178   2.882   8.718 -0.2131 -0.0069 -0.7108
33660SOL    HW1 3612   8.234   2.887   8.641  0.9118 -1.1418 -0.0064
33660SOL    HW2 3613   8.119   2.957   8.709  0.2374  0.1987 -2.3803
33661SOL     OW 3614   8.154   3.881   6.832 -0.9495 -0.4276 -0.1069
33661SOL    HW1 3615   8.121   3.873   6.922  1.2004 -0.8741  0.6920
33661SOL    HW2 3616   8.078   3.862   6.778 -2.3729  0.0862  1.5969
33662SOL     OW 3617   7.908   0.259   0.899  0.1828  0.1937 -0.0013
33662SOL    HW1 3618   7.972   0.290   0.835 -0.7897  0.7183 -0.7371
33662SOL    HW2 3619   7.925   0.165   0.905  0.9719  0.3062 -0.2340
33663SOL     OW 3620   1.085   5.150   6.642  0.1115 -0.5822  0.6635
33663SOL    HW1 3621   1.008   5.099   6.617 -1.2689  1.0097  1.4952
33663SOL    HW2 3622   1.085   5.148   6.738  1.0485 -0.4657  0.6744
33664SOL     OW 3623   7.850   5.802   3.296 -0.0841 -0.1373 -0.1863
33664SOL    HW1 3624   7.877   5.717   3.262  1.1937  0.4468 -0.7361
33664SOL    HW2 3625   7.782   5.783   3.359  0.2636 -1.5793 -0.2185
33665SOL     OW 3626   3.957   6.415   8.534 -0.3156 -0.0379 -0.2773
33665SOL    HW1 3627   3.968   6.386   8.443 -1.2338  0.1654 -0.4680
33665SOL    HW2 3628   4.006   6.497   8.539  1.1908 -0.9115 -0.0976
33666SOL     OW 3629   9.372   3.872   5.172  0.1312 -0.2321 -0.5680
33666SOL    HW1 3630   9.324   3.789   5.168  1.4418 -0.9678 -2.5201
33666SOL    HW2 3631   9.464   3.846   5.165  0.6756  1.2994  0.5925
33667SOL     OW 3632   2.489   3.275   0.035  0.2021 -0.1055 -0.0795
33667SOL    HW1 3633   2.465   3.186   0.060 -0.1689  0.2730  0.9414
33667SOL    HW2 3634   2.485   3.274  -0.061  0.2022 -1.1810 -0.0828
33668SOL     OW 3635   7.283   1.501   9.374 -0.4661  0.3706 -0.5195
33668SOL    HW1 3636   7.377   1.522   9.371 -0.8102  1.9364 -1.0045
33668SOL    HW2 3637   7.247   1.540   9.295 -1.3807 -1.1547 -0.8991
33669SOL     OW 3638   4.827   0.089   6.876 -0.1207 -0.9619 -0.6240
33669SOL    HW1 3639   4.910   0.120   6.838 -0.5514 -1.4595 -2.0045
33669SOL    HW2 3640   4.760   0.143   6.835 -0.6816 -2.1817 -1.3685
33670SOL     OW 3641   9.845  10.022   3.034 -0.3419  0.1160 -0.7233
33670SOL    HW1 3642   9.893   9.952   3.078  1.2777  1.5300 -0.1297
33670SOL    HW2 3643   9.886  10.029   2.948 -0.0646  0.7352 -0.5467
33671SOL     OW 3644   5.385   1.697   6.367  0.6280 -0.1319 -0.6928
33671SOL    HW1 3645   5.392   1.724   6.276  2.8780  2.7038  0.1606
33671SOL    HW2 3646   5.474   1.669   6.391  0.6855  1.3494  1.1397
33672SOL     OW 3647   7.184   3.375   1.715  0.3087  0.1070 -0.0032
33672SOL    HW1 3648   7.278   3.357   1.714 -0.0209 -1.9628 -1.7899
33672SOL    HW2 3649   7.177   3.467   1.688  1.7857 -0.1411 -1.3486
33673SOL     OW 3650   8.201   9.288   1.220 -0.4862 -0.1987  0.1619
33673SOL    HW1 3651   8.118   9.292   1.174 -1.7885  0.1668  2.4079
33673SOL    HW2 3652   8.178   9.281   1.312  1.9529  1.2159  0.9962
33674SOL     OW 3653   8.648   5.007   3.636 -0.1250 -0.2971  0.5842
33674SOL    HW1 3654   8.628   4.915   3.654 -0.7835 -0.3477 -0.3516
33674SOL    HW2 3655   8.683   5.040   3.719 -2.3048 -0.7190  1.7550
33675SOL     OW 3656  10.065   2.956   6.394 -0.2418 -0.0093 -0.1940
33675SOL    HW1 3657  10.156   2.936   6.370  0.0048  1.0073 -0.1294
33675SOL    HW2 3658  10.024   2.987   6.314 -0.4127 -0.0469 -0.1222
33676SOL     OW 3659   9.719   3.948   2.503 -0.0224  0.0845 -0.3309
33676SOL    HW1 3660   9.725   3.974   2.595 -1.5814 -0.3412 -0.0749
33676SOL    HW2 3661   9.652   3.880   2.502  0.7107 -0.6519 -1.6473
33677SOL     OW 3662   2.910   4.186   5.661  0.5674 -0.2766  0.0241
33677SOL    HW1 3663   2.824   4.206   5.698  0.8529  0.7071  0.1980
33677SOL    HW2 3664   2.917   4.091   5.665 -0.9252 -0.4517 -0.9437
33678SOL     OW 3665   0.233   3.611   4.273  0.0340 -0.9281 -0.2165
33678SOL    HW1 3666   0.311   3.572   4.235  0.1866 -2.2982  1.3901
33678SOL    HW2 3667   0.203   3.547   4.338 -1.0904  0.5971  0.8473
33679SOL     OW 3668   1.923   9.884   8.789 -0.3781 -0.4123  0.7281
33679SOL    HW1 3669   1.944   9.791   8.780 -0.6104 -0.2929 -1.6522
33679SOL    HW2 3670   1.961   9.925   8.711 -0.2591  1.5217  1.7292
33680SOL     OW 3671   0.690   9.762   8.348 -0.2877 -0.4178  0.1962
33680SOL    HW1 3672   0.713   9.806   8.429  0.1360  2.2235 -1.2520
33680SOL    HW2 3673   0.703   9.828   8.280  2.4293 -3.3610 -2.4551
33681SOL     OW 3674   0.868   6.173  10.325 -0.2022  0.0235 -0.1782
33681SOL    HW1 3675   0.892   6.122  10.247 -1.3446  0.9349 -1.1602
33681SOL    HW2 3676   0.952   6.204  10.359  0.4464 -1.6848 -0.1002
33682SOL     OW 3677   6.368   1.553   4.971  0.5599 -0.0682 -0.1857
33682SOL    HW1 3678   6.298   1.556   4.906  0.5186  1.1547 -0.1039
33682SOL    HW2 3679   6.323   1.547   5.055  0.5747 -0.2744 -0.1932
33683SOL     OW 3680   1.513   9.550   7.737 -0.9322  0.1884  0.7000
33683SOL    HW1 3681   1.516   9.480   7.672  0.6741  1.5991 -0.8462
33683SOL    HW2 3682   1.419   9.566   7.751 -1.3093 -1.6089  0.4188
33684SOL     OW 3683   7.088   6.545   6.992 -0.2086 -0.4791  0.1397
33684SOL    HW1 3684   7.120   6.571   6.905  0.8807  0.3538  0.7569
33684SOL    HW2 3685   7.020   6.480   6.974  1.2022 -1.6568 -1.2874
33685SOL     OW 3686   4.284   2.365   1.115  0.6503 -0.6726  0.0540
33685SOL    HW1 3687   4.227   2.383   1.189  2.4723 -0.6327  1.5314
33685SOL    HW2 3688   4.360   2.321   1.154  1.7684 -0.4275 -1.7482
33686SOL     OW 3689   8.496   0.980   7.042  0.7411  0.1111 -0.9734
33686SOL    HW1 3690   8.435   0.915   7.009  0.0756  0.6405 -0.8218
33686SOL    HW2 3691   8.512   0.954   7.133 -1.2162  1.3118 -0.2111
33687SOL     OW 3692   7.179   2.125   8.261 -0.8632  0.0002  0.1598
33687SOL    HW1 3693   7.083   2.126   8.264 -0.9602 -2.3045 -0.1074
33687SOL    HW2 3694   7.202   2.189   8.195 -2.2722  0.1119 -0.2480
33688SOL     OW 3695   6.309   4.457   8.709 -0.0188  0.3951 -0.5403
33688SOL    HW1 3696   6.359   4.496   8.781  0.9799  0.2270 -1.1169
33688SOL    HW2 3697   6.218   4.460   8.738  0.2547  1.3170  0.2651
33689SOL     OW 3698   2.873   0.838   9.955  0.2824 -0.0381  0.6487
33689SOL    HW1 3699   2.823   0.756   9.956  2.4457 -1.4432 -0.6757
33689SOL    HW2 3700   2.937   0.828  10.026  1.4531 -0.1133 -0.3966
33690SOL     OW 3701   9.475   3.684   6.824  0.0876  0.7861 -0.3618
33690SOL    HW1 3702   9.466   3.753   6.759 -2.0474  2.5124  1.5782
33690SOL    HW2 3703   9.553   3.709   6.874 -0.2396  1.3894 -0.1433
33691SOL     OW 3704   5.772   3.414   8.767 -0.0535  0.4166 -0.0835
33691SOL    HW1 3705   5.754   3.440   8.858  0.4225 -0.5751  0.3046
33691SOL    HW2 3706   5.821   3.333   8.775 -0.7197 -0.1187 -1.2570
33692SOL     OW 3707   5.818   8.665   0.372  0.2700  0.1583 -0.0844
33692SOL    HW1 3708   5.768   8.650   0.291  0.2660 -1.5736  0.1935
33692SOL    HW2 3709   5.868   8.745   0.355 -0.2129  0.1770 -1.5637
33693SOL     OW 3710   4.344   1.796   9.110  0.0317  0.0444 -0.2106
33693SOL    HW1 3711   4.370   1.758   9.193  1.6743 -1.8955 -1.5019
33693SOL    HW2 3712   4.405   1.868   9.096 -1.4743  1.6635  1.0675
33694SOL     OW 3713   5.517   0.032   5.028  0.4016 -0.3154  0.2009
33694SOL    HW1 3714   5.541  -0.004   5.113 -0.1773  3.6871  2.3050
33694SOL    HW2 3715   5.598   0.029   4.977  0.7983 -2.6474  0.8466
33695SOL     OW 3716   0.058   7.854   6.253  0.3439  0.4087 -0.2098
33695SOL    HW1 3717   0.016   7.937   6.274 -0.4410  0.1164 -0.5887
33695SOL    HW2 3718   0.150   7.867   6.276  0.2888  1.4877 -0.5599
33696SOL     OW 3719   4.781   4.104   0.266  0.3507  0.0850 -0.5885
33696SOL    HW1 3720   4.698   4.113   0.218  0.6827  0.1132 -1.1585
33696SOL    HW2 3721   4.772   4.020   0.312 -0.0503  0.1498 -0.5427
33697SOL     OW 3722   1.834   4.512   0.418  0.3386 -0.1773 -0.3709
33697SOL    HW1 3723   1.877   4.497   0.502 -1.1549  0.7044  0.5827
33697SOL    HW2 3724   1.902   4.555   0.365  0.2490  2.8472  1.6831
33698SOL     OW 3725   9.229   5.816   6.899  0.1823 -0.3011 -0.0875
33698SOL    HW1 3726   9.271   5.875   6.836  3.4760 -0.9013  1.3287
33698SOL    HW2 3727   9.214   5.735   6.850  0.3312  0.0626 -0.7409
33699SOL     OW 3728   4.751   5.849   0.722  0.1116 -0.0425  0.0188
33699SOL    HW1 3729   4.722   5.921   0.777 -0.9186  0.4099 -1.0775
33699SOL    HW2 3730   4.825   5.810   0.770  1.5498  2.5353  0.0417
33700SOL     OW 3731   2.154   8.154   8.324 -0.5813 -0.5203 -0.0264
33700SOL    HW1 3732   2.172   8.121   8.412 -0.1415 -1.5922 -0.4946
33700SOL    HW2 3733   2.238   8.151   8.279 -0.8224 -0.0978 -0.5224
33701SOL     OW 3734   4.785   8.730   7.152  0.0502  0.3562  0.1072
33701SOL    HW1 3735   4.764   8.783   7.229 -1.1395 -0.7287  0.5665
33701SOL    HW2 3736   4.700   8.697   7.122  0.7906 -2.3075  0.6123
33702SOL     OW 3737   3.341   6.585  10.026 -0.3954 -0.6866  0.1756
33702SOL    HW1 3738   3.256   6.590  10.069 -0.7135 -0.9838 -0.4061
33702SOL    HW2 3739   3.328   6.631   9.942  0.1306 -0.3691  0.2614
33703SOL     OW 3740  10.137   3.368   5.697  0.2414  0.0274 -0.0611
33703SOL    HW1 3741  10.140   3.439   5.634 -0.6918  0.3732  0.2594
33703SOL    HW2 3742  10.168   3.407   5.779  2.3992 -0.6725 -0.4920
33704SOL     OW 3743   5.150   4.226   6.938  0.1828 -0.2398 -0.4362
33704SOL    HW1 3744   5.121   4.143   6.976  0.5710 -0.1496  0.0632
33704SOL    HW2 3745   5.090   4.291   6.973  0.4428 -0.1789 -0.1073
33705SOL     OW 3746   4.552   7.722   3.060 -0.4786  0.0905  0.1193
33705SOL    HW1 3747   4.508   7.677   3.131 -1.3370  0.1996 -0.3307
33705SOL    HW2 3748   4.507   7.694   2.981 -1.4837  2.1903 -0.1309
33706SOL     OW 3749   0.254   0.012   1.879  0.6136 -0.5295 -0.2773
33706SOL    HW1 3750   0.187   0.076   1.905  0.6357 -1.1207  1.3232
33706SOL    HW2 3751   0.337   0.055   1.901  0.7814  0.0642 -1.9470
33707SOL     OW 3752   1.598   1.235   3.598  0.4986  0.6160 -0.1714
33707SOL    HW1 3753   1.685   1.272   3.589  0.8620 -0.6645 -2.8150
33707SOL    HW2 3754   1.581   1.192   3.515 -1.1820 -2.3703  1.5488
33708SOL     OW 3755   1.055   3.624   5.040  0.0793  0.7137  0.5923
33708SOL    HW1 3756   1.029   3.569   5.114  1.1816 -2.1978 -1.0009
33708SOL    HW2 3757   1.011   3.585   4.965  0.7704  2.1800 -0.6227
33709SOL     OW 3758   5.779   5.654   2.526 -0.7532  0.0547  0.4517
33709SOL    HW1 3759   5.734   5.717   2.471 -0.2373  0.6845  0.7334
33709SOL    HW2 3760   5.822   5.594   2.465  3.1274  2.9825 -0.1247
33710SOL     OW 3761   1.914   9.136   5.851  0.6390 -0.8902 -0.0068
33710SOL    HW1 3762   1.827   9.140   5.891  0.7347 -1.3048  0.2556
33710SOL    HW2 3763   1.973   9.175   5.915  0.6408 -0.5552 -0.2087
33711SOL     OW 3764   9.339   4.778   1.967  0.1302  0.2315  0.3749
33711SOL    HW1 3765   9.270   4.713   1.962 -1.1974  1.6324 -0.3384
33711SOL    HW2 3766   9.317   4.833   2.042  0.0667  1.0766 -0.2359
33712SOL     OW 3767   8.575   7.655   5.957  0.0162  0.2216 -0.0678
33712SOL    HW1 3768   8.561   7.690   5.869 -1.3835  0.4226  0.2265
33712SOL    HW2 3769   8.670   7.646   5.963  0.2109  1.2264 -1.2009
33713SOL     OW 3770   9.689   8.767   0.442 -0.3603 -0.1000  0.6012
33713SOL    HW1 3771   9.648   8.754   0.356 -2.1274  1.1538  1.1982
33713SOL    HW2 3772   9.673   8.685   0.489 -0.3469 -0.3772  0.1359
33714SOL     OW 3773   1.943   5.484   8.027  0.0332  0.0756  0.2284
33714SOL    HW1 3774   1.890   5.563   8.016 -1.6235 -0.9586  0.4776
33714SOL    HW2 3775   1.972   5.462   7.939 -0.2392  0.4531  0.0406
33715SOL     OW 3776   2.569   6.940   5.115  0.6595 -0.1698  0.2133
33715SOL    HW1 3777   2.584   6.985   5.031  0.1285  0.8824  0.6537
33715SOL    HW2 3778   2.510   6.868   5.093 -0.5893  0.9118 -0.1320
33716SOL     OW 3779   0.576   6.219   2.552  0.0091  0.2673  0.9242
33716SOL    HW1 3780   0.504   6.166   2.519  0.3427  0.9977 -1.0649
33716SOL    HW2 3781   0.534   6.286   2.605 -0.7355  0.3788  0.1999
33717SOL     OW 3782   5.007   0.694   7.352  0.0605  0.2747 -0.1574
33717SOL    HW1 3783   5.008   0.772   7.297  0.1606  0.9919  0.8233
33717SOL    HW2 3784   5.079   0.641   7.320 -0.0860  0.5203 -0.9189
33718SOL     OW 3785   6.803   2.929   9.154 -0.1683  0.4936 -0.6035
33718SOL    HW1 3786   6.710   2.922   9.177 -0.1174  1.8413  0.1142
33718SOL    HW2 3787   6.806   2.916   9.060 -1.2154  1.3956 -0.7787
33719SOL     OW 3788   6.007   1.309   1.439 -0.0519  0.1814  0.5717
33719SOL    HW1 3789   5.984   1.238   1.378  2.4507 -0.7558  0.6246
33719SOL    HW2 3790   5.951   1.294   1.515 -1.8445  0.2131 -0.6838
33720SOL     OW 3791   2.673   0.945   4.954 -0.4455 -0.2743  0.4681
33720SOL    HW1 3792   2.659   0.856   4.985  0.3412 -0.2088  1.0448
33720SOL    HW2 3793   2.769   0.956   4.956 -0.5169  0.4672  0.0902
33721SOL     OW 3794   9.388   5.919   3.085 -0.2317 -0.6360  0.2559
33721SOL    HW1 3795   9.308   5.869   3.095  0.0479 -1.0477  0.4290
33721SOL    HW2 3796   9.435   5.908   3.167 -0.5205  0.5480  0.6053
33722SOL     OW 3797   0.064   6.476   2.369  0.6726  0.2465  0.2879
33722SOL    HW1 3798   0.152   6.511   2.360  0.5310  0.2731 -1.4669
33722SOL    HW2 3799   0.048   6.429   2.287  0.5692 -3.4040  2.1919
33723SOL     OW 3800   1.779   8.109   9.725  0.3793 -0.6997  0.1360
33723SOL    HW1 3801   1.784   8.182   9.663 -0.8708 -0.2238  0.5398
33723SOL    HW2 3802   1.689   8.077   9.716  0.2048 -0.6960  1.5789
33724SOL     OW 3803   3.833   6.624   9.278  0.7046 -0.5228  0.4346
33724SOL    HW1 3804   3.850   6.699   9.335 -1.7615  0.4928 -0.0547
33724SOL    HW2 3805   3.875   6.648   9.195  1.6487 -0.6141  0.8733
33725SOL     OW 3806   2.751   6.837   1.148 -0.2145  0.1907  0.0943
33725SOL    HW1 3807   2.757   6.782   1.070  1.9114 -0.6590  0.7819
33725SOL    HW2 3808   2.774   6.778   1.220 -1.6228  1.0861  1.3276
33726SOL     OW 3809   8.728   7.022  10.029 -0.0441 -0.0504 -0.3790
33726SOL    HW1 3810   8.652   6.970  10.054 -1.6477  2.7461  1.0172
33726SOL    HW2 3811   8.690   7.102   9.992  2.2235  1.2048 -0.1302
33727SOL     OW 3812   4.655   8.337   4.016 -0.4040  0.3322  0.0391
33727SOL    HW1 3813   4.682   8.255   4.057 -0.9843  0.0081 -0.2151
33727SOL    HW2 3814   4.697   8.336   3.930  0.2733  0.7032  0.3572
33728SOL     OW 3815   5.046   9.262   2.977 -0.7553 -0.6238  0.1151
33728SOL    HW1 3816   5.034   9.255   3.072 -0.8546  0.8819  0.2343
33728SOL    HW2 3817   5.134   9.298   2.967 -1.1858  0.3438 -0.3070
33729SOL     OW 3818   6.764   0.468   8.386  0.3066 -0.2071 -0.1419
33729SOL    HW1 3819   6.681   0.498   8.350  1.3659  1.3132 -1.4292
33729SOL    HW2 3820   6.759   0.491   8.479 -1.5215 -2.0675  0.2825
33730SOL     OW 3821   6.832   1.876   4.045  0.3383  0.5679 -0.3659
33730SOL    HW1 3822   6.885   1.949   4.012 -0.2511  0.1220 -2.4222
33730SOL    HW2 3823   6.896   1.808   4.065  0.7911  1.2029  0.4222
33731SOL     OW 3824   0.600   6.225  10.189 -0.2883 -0.1256 -0.3953
33731SOL    HW1 3825   0.679   6.247  10.240 -1.1822  1.2265  0.5055
33731SOL    HW2 3826   0.553   6.308  10.183 -1.0294 -0.6341 -2.0437
33732SOL     OW 3827   6.418   5.614   4.585 -0.2098  0.3409 -0.2194
33732SOL    HW1 3828   6.474   5.549   4.542 -1.4879 -1.2246  0.3697
33732SOL    HW2 3829   6.333   5.572   4.591 -1.2500  2.3091 -0.2710
33733SOL     OW 3830   9.078   5.134  10.226 -0.5162  0.3778  0.2100
33733SOL    HW1 3831   9.002   5.161  10.175 -0.2543 -0.0226 -0.4135
33733SOL    HW2 3832   9.126   5.075  10.167  0.4445  0.8913  0.4612
33734SOL     OW 3833   6.686   9.653   0.209  0.5440  0.5869 -0.2282
33734SOL    HW1 3834   6.752   9.587   0.230  0.6945 -0.1974 -2.7300
33734SOL    HW2 3835   6.705   9.726   0.267  1.9221 -0.6532  0.9557
33735SOL     OW 3836   0.685   0.746   0.428 -0.4563 -0.1517  0.3701
33735SOL    HW1 3837   0.659   0.662   0.389  1.5812 -1.0807  0.9002
33735SOL    HW2 3838   0.629   0.810   0.385 -0.5442 -1.5224 -1.7025
33736SOL     OW 3839   8.906   4.478   4.251  0.5964 -0.4931  0.6595
33736SOL    HW1 3840   8.987   4.429   4.235  0.9538 -0.4271  2.0939
33736SOL    HW2 3841   8.932   4.547   4.312 -0.0644  1.0576 -0.7584
33737SOL     OW 3842  10.355   9.494   4.878  0.3619  0.2105  0.0482
33737SOL    HW1 3843  10.422   9.524   4.940  1.0473  0.9947 -1.0360
33737SOL    HW2 3844  10.284   9.461   4.933  0.3292  2.2199  1.2801
33738SOL     OW 3845   8.060   5.379   3.211  0.3024  0.0103 -0.2070
33738SOL    HW1 3846   8.153   5.372   3.231  0.0410 -0.5129  0.9683
33738SOL    HW2 3847   8.040   5.301   3.160  0.7793  0.8493 -1.7364
33739SOL     OW 3848   4.992   1.348   4.349  0.1637 -0.2048 -0.0702
33739SOL    HW1 3849   5.000   1.390   4.263 -2.6749  1.5368  0.3656
33739SOL    HW2 3850   5.008   1.419   4.411 -2.3557 -0.2603  0.7345
33740SOL     OW 3851   9.156   6.938   7.469  0.5312  0.5765 -0.3509
33740SOL    HW1 3852   9.066   6.951   7.439 -0.1318 -1.7642  0.3553
33740SOL    HW2 3853   9.183   6.856   7.428  1.4961  0.0571  1.2042
33741SOL     OW 3854   7.710   0.904   2.765  0.3199 -0.1175 -0.0195
33741SOL    HW1 3855   7.785   0.942   2.719  0.8272 -0.0206  0.8670
33741SOL    HW2 3856   7.637   0.914   2.703  1.3147 -1.5453 -1.5018
33742SOL     OW 3857   9.154   2.786   1.671  0.2093 -0.3215 -0.1046
33742SOL    HW1 3858   9.159   2.709   1.729 -1.4678 -0.6230 -0.2871
33742SOL    HW2 3859   9.183   2.754   1.586  0.4304 -0.5085  0.0417
33743SOL     OW 3860   5.267   6.723   8.172 -0.4020  0.3729  0.2589
33743SOL    HW1 3861   5.172   6.727   8.184 -0.6436 -1.4560 -0.7471
33743SOL    HW2 3862   5.301   6.691   8.255 -0.9561 -1.4762 -0.1859
33744SOL     OW 3863   2.599   9.265   0.020  0.1214 -0.1702  0.5195
33744SOL    HW1 3864   2.637   9.347  -0.013 -0.2824 -0.3242 -0.3777
33744SOL    HW2 3865   2.555   9.290   0.101 -0.3820  0.6104  0.0281
33745SOL     OW 3866   1.645   7.710   6.943 -0.1542  0.3783  0.4789
33745SOL    HW1 3867   1.698   7.638   6.977 -0.8176 -0.1368  0.4355
33745SOL    HW2 3868   1.556   7.675   6.939 -0.4949  1.2182  0.5040
33746SOL     OW 3869   2.839   1.968   6.838 -0.4949  0.1586 -0.7772
33746SOL    HW1 3870   2.749   1.957   6.870 -0.4390  0.7142 -0.4133
33746SOL    HW2 3871   2.834   2.045   6.781 -0.3822 -0.2059 -1.2847
33747SOL     OW 3872   0.950   0.363   9.468 -0.6940 -0.0060  0.1137
33747SOL    HW1 3873   0.927   0.275   9.436 -0.4150 -0.0005 -0.1066
33747SOL    HW2 3874   0.958   0.352   9.563  0.9168 -0.5853 -0.0662
33748SOL     OW 3875   7.431   5.935   4.921 -0.2753  0.1648 -0.2006
33748SOL    HW1 3876   7.497   5.866   4.910  0.0067  0.4816 -0.5474
33748SOL    HW2 3877   7.390   5.915   5.004  1.3969  0.8912  0.8561
33749SOL     OW 3878  10.270   2.129   2.988  0.3794  0.8290  0.8415
33749SOL    HW1 3879  10.345   2.115   2.930  0.0925 -0.3038  0.7117
33749SOL    HW2 3880  10.209   2.182   2.937 -0.7253 -1.7594 -0.7138
33750SOL     OW 3881   4.678   4.109   5.550 -0.5959 -0.5719 -0.1293
33750SOL    HW1 3882   4.726   4.027   5.562 -0.3919 -0.4719 -0.2467
33750SOL    HW2 3883   4.658   4.139   5.638 -1.8722 -1.4443 -0.0956
33751SOL     OW 3884  10.359   0.916   9.747 -0.1550 -0.0011  0.3678
33751SOL    HW1 3885  10.292   0.849   9.733 -1.3175  1.2222 -0.2016
33751SOL    HW2 3886  10.310   0.999   9.746  1.5321  1.0913 -1.7496
33752SOL     OW 3887   0.652   6.325   3.964  0.5610 -0.1881 -0.4778
33752SOL    HW1 3888   0.573   6.379   3.962  1.1433  0.7233 -0.1035
33752SOL    HW2 3889   0.650   6.276   3.882  0.7364  1.5181 -1.5731
33753SOL     OW 3890   6.040   2.292   0.200  0.2864 -0.4736 -0.3223
33753SOL    HW1 3891   6.006   2.277   0.112 -1.9596  0.4735  0.3146
33753SOL    HW2 3892   6.058   2.205   0.235 -0.3341 -0.9366 -1.1359
33754SOL     OW 3893   8.756   5.246   7.429 -0.5473 -0.4140  0.3767
33754SOL    HW1 3894   8.719   5.334   7.423 -0.9277 -0.5891  0.0829
33754SOL    HW2 3895   8.692   5.190   7.384  1.3919 -0.3294 -2.8565
33755SOL     OW 3896   9.270   1.177   1.962  0.1046 -0.0137 -0.0411
33755SOL    HW1 3897   9.257   1.259   1.916  0.3559 -0.0045 -0.0977
33755SOL    HW2 3898   9.351   1.141   1.925 -0.3378 -0.5927 -0.4725
33756SOL     OW 3899   8.070   5.257   1.793 -0.0629 -0.4808 -0.0832
33756SOL    HW1 3900   8.019   5.337   1.808 -0.6350 -0.7325 -0.6513
33756SOL    HW2 3901   8.131   5.254   1.867 -0.0726  0.4450 -0.0173
33757SOL     OW 3902   6.173  10.263   4.963  0.0182 -0.5950  0.4931
33757SOL    HW1 3903   6.236  10.335   4.969 -2.0720  1.2442  1.3311
33757SOL    HW2 3904   6.222  10.186   4.994  1.9798  0.6492  0.6307
33758SOL     OW 3905  10.103   6.456   9.695 -0.4236  0.0151  0.4750
33758SOL    HW1 3906  10.024   6.402   9.694  0.4314 -1.2815  0.0847
33758SOL    HW2 3907  10.148   6.431   9.775  0.2259 -0.2512  0.0376
33759SOL     OW 3908   4.195   6.303   9.554  0.6472 -0.4409 -0.0980
33759SOL    HW1 3909   4.207   6.331   9.645  1.0560  1.2918 -0.6328
33759SOL    HW2 3910   4.283   6.298   9.519  0.4207  1.5256 -1.0809
33760SOL     OW 3911   8.694   6.287   5.221  0.5299  0.5683 -0.4630
33760SOL    HW1 3912   8.666   6.348   5.288  1.5879  1.7518 -1.0541
33760SOL    HW2 3913   8.639   6.306   5.145  0.3334  0.2405 -0.4069
33761SOL     OW 3914   0.496   3.789   9.740  0.1964  0.4111 -0.4243
33761SOL    HW1 3915   0.533   3.836   9.665 -0.4200  2.1220  0.2795
33761SOL    HW2 3916   0.555   3.809   9.813 -0.5247  0.8102  0.0713
33762SOL     OW 3917   4.150  10.030   6.429  0.0873 -0.1297  0.4091
33762SOL    HW1 3918   4.195   9.994   6.505 -0.7059 -0.3852  0.7598
33762SOL    HW2 3919   4.221  10.058   6.371  0.7010 -0.7670  0.8381
33763SOL     OW 3920   0.123   0.953   0.192  0.0391 -0.2050  0.0654
33763SOL    HW1 3921   0.158   1.007   0.121 -2.6497  0.8368 -0.5886
33763SOL    HW2 3922   0.193   0.891   0.211  2.0063  1.4005 -1.4205
33764SOL     OW 3923   3.078   5.893  10.235 -0.4837  0.7863 -0.0706
33764SOL    HW1 3924   2.989   5.860  10.239 -0.7470  1.6040  1.7018
33764SOL    HW2 3925   3.110   5.888  10.325  0.1302  3.4688 -0.0371
33765SOL     OW 3926   6.131   2.454   9.216 -0.1316 -0.1105 -0.3112
33765SOL    HW1 3927   6.103   2.497   9.297 -0.9482 -0.6612 -0.2860
33765SOL    HW2 3928   6.050   2.418   9.179  0.0483  1.1062 -1.9702
33766SOL     OW 3929   9.290   1.432   7.222 -0.4414  0.0187 -0.3664
33766SOL    HW1 3930   9.217   1.379   7.257  0.5246 -0.2976  1.2805
33766SOL    HW2 3931   9.366   1.375   7.230  0.5583  1.4472  1.0557
33767SOL     OW 3932   3.100   7.645   7.462  0.0784 -0.9398  0.1302
33767SOL    HW1 3933   3.008   7.643   7.434  0.7513 -0.2669 -2.2807
33767SOL    HW2 3934   3.112   7.733   7.500  0.5265  0.3379 -2.7369
33768SOL     OW 3935   0.591   0.500   9.307  0.0773 -0.5880  0.5265
33768SOL    HW1 3936   0.542   0.447   9.243  1.6589 -0.3675 -0.9328
33768SOL    HW2 3937   0.533   0.574   9.326 -0.5031 -0.7549 -0.5194
33769SOL     OW 3938   0.639   5.540   3.482 -0.0245 -0.6375  0.0554
33769SOL    HW1 3939   0.687   5.468   3.525  1.0788  0.2753  0.4060
33769SOL    HW2 3940   0.695   5.564   3.408 -0.2899 -0.0166  0.0534
33770SOL     OW 3941  10.018   8.837   1.437  0.2553  0.1203  0.0417
33770SOL    HW1 3942   9.929   8.802   1.434 -0.1260  0.8508  1.5039
33770SOL    HW2 3943  10.009   8.920   1.484  1.2880  1.6370 -2.2774
33771SOL     OW 3944   8.550   8.738   3.626  0.0186  0.1432  0.7059
33771SOL    HW1 3945   8.619   8.728   3.692 -0.0461 -1.6301  0.5735
33771SOL    HW2 3946   8.492   8.663   3.641 -2.0913  1.7750  1.0152
33772SOL     OW 3947   7.180   7.245   0.101 -0.5129 -0.0077 -0.0596
33772SOL    HW1 3948   7.149   7.282   0.183 -2.1437 -2.6917  0.6794
33772SOL    HW2 3949   7.275   7.241   0.110 -0.6736 -0.2941  1.7491
33773SOL     OW 3950   1.974   9.732   3.178  0.3567  0.0743  0.2756
33773SOL    HW1 3951   2.026   9.663   3.138 -0.9879 -0.2304 -1.0250
33773SOL    HW2 3952   2.038   9.800   3.202  1.4713 -0.8119 -0.0970
33774SOL     OW 3953   1.238   2.598   1.699 -0.2648  0.5734 -0.5262
33774SOL    HW1 3954   1.144   2.594   1.717 -0.5756  0.7767 -1.9723
33774SOL    HW2 3955   1.272   2.515   1.732 -0.5953  1.2811  1.7587
33775SOL     OW 3956   2.580   0.582   5.806 -0.3828  0.4067  0.0536
33775SOL    HW1 3957   2.535   0.664   5.785  0.3369  0.3430 -1.8754
33775SOL    HW2 3958   2.510   0.519   5.822 -0.9454  1.0205  0.0492
33776SOL     OW 3959   8.039   7.066   0.320  0.2178 -0.4640  0.0199
33776SOL    HW1 3960   7.974   7.122   0.361  0.6582 -1.9735  3.1077
33776SOL    HW2 3961   7.999   6.979   0.320  1.7969 -1.2468  1.1093
33777SOL     OW 3962   7.041   5.875   1.609 -0.0539  0.7277  0.1470
33777SOL    HW1 3963   6.950   5.847   1.593 -0.6252  1.7713  1.3548
33777SOL    HW2 3964   7.037   5.920   1.693  1.6762  0.4662  0.4063
33778SOL     OW 3965   1.649   8.090   9.984  0.1046  0.3446 -0.0290
33778SOL    HW1 3966   1.684   8.003  10.000 -0.7222 -0.1557 -0.8396
33778SOL    HW2 3967   1.711   8.130   9.922 -1.0361 -0.7901 -2.0081
33779SOL     OW 3968   2.559   4.985   2.311  0.5940 -0.1117  0.2177
33779SOL    HW1 3969   2.620   4.968   2.383  1.5991  2.1154 -0.0180
33779SOL    HW2 3970   2.496   5.047   2.347 -2.2420 -3.0108  0.7302
33780SOL     OW 3971   8.016   1.121   0.961  0.0163 -0.9353 -0.2623
33780SOL    HW1 3972   8.062   1.199   0.991  0.7134 -1.0296 -1.0445
33780SOL    HW2 3973   7.935   1.120   1.011  1.3162 -1.3697  1.9978
33781SOL     OW 3974   8.684   0.334   9.674 -0.1054  0.8349  0.4133
33781SOL    HW1 3975   8.667   0.423   9.643 -0.8099  0.2291 -1.0285
33781SOL    HW2 3976   8.754   0.301   9.618  0.8767  0.8097  1.6132
33782SOL     OW 3977   2.248   6.634   7.609 -0.2040  0.0625 -0.2918
33782SOL    HW1 3978   2.316   6.589   7.659  0.5146  1.6731  0.2654
33782SOL    HW2 3979   2.218   6.569   7.546  0.4977 -1.2961  0.7151
33783SOL     OW 3980   5.858   5.422   8.762  0.8945 -0.5487 -0.0106
33783SOL    HW1 3981   5.823   5.465   8.839  2.7297 -0.6270  0.9194
33783SOL    HW2 3982   5.785   5.371   8.727  0.2936 -1.3612  2.2855
33784SOL     OW 3983   7.646   0.715   4.003 -0.0011 -0.1828 -0.6642
33784SOL    HW1 3984   7.662   0.627   3.968 -0.1449  0.1663 -1.6618
33784SOL    HW2 3985   7.553   0.731   3.986 -0.2966 -0.3578  0.7493
33785SOL     OW 3986   1.864   4.877   9.212 -0.2053  0.3423  0.1081
33785SOL    HW1 3987   1.879   4.864   9.306  0.8521  0.9533  0.0374
33785SOL    HW2 3988   1.906   4.802   9.170  1.8562  1.4799 -0.0187
33786SOL     OW 3989   1.995   5.616   1.523 -0.3822  0.0864  0.2770
33786SOL    HW1 3990   1.906   5.581   1.528 -0.7469  0.8375 -0.5268
33786SOL    HW2 3991   2.000   5.679   1.595 -0.2202 -0.5357  0.8181
33787SOL     OW 3992   7.638   9.532   6.775 -0.3852 -0.5911  0.6814
33787SOL    HW1 3993   7.693   9.455   6.761  0.5353 -0.0389  1.1695
33787SOL    HW2 3994   7.567   9.501   6.832 -1.0048 -1.4777 -0.5301
33788SOL     OW 3995   6.333   5.788   4.147 -0.2593 -0.2731  0.5708
33788SOL    HW1 3996   6.290   5.734   4.214  1.0710  0.6987  2.3202
33788SOL    HW2 3997   6.350   5.871   4.191  1.8330 -0.0353 -0.5471
33789SOL     OW 3998   4.776   2.131   3.077  0.1040  0.4893  0.4521
33789SOL    HW1 3999   4.751   2.138   3.169  0.4738 -1.4099  0.7267
33789SOL    HW2 4000   4.871   2.143   3.077  0.1009  0.5186  0.2997
33790SOL     OW 4001   5.590   9.326   8.390  0.3708  0.5282 -0.1464
33790SOL    HW1 4002   5.573   9.420   8.397 -0.0772  0.4003  0.7314
33790SOL    HW2 4003   5.671   9.312   8.439  0.2797  0.4256 -0.0199
33791SOL     OW 4004  10.298   4.631   3.613 -0.4595 -0.2807 -0.2437
33791SOL    HW1 4005  10.312   4.572   3.688  0.2199  0.1330 -0.0338
33791SOL    HW2 4006  10.239   4.698   3.646 -0.8840 -0.5893 -0.3552
33792SOL     OW 4007   0.929   0.570   5.590  0.0268  0.1234  0.6099
33792SOL    HW1 4008   0.839   0.555   5.561  0.2847 -1.9712  0.7362
33792SOL    HW2 4009   0.920   0.628   5.666 -1.2391 -0.2585  0.7750
33793SOL     OW 4010   9.017   3.336   2.625 -0.7759 -0.4807 -0.1379
33793SOL    HW1 4011   8.969   3.352   2.543 -0.0922 -2.4015 -0.9642
33793SOL    HW2 4012   8.971   3.390   2.690 -1.4736  0.9307 -1.7143
33794SOL     OW 4013   1.611   0.018   0.372 -0.1278 -0.5645  0.0144
33794SOL    HW1 4014   1.618  -0.032   0.454  0.5530  2.3059  1.8610
33794SOL    HW2 4015   1.522   0.052   0.372 -1.0664 -2.7369 -1.9509
33795SOL     OW 4016   9.383   5.124   0.133 -0.0490 -0.1198  0.1696
33795SOL    HW1 4017   9.349   5.145   0.221 -2.8033  0.0492 -0.8288
33795SOL    HW2 4018   9.386   5.028   0.131  4.1202 -0.2368  1.7492
33796SOL     OW 4019   2.953   0.141   5.642 -0.4961 -0.7318 -0.4851
33796SOL    HW1 4020   2.942   0.130   5.548  0.4974  1.9027 -0.9933
33796SOL    HW2 4021   2.865   0.161   5.674 -0.5590  0.1923 -1.1891
33797SOL     OW 4022   6.422   8.980   7.644  0.4182  0.1246 -0.1300
33797SOL    HW1 4023   6.472   9.006   7.721  1.6549  0.5362 -1.0318
33797SOL    HW2 4024   6.452   8.891   7.626 -0.7237 -0.4049  0.5205
33798SOL     OW 4025   9.016   8.016   7.340  0.2308  0.3954  0.9049
33798SOL    HW1 4026   9.050   7.932   7.369 -1.6874 -0.2663  1.4201
33798SOL    HW2 4027   8.924   7.998   7.318  0.3914  1.8552 -1.2759
33799SOL     OW 4028   5.356   5.108   1.697 -0.7991 -0.0388 -0.8422
33799SOL    HW1 4029   5.359   5.118   1.792 -2.3750  1.5067 -0.8876
33799SOL    HW2 4030   5.413   5.034   1.678  1.7513  1.2612  1.0443
33800SOL     OW 4031   2.427   7.053   0.107  0.4210 -0.2836  0.3975
33800SOL    HW1 4032   2.351   7.101   0.139  0.5409 -0.4532  0.9591
33800SOL    HW2 4033   2.502   7.096   0.149  0.6470 -0.0434 -0.2436
33801SOL     OW 4034   3.146  10.191   4.897 -0.5940  0.2599 -0.3951
33801SOL    HW1 4035   3.194  10.119   4.857  0.4490 -0.5510  2.0941
33801SOL    HW2 4036   3.070  10.150   4.938  0.6867  0.2537  2.1582
33802SOL     OW 4037   1.279   6.925   3.776 -0.0421 -0.1078 -0.4062
33802SOL    HW1 4038   1.373   6.919   3.762 -0.1880  1.0216 -2.3199
33802SOL    HW2 4039   1.268   6.994   3.841  0.4700 -0.8160  0.4416
33803SOL     OW 4040   6.333   8.018   5.535 -0.5760 -0.0545 -0.3121
33803SOL    HW1 4041   6.347   8.051   5.623 -1.6887  0.3862 -0.2877
33803SOL    HW2 4042   6.366   8.087   5.477 -1.6335  0.5353 -0.2446
33804SOL     OW 4043   2.685   1.618   3.372 -0.0627  0.7056  0.1551
33804SOL    HW1 4044   2.705   1.675   3.446 -0.4721  1.3610 -0.2254
33804SOL    HW2 4045   2.768   1.577   3.349  0.3444  1.5180  0.1378
33805SOL     OW 4046   6.046   2.818   4.128  0.1384 -0.3308  0.2510
33805SOL    HW1 4047   6.012   2.862   4.050 -1.7923 -1.0403  0.6201
33805SOL    HW2 4048   6.104   2.882   4.170 -1.2269  1.2175 -0.1390
33806SOL     OW 4049   0.758   3.187   0.230 -0.3531 -0.0098  0.4696
33806SOL    HW1 4050   0.795   3.250   0.292 -0.1693 -1.3897  1.8204
33806SOL    HW2 4051   0.799   3.209   0.147 -1.4177  2.5956  0.5294
33807SOL     OW 4052   9.530   6.877   7.304 -0.2758 -0.5090  0.0220
33807SOL    HW1 4053   9.567   6.908   7.387  1.5409  0.4734 -1.1167
33807SOL    HW2 4054   9.514   6.956   7.253 -0.6988 -1.1374 -0.8464
33808SOL     OW 4055   8.501   6.661   4.253  0.0930  0.1225  0.2200
33808SOL    HW1 4056   8.476   6.752   4.235 -0.4164 -0.3456 -1.7636
33808SOL    HW2 4057   8.596   6.662   4.259  0.1448  0.6877 -0.5892
33809SOL     OW 4058   0.591  10.040  10.300 -0.0214  0.5044  0.7145
33809SOL    HW1 4059   0.608   9.947  10.284  1.1970  1.1956 -3.3288
33809SOL    HW2 4060   0.666  10.069  10.352  1.7463 -0.1106 -1.3387
33810SOL     OW 4061   8.584   9.764   8.870  0.2270  0.3350 -0.0999
33810SOL    HW1 4062   8.503   9.739   8.826 -0.3992  2.2681 -0.1493
33810SOL    HW2 4063   8.579   9.859   8.878  1.4656  0.2936  1.9453
33811SOL     OW 4064   7.702   3.691   8.125  0.2193  0.4093 -0.4650
33811SOL    HW1 4065   7.730   3.764   8.181  0.2315  0.0797 -0.0381
33811SOL    HW2 4066   7.700   3.728   8.037  0.0972  0.9646 -0.2332
33812SOL     OW 4067   3.845   4.923   7.034 -0.1905  0.4383  0.3600
33812SOL    HW1 4068   3.917   4.868   7.065  0.4337  2.2531  2.3354
33812SOL    HW2 4069   3.885   4.983   6.971  0.3305  2.0856  2.1656
33813SOL     OW 4070   8.455   5.392   6.074  0.3174  0.2307  0.1285
33813SOL    HW1 4071   8.540   5.352   6.055  0.1374 -0.4602  0.7107
33813SOL    HW2 4072   8.420   5.340   6.147 -1.6589 -1.0641 -1.5951
33814SOL     OW 4073   4.037   8.991  10.312  0.2222 -0.5088 -0.3482
33814SOL    HW1 4074   4.066   8.902  10.293 -1.0754 -0.8921 -0.6301
33814SOL    HW2 4075   3.974   8.981  10.384 -0.5024  0.0804 -0.8826
33815SOL     OW 4076   2.731   1.599   5.142 -0.2563 -0.5855  0.2058
33815SOL    HW1 4077   2.766   1.687   5.128 -0.0598 -0.4119  1.6270
33815SOL    HW2 4078   2.758   1.549   5.064  0.5096  0.3415 -0.1366
33816SOL     OW 4079   3.641   1.968   9.843 -0.3124  0.0346  0.1539
33816SOL    HW1 4080   3.717   1.943   9.790  0.4220 -0.2965  1.3090
33816SOL    HW2 4081   3.674   2.037   9.900 -1.0980  0.4334  0.1352
33817SOL     OW 4082   5.974   0.338   6.852  0.0669 -0.5042 -0.1989
33817SOL    HW1 4083   6.055   0.304   6.815 -0.5028  1.6221 -3.9841
33817SOL    HW2 4084   5.917   0.262   6.859  0.9052 -1.3652 -1.9783
33818SOL     OW 4085   9.200  10.326   2.316 -0.0131 -0.0685  0.6738
33818SOL    HW1 4086   9.154  10.384   2.256  0.4210 -0.2885  0.1263
33818SOL    HW2 4087   9.282  10.370   2.335  0.7196 -0.8960 -0.4519
33819SOL     OW 4088  10.003   8.595   4.564  0.7813  0.3425  0.3382
33819SOL    HW1 4089  10.046   8.660   4.508 -1.3345  1.1323 -0.4908
33819SOL    HW2 4090   9.919   8.636   4.586 -0.4466 -1.9298  0.1193
33820SOL     OW 4091   9.673   8.086   6.489 -0.5097  0.4039 -0.2851
33820SOL    HW1 4092   9.646   8.148   6.421 -1.5836 -0.1728 -0.4105
33820SOL    HW2 4093   9.614   8.011   6.478  0.1894 -0.2715  0.4218
33821SOL     OW 4094   6.537   0.145   4.542  0.2563 -0.0508 -0.0081
33821SOL    HW1 4095   6.459   0.093   4.561 -0.6027  1.2259  0.0320
33821SOL    HW2 4096   6.559   0.123   4.451  0.4317 -1.1302  0.2846
33822SOL     OW 4097   3.295   1.602   6.297  0.0173  0.4536  0.0337
33822SOL    HW1 4098   3.291   1.509   6.275 -0.5250  0.7103 -1.0148
33822SOL    HW2 4099   3.367   1.609   6.359 -0.4323 -0.7815  0.7235
33823SOL     OW 4100   6.410   7.801   9.810  0.0513  0.1296  0.0782
33823SOL    HW1 4101   6.504   7.788   9.816 -0.1560 -1.3896  0.3486
33823SOL    HW2 4102   6.376   7.775   9.895 -0.8333 -1.5933 -0.7544
33824SOL     OW 4103   4.679   1.871   3.555 -0.0002 -0.0709 -0.1252
33824SOL    HW1 4104   4.624   1.928   3.608 -1.9070 -0.8509 -1.1603
33824SOL    HW2 4105   4.622   1.798   3.530  1.5218 -0.9640 -1.2324
33825SOL     OW 4106   0.253   1.848   5.301 -0.1705 -0.2797  0.4132
33825SOL    HW1 4107   0.184   1.915   5.303 -0.0852 -0.1902  2.7613
33825SOL    HW2 4108   0.310   1.876   5.229 -1.1641  1.0914  0.0981
33826SOL     OW 4109   1.348   0.160   5.155 -0.0122 -0.4864  0.0936
33826SOL    HW1 4110   1.404   0.184   5.081  1.0030 -3.1252 -0.0936
33826SOL    HW2 4111   1.406   0.165   5.231 -0.9236  1.7158  0.7221
33827SOL     OW 4112   2.233   1.606   5.685  0.0232 -0.5102 -0.2542
33827SOL    HW1 4113   2.253   1.658   5.607  1.6576  0.3345  0.6770
33827SOL    HW2 4114   2.159   1.652   5.726  0.6302  0.3606 -0.1204
33828SOL     OW 4115   5.345   6.467   2.163  0.8474 -0.1638  0.0315
33828SOL    HW1 4116   5.412   6.422   2.112  1.7202  1.7259 -0.5861
33828SOL    HW2 4117   5.274   6.404   2.171  0.8573 -0.7332 -3.1491
33829SOL     OW 4118   4.015   1.421   4.932  0.4634 -0.2144  0.2656
33829SOL    HW1 4119   4.088   1.411   4.871 -0.0270  0.7042 -0.5134
33829SOL    HW2 4120   4.049   1.393   5.016  0.9239 -2.3093 -0.5722
33830SOL     OW 4121   7.435   4.234   2.434 -0.2513 -0.7466  0.0744
33830SOL    HW1 4122   7.352   4.245   2.388 -0.2246 -1.2721 -0.1005
33830SOL    HW2 4123   7.446   4.140   2.444 -0.2271 -0.6457  1.1193
33831SOL     OW 4124   4.917   9.474   2.340  0.1179 -0.0191  0.4854
33831SOL    HW1 4125   4.888   9.467   2.431 -0.8293  0.2225  0.2138
33831SOL    HW2 4126   4.984   9.542   2.340 -1.6536  1.8176  0.6197
33832SOL     OW 4127   9.439   3.336   2.016  0.3457  0.0587  0.0530
33832SOL    HW1 4128   9.376   3.395   2.058  0.7129  0.3644  0.1794
33832SOL    HW2 4129   9.410   3.248   2.042 -1.3253  0.0300 -1.6425
33833SOL     OW 4130   3.959   3.215   3.923 -0.0203 -0.2250  0.2111
33833SOL    HW1 4131   4.040   3.265   3.917 -0.7921  1.0318  0.0260
33833SOL    HW2 4132   3.906   3.261   3.988 -1.3214  0.0728 -0.9996
33834SOL     OW 4133   3.603   5.838   4.069 -0.5043 -0.5024  0.1131
33834SOL    HW1 4134   3.521   5.859   4.112 -1.4715 -0.2436 -1.7357
33834SOL    HW2 4135   3.640   5.765   4.119 -1.5139 -0.1795  1.3576
33835SOL     OW 4136   7.274   4.772   3.976 -0.3310 -0.3474  0.8796
33835SOL    HW1 4137   7.268   4.776   3.880  2.1296 -0.8244  0.6198
33835SOL    HW2 4138   7.296   4.861   4.003 -0.1210 -0.3995  0.8870
33836SOL     OW 4139   4.081   4.992   2.633 -0.5801  0.0836 -0.0567
33836SOL    HW1 4140   4.043   4.940   2.562  0.0012 -0.0123 -0.3057
33836SOL    HW2 4141   4.021   4.981   2.706  0.0552 -1.8105  0.2388
33837SOL     OW 4142   3.175   2.276   4.029  0.6543  0.8270 -0.1299
33837SOL    HW1 4143   3.083   2.289   4.004  0.2689 -2.3194 -0.7666
33837SOL    HW2 4144   3.175   2.286   4.124 -0.4676  0.3591 -0.0681
33838SOL     OW 4145   2.954   4.200   0.849 -0.1127 -0.3737 -0.6131
33838SOL    HW1 4146   2.961   4.177   0.942  1.5997 -2.2760 -1.1464
33838SOL    HW2 4147   2.945   4.116   0.804 -0.7214  0.5006 -2.2202
33839SOL     OW 4148   9.301  10.226   9.213  0.0060 -0.0819  0.8104
33839SOL    HW1 4149   9.328  10.291   9.148  1.6628 -0.3474  1.1840
33839SOL    HW2 4150   9.230  10.269   9.261 -1.3006  0.1102 -1.1334
33840SOL     OW 4151   2.516   4.764   5.753 -0.1813  0.2781 -0.0972
33840SOL    HW1 4152   2.463   4.813   5.815  2.5528  0.7165  2.1181
33840SOL    HW2 4153   2.513   4.674   5.784  0.0498  0.2374 -0.1906
33841SOL     OW 4154   3.088   6.233   5.475  0.2060  0.1177  0.0869
33841SOL    HW1 4155   3.165   6.180   5.455  1.3029  1.6920  0.0532
33841SOL    HW2 4156   3.092   6.306   5.414 -1.1749  0.3822  0.2691
33842SOL     OW 4157   9.983   4.742   1.410 -0.2356 -0.2804 -0.0662
33842SOL    HW1 4158   9.922   4.774   1.476 -0.0803  2.0564 -0.9637
33842SOL    HW2 4159  10.025   4.667   1.451 -1.0457  0.3103  1.9864
33843SOL     OW 4160   9.901   3.555   0.904  0.8265  0.5044 -0.0099
33843SOL    HW1 4161   9.943   3.521   0.825  1.5016 -1.1133  1.0018
33843SOL    HW2 4162   9.926   3.648   0.906  0.1912  0.7686 -2.0480
33844SOL     OW 4163   3.270   7.679   5.650 -0.3416  0.2373  0.1131
33844SOL    HW1 4164   3.280   7.584   5.654 -0.5206  0.1572 -1.0583
33844SOL    HW2 4165   3.214   7.700   5.725 -0.0406 -0.5353  0.5697
33845SOL     OW 4166   2.539   8.059   4.016  0.0843 -0.1351  0.8947
33845SOL    HW1 4167   2.627   8.080   3.982  0.0924  0.4357  1.2509
33845SOL    HW2 4168   2.552   8.048   4.110 -0.0493 -1.0829  0.8056
33846SOL     OW 4169   1.444   2.902   3.331  0.1075  0.2902  0.2618
33846SOL    HW1 4170   1.401   2.891   3.417  1.5457 -0.1304  0.9598
33846SOL    HW2 4171   1.406   2.833   3.277 -1.2784  0.9498  0.3542
33847SOL     OW 4172   2.418   8.105   3.303  0.4127 -0.1016 -0.1107
33847SOL    HW1 4173   2.432   8.081   3.212 -0.6749 -0.7721 -0.1128
33847SOL    HW2 4174   2.329   8.138   3.306  0.8900  1.2043  0.4687
33848SOL     OW 4175   8.005   3.709   4.430 -0.5205  0.1063  0.2614
33848SOL    HW1 4176   7.915   3.728   4.402 -0.1779  1.1728 -0.1734
33848SOL    HW2 4177   8.058   3.719   4.351  0.1670  1.0135  0.8087
33849SOL     OW 4178   7.229   2.629   4.738  0.0766  1.1712  0.3012
33849SOL    HW1 4179   7.186   2.594   4.816  0.0091  1.4840  0.4039
33849SOL    HW2 4180   7.276   2.554   4.701 -0.1889  0.9355  0.4396
33850SOL     OW 4181   8.283   3.624   8.484 -0.5282 -0.2787  0.1465
33850SOL    HW1 4182   8.325   3.540   8.504 -0.9127 -0.9252 -1.5435
33850SOL    HW2 4183   8.263   3.663   8.569  0.8787 -1.2736  0.9709
33851SOL     OW 4184   9.755   3.397   7.759  0.0918 -0.1182  0.5819
33851SOL    HW1 4185   9.842   3.364   7.780  0.9461  1.0488 -0.9208
33851SOL    HW2 4186   9.749   3.390   7.663 -1.4217 -0.0871  0.6534
33852SOL     OW 4187   2.080   9.201   1.917  0.1641 -0.6394  0.2165
33852SOL    HW1 4188   2.028   9.271   1.876 -0.1123 -0.9223  0.0751
33852SOL    HW2 4189   2.160   9.244   1.945 -0.3546 -0.0821  0.8895
33853SOL     OW 4190   7.712   6.035   1.158 -0.0421 -0.2091 -0.0144
33853SOL    HW1 4191   7.794   6.014   1.202  0.3756 -0.3034 -0.8233
33853SOL    HW2 4192   7.736   6.046   1.066 -1.1579 -1.7773 -0.5531
33854SOL     OW 4193  10.202   1.100   1.769  0.2458 -0.3544  0.3509
33854SOL    HW1 4194  10.293   1.071   1.760  0.0817 -1.0247  0.7423
33854SOL    HW2 4195  10.150   1.029   1.731 -0.1386 -0.3197  0.7901
33855SOL     OW 4196   3.508   2.793   2.445  0.5599 -0.1015  0.0123
33855SOL    HW1 4197   3.471   2.716   2.486 -0.7635  0.3578 -0.2531
33855SOL    HW2 4198   3.475   2.790   2.355  2.3562 -0.4164 -0.6731
33856SOL     OW 4199   6.231   2.283   2.888  0.7265  0.1888  0.2904
33856SOL    HW1 4200   6.244   2.343   2.961 -1.6227  1.5745 -0.3166
33856SOL    HW2 4201   6.227   2.196   2.929  2.5286  0.5663  1.3757
33857SOL     OW 4202   0.008   4.965   2.804  0.2157  0.4756 -0.9214
33857SOL    HW1 4203   0.068   4.991   2.735 -0.9232  0.3988 -1.9792
33857SOL    HW2 4204  -0.014   4.874   2.784  1.8901 -0.4529  1.0705
33858SOL     OW 4205   3.660   6.783   2.121 -0.1599 -0.0294  0.7155
33858SOL    HW1 4206   3.614   6.699   2.129 -1.4845  0.6390  0.3993
33858SOL    HW2 4207   3.716   6.787   2.198  0.4841 -1.5197  0.3707
33859SOL     OW 4208   4.732   5.701   5.739 -0.0282  0.2738 -0.6501
33859SOL    HW1 4209   4.674   5.626   5.754 -0.1306  0.6065  0.7564
33859SOL    HW2 4210   4.715   5.727   5.649  0.2524 -1.5914 -1.2804
33860SOL     OW 4211   1.813   8.603   2.388  0.0224  0.1156  0.8622
33860SOL    HW1 4212   1.753   8.552   2.334  0.8218  0.6685 -0.5977
33860SOL    HW2 4213   1.799   8.570   2.477 -0.6253 -1.4980  0.1944
33861SOL     OW 4214   9.193   1.865   5.383 -0.6808 -0.0937 -0.1830
33861SOL    HW1 4215   9.245   1.835   5.309 -0.4157  0.4746 -0.2384
33861SOL    HW2 4216   9.103   1.838   5.363 -0.6882  0.4735 -0.9439
33862SOL     OW 4217   1.831   4.435   0.732  0.6290  0.1313 -0.3642
33862SOL    HW1 4218   1.838   4.352   0.685  1.2162 -0.1453  0.1927
33862SOL    HW2 4219   1.914   4.479   0.715  0.3837  0.5336 -0.5258
33863SOL     OW 4220   7.964  10.161   4.278  1.3165 -0.3590 -0.3871
33863SOL    HW1 4221   8.058  10.178   4.282  0.9481  2.2093 -0.7601
33863SOL    HW2 4222   7.950  10.123   4.191  2.0441 -1.1459 -0.1690
33864SOL     OW 4223   4.923   7.182   0.061 -0.3029  0.2507  0.2345
33864SOL    HW1 4224   4.908   7.274   0.082 -2.0432  0.0779 -0.0452
33864SOL    HW2 4225   4.866   7.134   0.122 -0.1392 -0.5834 -0.2469
33865SOL     OW 4226   2.201   0.077   6.160 -0.4331  0.0353  0.2310
33865SOL    HW1 4227   2.155   0.092   6.243  0.6456 -1.0594  1.0793
33865SOL    HW2 4228   2.291   0.103   6.178  0.0120 -1.0785 -0.2827
33866SOL     OW 4229   4.129   3.356   6.319 -0.1823 -0.2564 -0.0241
33866SOL    HW1 4230   4.099   3.283   6.373 -0.1497  0.3228  0.7854
33866SOL    HW2 4231   4.057   3.419   6.322 -0.4965 -0.5296 -1.2758
33867SOL     OW 4232   8.890   9.131   5.523  0.2133  0.0163  0.3938
33867SOL    HW1 4233   8.977   9.112   5.487  0.2170  1.3498 -0.3596
33867SOL    HW2 4234   8.835   9.058   5.493  0.6837  0.0480 -0.5849
33868SOL     OW 4235   8.581   5.459   7.324  0.0103  0.3671  0.4154
33868SOL    HW1 4236   8.536   5.454   7.408 -0.3397 -1.7435  0.1605
33868SOL    HW2 4237   8.512   5.448   7.259  0.3712  1.2926 -0.1348
33869SOL     OW 4238   5.520   3.001   7.719  0.1192  0.1134  0.5595
33869SOL    HW1 4239   5.448   3.062   7.733  0.0704  0.2067 -0.0808
33869SOL    HW2 4240   5.482   2.915   7.732 -0.1922  0.1457 -0.1193
33870SOL     OW 4241   3.399   8.154   7.711  0.2491 -0.0482 -0.2985
33870SOL    HW1 4242   3.425   8.228   7.656 -0.5817 -0.2215 -0.9433
33870SOL    HW2 4243   3.430   8.077   7.664  3.7195 -0.1066  1.7394
33871SOL     OW 4244   3.773   1.169   6.496  0.3361  0.1359  0.0802
33871SOL    HW1 4245   3.679   1.154   6.491 -0.0939  2.9122 -2.5379
33871SOL    HW2 4246   3.786   1.210   6.581 -0.6552 -0.9325  0.7856
33872SOL     OW 4247   2.001  10.065   2.599 -0.3321 -0.6359  0.0529
33872SOL    HW1 4248   2.001  10.035   2.690 -1.1836 -1.1629 -0.1050
33872SOL    HW2 4249   2.071  10.014   2.557  2.8432  2.3839  1.2108
33873SOL     OW 4250   2.843   7.872   1.304 -0.0627  0.1163 -0.4484
33873SOL    HW1 4251   2.806   7.943   1.357 -0.2749 -1.4378  1.6301
33873SOL    HW2 4252   2.767   7.829   1.264  0.1183  1.4811 -2.3718
33874SOL     OW 4253   3.466  10.030   8.536  0.9467 -0.0808  0.2744
33874SOL    HW1 4254   3.388   9.977   8.553  0.0719  0.3652 -2.0033
33874SOL    HW2 4255   3.508  10.038   8.621 -1.7829  0.1287  1.7260
33875SOL     OW 4256   6.931   4.896   3.788  0.5791  0.6248 -0.0772
33875SOL    HW1 4257   6.909   4.948   3.865  1.0784  2.4331 -1.0887
33875SOL    HW2 4258   6.848   4.857   3.760  0.2555  0.5863  0.8942
33876SOL     OW 4259   1.875   5.166   0.845  0.1471  1.0006  0.3261
33876SOL    HW1 4260   1.863   5.186   0.938 -0.4702  0.4460  0.3731
33876SOL    HW2 4261   1.800   5.112   0.822  1.7006 -1.2908  0.2145
33877SOL     OW 4262   0.574   8.089   8.406 -0.0551 -0.3381 -0.4322
33877SOL    HW1 4263   0.599   8.003   8.441  1.4900  0.3467  0.2282
33877SOL    HW2 4264   0.550   8.140   8.483 -1.1947 -0.2089 -0.8441
33878SOL     OW 4265   9.302   3.967   1.064  0.3604 -0.2176  0.6423
33878SOL    HW1 4266   9.259   4.032   1.008  1.5630  2.0417  2.2249
33878SOL    HW2 4267   9.239   3.952   1.135 -0.3188 -1.5883 -0.1990
33879SOL     OW 4268   8.119   1.093   9.754 -0.0787 -0.2473 -0.0156
33879SOL    HW1 4269   8.151   1.012   9.795  1.1625 -0.3872 -1.2097
33879SOL    HW2 4270   8.152   1.090   9.665  1.1483  2.2074  0.2729
33880SOL     OW 4271   4.496   4.009   7.277  0.7805  0.3890  0.1254
33880SOL    HW1 4272   4.495   3.923   7.236  0.1215  0.0396  0.8489
33880SOL    HW2 4273   4.418   4.053   7.243  0.2877  0.1364  0.8872
33881SOL     OW 4274   4.565   5.127   1.279 -0.2315 -0.3803 -0.3281
33881SOL    HW1 4275   4.610   5.108   1.361 -1.7297  0.4367  0.7321
33881SOL    HW2 4276   4.635   5.142   1.216  0.9543 -0.8281  0.8405
33882SOL     OW 4277   2.125  10.295   2.030 -0.6023 -0.0502  0.2274
33882SOL    HW1 4278   2.207  10.267   1.991 -0.0004  1.2597  0.4989
33882SOL    HW2 4279   2.081  10.344   1.959 -0.0563  1.2811  0.7711
33883SOL     OW 4280   6.587   6.482   2.328 -0.3093  0.0239 -0.1091
33883SOL    HW1 4281   6.631   6.398   2.342  2.9875  1.6929  0.6901
33883SOL    HW2 4282   6.546   6.474   2.242  1.4643 -1.8345 -0.8760
33884SOL     OW 4283   4.355   6.713   2.051 -0.2623  0.0711 -0.3031
33884SOL    HW1 4284   4.276   6.761   2.026  1.1618  0.8239 -3.9360
33884SOL    HW2 4285   4.412   6.779   2.090 -1.1402 -0.3768  1.8709
33885SOL     OW 4286   4.994   4.737   7.416  0.0391  0.4903 -0.0519
33885SOL    HW1 4287   4.931   4.803   7.446 -0.7328  0.3006 -1.1953
33885SOL    HW2 4288   5.013   4.684   7.494  0.5303  1.9219  0.8443
33886SOL     OW 4289   0.383   4.109   8.328 -0.0687  0.6871 -0.0423
33886SOL    HW1 4290   0.356   4.131   8.417 -1.9511  1.0054 -0.6557
33886SOL    HW2 4291   0.387   4.014   8.326 -1.4239  0.6158  0.0157
33887SOL     OW 4292   8.624   6.039   0.011  0.0241  0.6398  0.1510
33887SOL    HW1 4293   8.605   5.958   0.059 -1.0481 -0.7879 -2.4803
33887SOL    HW2 4294   8.668   6.010  -0.069  4.3351  3.0997  1.2756
33888SOL     OW 4295   4.839   0.028   3.910 -0.0978 -0.3833 -0.1327
33888SOL    HW1 4296   4.815  -0.063   3.893  2.2592 -1.2740  0.9261
33888SOL    HW2 4297   4.836   0.070   3.824 -1.9424 -1.2272 -0.5352
33889SOL     OW 4298   3.435   9.709   6.540 -0.1424 -0.4602 -0.5013
33889SOL    HW1 4299   3.512   9.658   6.516  0.3479 -0.1798  0.4348
33889SOL    HW2 4300   3.404   9.747   6.458  1.5458  0.5844 -0.6950
33890SOL     OW 4301   6.749   7.294   8.685  0.3816  0.0631 -0.2955
33890SOL    HW1 4302   6.745   7.378   8.731  0.2587  0.3094 -0.7460
33890SOL    HW2 4303   6.691   7.306   8.610 -2.3495 -1.5202  1.3936
33891SOL     OW 4304   9.953   2.514   0.039 -0.1608 -0.0191 -0.1025
33891SOL    HW1 4305  10.043   2.502   0.010  0.5007 -0.5234  1.9742
33891SOL    HW2 4306   9.919   2.425   0.045 -0.6933  0.1517 -0.5190
33892SOL     OW 4307   5.705   6.635   1.299 -0.6025 -0.3484  0.5188
33892SOL    HW1 4308   5.641   6.706   1.300  0.0858  0.2861  2.0573
33892SOL    HW2 4309   5.773   6.665   1.238 -1.4460 -0.7659 -0.6642
33893SOL     OW 4310   1.686   9.911   8.298  0.4204  0.0240  0.0831
33893SOL    HW1 4311   1.598   9.877   8.282  0.3175  0.0220  0.6186
33893SOL    HW2 4312   1.672   9.988   8.353  0.7861 -0.3237  0.6737
33894SOL     OW 4313   4.124   7.098   3.591  0.5059  0.8069  0.0325
33894SOL    HW1 4314   4.040   7.072   3.553  1.0935 -0.0566 -0.7161
33894SOL    HW2 4315   4.158   7.164   3.530  0.0087  1.7833  0.7801
33895SOL     OW 4316   8.878   3.363   4.536  0.0850  0.2332 -0.2915
33895SOL    HW1 4317   8.949   3.325   4.588 -0.6898 -0.1681  0.4835
33895SOL    HW2 4318   8.825   3.410   4.599 -1.8503 -1.6818 -0.3960
33896SOL     OW 4319   7.519   8.283   0.794  0.0316  0.0349  0.0147
33896SOL    HW1 4320   7.517   8.203   0.847  1.0996  0.0098  0.0238
33896SOL    HW2 4321   7.597   8.275   0.741 -0.1276  0.8482 -0.3561
33897SOL     OW 4322   1.223   5.223  10.261  0.6639 -0.1177  0.1915
33897SOL    HW1 4323   1.253   5.275  10.336  1.8694 -1.3167  0.5642
33897SOL    HW2 4324   1.303   5.185  10.224 -0.0265 -0.3895 -1.0838
33898SOL     OW 4325   4.644   3.415   4.737 -0.1043 -0.1626 -0.1668
33898SOL    HW1 4326   4.720   3.465   4.767 -0.2961  0.0015  0.0444
33898SOL    HW2 4327   4.612   3.464   4.661  1.7763 -1.8086 -2.1444
33899SOL     OW 4328   2.461   7.970   0.924  0.0985 -0.4684 -0.3170
33899SOL    HW1 4329   2.540   8.024   0.920  0.5390 -1.0457  0.3203
33899SOL    HW2 4330   2.415   8.002   1.002 -0.3638 -0.0494 -0.7577
33900SOL     OW 4331   4.296   2.746   3.026  0.3618 -0.2352  0.1417
33900SOL    HW1 4332   4.371   2.751   3.085  0.2278 -0.8347  0.3650
33900SOL    HW2 4333   4.275   2.653   3.022 -0.8609  0.0073  0.6951
33901SOL     OW 4334   5.482  10.030   4.179  0.1449  0.3994 -0.1744
33901SOL    HW1 4335   5.465   9.955   4.122 -1.2509  0.9139 -0.4574
33901SOL    HW2 4336   5.509  10.100   4.119 -0.7521  0.7715 -0.1483
33902SOL     OW 4337   6.394   0.818   2.623 -0.2649  0.2979  0.3849
33902SOL    HW1 4338   6.388   0.904   2.665 -0.4420  1.6095 -2.1286
33902SOL    HW2 4339   6.323   0.817   2.559 -0.6372 -2.0087  0.7493
33903SOL     OW 4340   3.945   6.366   8.917 -0.2859  0.0147 -0.0059
33903SOL    HW1 4341   4.036   6.336   8.924 -0.5784 -0.8968  0.0314
33903SOL    HW2 4342   3.902   6.331   8.995 -0.6638  0.4761 -0.0032
33904SOL     OW 4343   2.842   0.202   7.712  0.7746 -0.2340  0.0564
33904SOL    HW1 4344   2.881   0.178   7.795  0.9824 -0.5093 -0.1225
33904SOL    HW2 4345   2.888   0.150   7.646 -0.2073 -0.9284 -0.1113
33905SOL     OW 4346   6.858   1.258   6.119  0.3282 -0.3376 -0.0971
33905SOL    HW1 4347   6.765   1.254   6.144  0.4530 -2.1731  0.1901
33905SOL    HW2 4348   6.857   1.272   6.025 -0.1969  1.0378  0.0799
33906SOL     OW 4349   0.740   7.719   4.988  0.1086  0.5337 -0.1601
33906SOL    HW1 4350   0.763   7.795   4.935  1.8079 -0.0259 -0.2922
33906SOL    HW2 4351   0.802   7.722   5.061 -0.2757 -0.3498  0.2147
33907SOL     OW 4352   9.461   2.816   4.166 -0.1960  0.4546  0.7442
33907SOL    HW1 4353   9.368   2.797   4.180 -0.1787 -0.6044 -0.3797
33907SOL    HW2 4354   9.475   2.899   4.210 -1.5522  0.3724  1.3990
33908SOL     OW 4355   1.160   9.007   5.625  0.6328  0.4697 -0.4282
33908SOL    HW1 4356   1.165   9.061   5.704 -2.4809 -0.5017  0.5835
33908SOL    HW2 4357   1.192   8.921   5.652  1.7689  0.7125 -0.9280
33909SOL     OW 4358   8.861   4.910   0.059 -0.6483 -0.5114 -0.5189
33909SOL    HW1 4359   8.919   4.973   0.101  0.9775 -0.5158 -2.6550
33909SOL    HW2 4360   8.775   4.926   0.100  0.2525  1.3269  0.7696
33910SOL     OW 4361   0.734   3.754   6.943  0.3081 -0.1291  0.7670
33910SOL    HW1 4362   0.685   3.830   6.908  0.1070 -0.4684  0.2994
33910SOL    HW2 4363   0.712   3.683   6.883  2.9265  0.1482 -0.6638
33911SOL     OW 4364   6.770   6.527   6.631 -0.9008  0.1530 -0.2975
33911SOL    HW1 4365   6.731   6.582   6.699 -0.2115  0.0333  0.2143
33911SOL    HW2 4366   6.721   6.445   6.635 -1.0172  0.2315 -0.0941
33912SOL     OW 4367   1.254   5.199   8.573 -0.0503  0.2315 -0.0695
33912SOL    HW1 4368   1.259   5.112   8.614 -1.0331  0.1621 -0.0810
33912SOL    HW2 4369   1.342   5.235   8.585  0.1573 -0.4530  0.6217
33913SOL     OW 4370   5.675   0.532   1.595 -0.2308 -0.3691  0.5833
33913SOL    HW1 4371   5.764   0.544   1.627 -0.3036 -1.1500  1.1133
33913SOL    HW2 4372   5.620   0.573   1.662 -0.3006 -0.4911  0.6011
33914SOL     OW 4373   0.627   6.754   8.245 -0.5813 -0.7528  0.2855
33914SOL    HW1 4374   0.720   6.747   8.227 -0.7004  0.0611 -0.8157
33914SOL    HW2 4375   0.586   6.696   8.180 -0.8160 -1.9659  1.4711
33915SOL     OW 4376   5.741   7.176   6.697 -0.2818  0.5272 -0.1101
33915SOL    HW1 4377   5.827   7.145   6.669 -0.5947 -1.5098  0.9765
33915SOL    HW2 4378   5.687   7.172   6.618  0.2311  0.3627 -0.4592
33916SOL     OW 4379   7.415   3.486   3.278  0.1159 -0.6304  0.0481
33916SOL    HW1 4380   7.338   3.544   3.280 -0.5976 -1.5755  0.8253
33916SOL    HW2 4381   7.393   3.416   3.339  1.7795 -0.7051  0.6024
33917SOL     OW 4382   8.282   9.255   3.662 -0.0103  0.3380  0.2584
33917SOL    HW1 4383   8.260   9.304   3.741  1.6229 -0.1662  1.0625
33917SOL    HW2 4384   8.364   9.210   3.683 -0.0860 -0.6445 -1.3640
33918SOL     OW 4385   2.545   3.075   0.686  0.6722  0.6841 -0.3951
33918SOL    HW1 4386   2.606   3.008   0.718  0.5130 -0.1344 -1.7474
33918SOL    HW2 4387   2.600   3.151   0.669  1.1328  0.3453 -0.4596
33919SOL     OW 4388   1.151   7.722   9.621  0.1312  0.2348 -0.1896
33919SOL    HW1 4389   1.150   7.676   9.704  1.3032 -0.7632 -0.6921
33919SOL    HW2 4390   1.137   7.654   9.555 -0.6552  0.9931 -0.8252
33920SOL     OW 4391  10.274   6.627   1.000  0.3541  0.3122  0.4153
33920SOL    HW1 4392  10.324   6.649   0.922 -1.1896  1.9139 -0.1748
33920SOL    HW2 4393  10.290   6.533   1.013 -1.3353 -0.6663 -3.3277
33921SOL     OW 4394   9.846   0.834   0.656  0.1839 -0.6301 -0.9968
33921SOL    HW1 4395   9.814   0.914   0.612  0.4761 -0.2287 -0.4856
33921SOL    HW2 4396   9.839   0.766   0.589  0.8097  0.0149 -1.7382
33922SOL     OW 4397   0.794   3.535   2.845 -0.3413 -0.0266 -0.0460
33922SOL    HW1 4398   0.828   3.574   2.765 -0.3023  0.8638  0.3957
33922SOL    HW2 4399   0.847   3.572   2.915 -0.4028 -0.7610  0.4071
33923SOL     OW 4400   7.367   1.014   0.605 -0.1565 -0.2417  0.2290
33923SOL    HW1 4401   7.340   0.922   0.601  0.4391 -0.3912 -1.4978
33923SOL    HW2 4402   7.440   1.015   0.666  1.1416 -1.3200 -1.2258
33924SOL     OW 4403   7.289   1.230   6.749 -0.0026 -0.3180  0.6922
33924SOL    HW1 4404   7.334   1.146   6.762  1.3312  0.6824  2.9524
33924SOL    HW2 4405   7.203   1.205   6.714  0.2904 -2.6514  1.4636
33925SOL     OW 4406   2.276  10.350   1.386  0.0697  0.3431 -0.0679
33925SOL    HW1 4407   2.367  10.320   1.397 -0.8665 -2.2401  1.4953
33925SOL    HW2 4408   2.261  10.406   1.463  0.2359  0.5212 -0.1629
33926SOL     OW 4409   5.004   2.441   5.818  0.4093 -0.5141 -0.4215
33926SOL    HW1 4410   4.990   2.349   5.838 -1.5137 -0.1681  0.0856
33926SOL    HW2 4411   4.915   2.477   5.808  1.0849  1.3661 -0.1402
33927SOL     OW 4412  10.060   3.405   3.875 -0.0591  0.0610  0.4738
33927SOL    HW1 4413   9.981   3.439   3.833  1.5697  1.2597 -1.7809
33927SOL    HW2 4414  10.073   3.462   3.951  1.0594  2.8611 -1.6779
33928SOL     OW 4415   8.106   8.329   0.996 -0.3876  0.1291  0.0646
33928SOL    HW1 4416   8.173   8.311   1.062  0.2745 -0.8298 -0.8328
33928SOL    HW2 4417   8.092   8.424   1.000  0.1148  0.1675  1.1161
33929SOL     OW 4418  10.110   8.443   0.201  0.0016  0.0639  0.6769
33929SOL    HW1 4419  10.026   8.460   0.244 -0.4363  1.9302 -0.7322
33929SOL    HW2 4420  10.096   8.362   0.152 -1.2108  0.6274  0.0306
33930SOL     OW 4421   2.483   6.367   9.505  0.1590  0.6652 -0.7172
33930SOL    HW1 4422   2.566   6.411   9.526 -1.5469  3.3187  1.0755
33930SOL    HW2 4423   2.420   6.438   9.499 -2.0082 -1.2640 -2.2320
33931SOL     OW 4424   2.727   2.384   2.252  0.6891  0.3728 -0.3592
33931SOL    HW1 4425   2.741   2.317   2.185  1.5637 -1.1483  1.2437
33931SOL    HW2 4426   2.796   2.448   2.236  1.3166 -0.3230 -0.5275
33932SOL     OW 4427   1.923   6.026   9.300 -0.4607  0.6037  0.0671
33932SOL    HW1 4428   2.016   6.018   9.320 -0.6034 -0.4625  0.3668
33932SOL    HW2 4429   1.921   6.072   9.216  0.3912 -0.3484 -0.5006
33933SOL     OW 4430   6.491   0.561   2.671 -0.1010 -0.5841 -0.3037
33933SOL    HW1 4431   6.501   0.557   2.766 -0.7078  0.0428 -0.2055
33933SOL    HW2 4432   6.448   0.645   2.655  0.2997 -0.5282 -1.1591
33934SOL     OW 4433   9.363   0.988  10.095  0.1359  0.1654  0.2145
33934SOL    HW1 4434   9.368   0.897  10.125  1.2371  0.5636  1.3673
33934SOL    HW2 4435   9.339   1.038  10.173  1.0800  1.0250 -0.0179
33935SOL     OW 4436   1.728   7.774   2.469 -0.1168 -0.0109  0.0371
33935SOL    HW1 4437   1.780   7.695   2.480 -0.3541 -0.4104 -1.5079
33935SOL    HW2 4438   1.666   7.772   2.542  0.5440 -0.7029  0.6005
33936SOL     OW 4439   2.550   4.772   3.877 -0.1322  0.1752  0.2328
33936SOL    HW1 4440   2.607   4.742   3.806 -0.4610 -1.0824  0.4800
33936SOL    HW2 4441   2.609   4.795   3.948  0.2509  2.0824 -0.6273
33937SOL     OW 4442   6.708   4.202   4.227  0.5593  0.1564  0.2792
33937SOL    HW1 4443   6.778   4.202   4.162  1.2226  2.1204  0.9147
33937SOL    HW2 4444   6.701   4.293   4.255 -0.1439 -0.4967  2.4754
33938SOL     OW 4445   6.213   2.940   0.677  0.4262  0.1750 -0.4603
33938SOL    HW1 4446   6.184   2.956   0.767 -0.9706  1.8951 -1.1502
33938SOL    HW2 4447   6.281   3.005   0.662  0.5604 -0.0157 -0.6804
33939SOL     OW 4448   3.477   7.898   9.104 -0.0034  0.1905  0.0989
33939SOL    HW1 4449   3.568   7.871   9.096  0.0067 -0.0190  0.7861
33939SOL    HW2 4450   3.464   7.909   9.198 -0.5983  0.5395 -0.0176
33940SOL     OW 4451   4.396   0.825   8.350 -0.0631  0.1281 -0.4485
33940SOL    HW1 4452   4.332   0.780   8.405 -2.5942  0.2493 -3.0506
33940SOL    HW2 4453   4.353   0.908   8.327  1.3674  0.5569 -1.6995
33941SOL     OW 4454   6.254   2.596  10.185 -0.6244 -0.3819 -0.4183
33941SOL    HW1 4455   6.300   2.622  10.265  0.0790  0.0179 -0.9453
33941SOL    HW2 4456   6.168   2.567  10.216 -0.4191 -0.0869  0.4691
33942SOL     OW 4457   9.590   1.914   4.187 -0.1056 -0.2827  0.1992
33942SOL    HW1 4458   9.536   1.984   4.224 -0.5704 -1.2381  1.3689
33942SOL    HW2 4459   9.537   1.879   4.115 -0.5037 -0.3917  0.5428
33943SOL     OW 4460   8.734   0.352   1.943 -0.0937 -0.1148 -0.3250
33943SOL    HW1 4461   8.643   0.335   1.921  0.2047 -0.2817 -1.5115
33943SOL    HW2 4462   8.737   0.347   2.038 -1.8960  2.6805 -0.0013
33944SOL     OW 4463   6.854   8.627  10.294  0.1463 -0.1695 -0.4251
33944SOL    HW1 4464   6.869   8.643  10.387 -2.0688  0.6409 -0.1451
33944SOL    HW2 4465   6.762   8.602  10.289 -0.0758  0.8763 -2.5077
33945SOL     OW 4466   6.441   2.672   5.531 -0.3970  0.7804 -0.0988
33945SOL    HW1 4467   6.361   2.724   5.525 -1.4598 -0.5772  1.5012
33945SOL    HW2 4468   6.452   2.654   5.624 -0.0954 -1.8111 -0.5437
33946SOL     OW 4469  10.320   0.304   5.458 -0.6089 -0.0169 -0.0447
33946SOL    HW1 4470  10.320   0.285   5.552 -0.4242 -0.0268 -0.0468
33946SOL    HW2 4471  10.362   0.390   5.451 -1.7841  0.5765  0.0009
33947SOL     OW 4472   8.405  10.279   9.489  0.8895  0.2413 -0.0078
33947SOL    HW1 4473   8.472  10.332   9.533  0.1428 -0.4244  2.0770
33947SOL    HW2 4474   8.327  10.335   9.490  0.9709  0.3852 -0.9318
33948SOL     OW 4475   5.740   8.476   8.728 -0.0782  0.3186 -0.0476
33948SOL    HW1 4476   5.738   8.389   8.769  0.9656  0.6908  0.8469
33948SOL    HW2 4477   5.652   8.511   8.741 -0.3474 -0.3868  0.0621
33949SOL     OW 4478   7.699   5.214   3.582 -0.3235  0.5656 -0.2833
33949SOL    HW1 4479   7.754   5.229   3.658  0.0833 -0.7300 -0.3009
33949SOL    HW2 4480   7.743   5.260   3.510  0.9324 -0.7023 -0.3640
33950SOL     OW 4481   6.514  10.206   6.773  0.1277  0.6422  0.2606
33950SOL    HW1 4482   6.572  10.215   6.849 -0.2106  0.1479  0.5847
33950SOL    HW2 4483   6.482  10.295   6.756 -1.1512  0.5053  1.7843
33951SOL     OW 4484   1.125   2.471   0.442  0.7078  0.3314 -0.2334
33951SOL    HW1 4485   1.106   2.436   0.529 -0.2782 -2.4000 -1.4488
33951SOL    HW2 4486   1.188   2.410   0.405 -0.2888  0.3692 -2.1053
33952SOL     OW 4487   7.296   7.841   1.348  0.3305  0.1816  0.1186
33952SOL    HW1 4488   7.245   7.807   1.273  1.0345 -2.0842  0.5786
33952SOL    HW2 4489   7.230   7.875   1.408 -1.0170 -3.9801  1.3601
33953SOL     OW 4490   6.541   9.245   7.485  0.0738  0.0406  0.6737
33953SOL    HW1 4491   6.487   9.177   7.525 -0.0453 -0.4654 -0.3392
33953SOL    HW2 4492   6.612   9.199   7.443  0.8513  0.6560  1.2727
33954SOL     OW 4493   3.719   2.408  10.256 -0.4682  0.9553 -1.0178
33954SOL    HW1 4494   3.625   2.425  10.266 -0.1722  2.3210 -0.2979
33954SOL    HW2 4495   3.761   2.490  10.284  0.9550  0.2201 -0.9240
33955SOL     OW 4496   0.165   2.909  10.206  0.1831 -0.5369  0.4434
33955SOL    HW1 4497   0.092   2.928  10.146  1.1542 -1.2004 -1.0051
33955SOL    HW2 4498   0.187   2.994  10.244  0.2548  0.1165 -0.9967
33956SOL     OW 4499   9.198   2.582   6.688 -0.6553 -0.6220  0.1147
33956SOL    HW1 4500   9.240   2.626   6.762 -0.1953  0.2402 -0.6477
33956SOL    HW2 4501   9.198   2.489   6.712 -0.7665 -0.3251  1.3120
33957SOL     OW 4502   7.267   8.915   9.435  0.6067 -0.1543  0.2964
33957SOL    HW1 4503   7.279   8.978   9.505 -0.1477 -1.2752  1.4823
33957SOL    HW2 4504   7.174   8.892   9.439  0.3522  0.3775 -1.6375
33958SOL     OW 4505   2.949   4.368   5.452  0.0332  0.4190  0.3874
33958SOL    HW1 4506   2.951   4.330   5.541 -0.3861 -0.8105 -0.1013
33958SOL    HW2 4507   2.867   4.336   5.415  0.9032 -0.3341 -0.9672
33959SOL     OW 4508   4.830   0.778   0.357 -0.0288 -0.9147  0.3051
33959SOL    HW1 4509   4.814   0.713   0.290 -0.0747  0.6910 -1.3239
33959SOL    HW2 4510   4.789   0.742   0.436 -0.9977 -2.3389 -0.7895
33960SOL     OW 4511   9.541   8.422   3.060 -0.3375 -0.3746  0.3747
33960SOL    HW1 4512   9.628   8.458   3.039  0.0199 -1.5217 -0.1892
33960SOL    HW2 4513   9.480   8.473   3.006  0.1430 -0.5539 -0.3469
33961SOL     OW 4514   1.814   9.620   1.470  0.5457 -0.0962 -0.5065
33961SOL    HW1 4515   1.886   9.565   1.437  0.3490 -0.1174 -0.9069
33961SOL    HW2 4516   1.856   9.679   1.533  0.9005 -0.1657 -0.6743
33962SOL     OW 4517   8.522   3.775   7.509 -0.6473 -0.1907 -0.0069
33962SOL    HW1 4518   8.566   3.852   7.474  0.5286 -0.9977 -0.3812
33962SOL    HW2 4519   8.461   3.809   7.573 -0.9919  1.1395 -0.9923
33963SOL     OW 4520   7.910   5.505   6.949  0.3604  0.0689  0.7098
33963SOL    HW1 4521   7.988   5.556   6.969 -0.1531  2.1379 -2.0630
33963SOL    HW2 4522   7.932   5.457   6.869 -1.8889  2.7903 -1.7730
33964SOL     OW 4523   9.955   9.162   3.184 -0.7168 -0.1121  0.0404
33964SOL    HW1 4524   9.993   9.146   3.271 -0.5081 -0.5115 -0.1208
33964SOL    HW2 4525   9.906   9.244   3.194 -2.4572 -1.2419  1.0926
33965SOL     OW 4526   6.964  10.327   5.223  0.3939  0.1095 -0.1494
33965SOL    HW1 4527   6.888  10.384   5.210 -1.5064 -1.9796  0.9768
33965SOL    HW2 4528   6.957  10.299   5.315  1.1341 -1.9895 -0.6736
33966SOL     OW 4529   9.106   7.389   8.282 -0.3063  0.1801  0.4993
33966SOL    HW1 4530   9.193   7.365   8.251 -0.1714  1.3955 -0.1423
33966SOL    HW2 4531   9.120   7.469   8.333 -0.6399 -1.3021  3.0774
33967SOL     OW 4532   5.248   2.829   8.309  0.1418 -0.0396 -0.5809
33967SOL    HW1 4533   5.322   2.768   8.320  0.0820 -0.2422 -1.2433
33967SOL    HW2 4534   5.196   2.818   8.388 -0.1098 -1.1988 -0.8879
33968SOL     OW 4535   8.771   9.649   8.712  0.5448  0.4170 -0.0622
33968SOL    HW1 4536   8.724   9.572   8.679 -0.0208  0.6567  0.1638
33968SOL    HW2 4537   8.711   9.687   8.776  1.0708  0.7143  0.2582
33969SOL     OW 4538   7.483   1.405   6.656  0.0152 -0.5813  0.4978
33969SOL    HW1 4539   7.431   1.334   6.694 -0.0450 -0.0615  1.3956
33969SOL    HW2 4540   7.495   1.468   6.727  2.8342 -1.1924  0.6820
33970SOL     OW 4541   5.193   4.404   1.801  0.2881  0.0689  0.7317
33970SOL    HW1 4542   5.114   4.430   1.847 -0.4474  1.5061 -1.1934
33970SOL    HW2 4543   5.162   4.371   1.716  1.7378  0.5649 -0.0336
33971SOL     OW 4544   4.141   0.834   3.122 -0.1791 -0.5187  0.0104
33971SOL    HW1 4545   4.162   0.741   3.114 -0.2243 -0.5163 -0.1305
33971SOL    HW2 4546   4.195   0.865   3.196 -0.5784 -0.7812  0.4183
33972SOL     OW 4547   4.681   2.361   8.305  0.7283 -0.5864  0.5536
33972SOL    HW1 4548   4.776   2.356   8.300  0.6543 -0.6690 -1.4181
33972SOL    HW2 4549   4.651   2.271   8.292  0.3562 -0.4122  0.1656
33973SOL     OW 4550   9.381   5.311   3.611  0.4372  0.2082  0.0301
33973SOL    HW1 4551   9.431   5.385   3.576 -0.4151  0.2455 -1.1848
33973SOL    HW2 4552   9.294   5.320   3.572  0.2848 -1.3732 -0.0848
33974SOL     OW 4553   0.007   6.096   6.798  0.1573 -0.4527  0.0957
33974SOL    HW1 4554   0.075   6.040   6.761 -0.6616 -1.9629  0.7743
33974SOL    HW2 4555   0.048   6.183   6.805  1.6785 -1.1002 -0.3915
33975SOL     OW 4556   8.846   5.340   0.136 -0.1346  0.1187  0.1089
33975SOL    HW1 4557   8.808   5.306   0.217  0.0770  2.5919  1.3348
33975SOL    HW2 4558   8.821   5.276   0.069 -1.6032 -1.2238  1.8408
33976SOL     OW 4559   9.488   2.887   3.220 -0.6253  0.2934  0.0874
33976SOL    HW1 4560   9.532   2.858   3.300 -0.1651  0.4553 -0.0990
33976SOL    HW2 4561   9.559   2.925   3.167 -1.0603  0.9259 -0.0490
33977SOL     OW 4562   7.104   8.179   2.980 -0.2108 -0.0136 -0.2006
33977SOL    HW1 4563   7.117   8.085   2.970  0.1849  0.1772 -1.6711
33977SOL    HW2 4564   7.042   8.187   3.052  0.0142 -1.3786  0.1751
33978SOL     OW 4565  10.000   9.390   2.590  0.1246 -0.2550 -0.6467
33978SOL    HW1 4566   9.940   9.400   2.664  0.6593 -1.1148 -0.0634
33978SOL    HW2 4567   9.956   9.430   2.516 -1.4413 -1.4081 -0.3844
33979SOL     OW 4568   1.313   1.667   2.643  0.8521 -0.3468  0.1699
33979SOL    HW1 4569   1.380   1.602   2.620 -0.1197 -2.2381  2.3071
33979SOL    HW2 4570   1.309   1.665   2.739  2.0552  4.3153  0.5688
33980SOL     OW 4571   5.272   1.805   3.723  0.0019 -0.0811 -0.4356
33980SOL    HW1 4572   5.243   1.878   3.669 -0.1524 -0.3443 -0.7126
33980SOL    HW2 4573   5.345   1.766   3.675 -1.4031 -1.5500 -1.4874
33981SOL     OW 4574   5.571   5.572   2.921 -0.1037  0.1253  0.1875
33981SOL    HW1 4575   5.643   5.610   2.871  0.0396  1.4559  1.3591
33981SOL    HW2 4576   5.614   5.536   2.999 -0.6003  0.1450  0.4691
33982SOL     OW 4577   5.671   5.346   9.790  0.0888 -0.5150 -0.1012
33982SOL    HW1 4578   5.623   5.275   9.833 -1.1235 -0.5352 -1.4217
33982SOL    HW2 4579   5.622   5.364   9.710  1.9781 -0.1550 -1.2601
33983SOL     OW 4580   4.540   2.443   7.695 -0.1748 -0.2226  0.3240
33983SOL    HW1 4581   4.517   2.462   7.785  0.5312  0.5750  0.3487
33983SOL    HW2 4582   4.476   2.491   7.642  0.5756  0.8938  0.3998
33984SOL     OW 4583   4.226   8.578   0.250  0.0609  0.1033 -0.0844
33984SOL    HW1 4584   4.192   8.488   0.255  1.1709 -0.3007  0.5326
33984SOL    HW2 4585   4.201   8.608   0.163 -1.4118 -0.3465  0.1522
33985SOL     OW 4586   9.275   8.828  10.312 -0.1073 -0.1296 -0.3669
33985SOL    HW1 4587   9.242   8.886  10.381 -2.0993 -0.6770 -0.8019
33985SOL    HW2 4588   9.230   8.745  10.326  1.8331 -1.2590 -0.4652
33986SOL     OW 4589   1.173   6.868   2.075  0.1414 -0.5438  0.3616
33986SOL    HW1 4590   1.216   6.811   2.139  3.1935  1.5600  0.4140
33986SOL    HW2 4591   1.085   6.881   2.111  1.1514 -0.8423  3.2769
33987SOL     OW 4592   1.331   1.115   8.875 -0.3554 -0.3449  0.1381
33987SOL    HW1 4593   1.287   1.032   8.890  3.4488 -2.7076 -0.3677
33987SOL    HW2 4594   1.350   1.116   8.781 -0.4598  1.2176  0.1024
33988SOL     OW 4595   8.590   7.689   2.142 -0.6181  0.5279 -0.3207
33988SOL    HW1 4596   8.568   7.778   2.114 -1.1619  1.4074  2.5578
33988SOL    HW2 4597   8.551   7.632   2.076  0.3746  2.3860 -2.6486
33989SOL     OW 4598   8.939  10.344   2.831 -0.2395  0.1254 -0.3989
33989SOL    HW1 4599   8.992  10.361   2.753  0.8430  1.8581  0.6418
33989SOL    HW2 4600   8.995  10.288   2.885 -1.1045 -1.3227 -0.9250
33990SOL     OW 4601   4.513   2.242   5.145  0.3019 -0.1161  0.3164
33990SOL    HW1 4602   4.512   2.284   5.231  0.4391 -1.6561  1.1123
33990SOL    HW2 4603   4.450   2.292   5.093 -0.4726  0.2881  1.6001
33991SOL     OW 4604   4.469   9.856   9.930 -0.2140  0.2574  0.4324
33991SOL    HW1 4605   4.496   9.796   9.861 -1.8497  2.3766 -2.2769
33991SOL    HW2 4606   4.540   9.920   9.935  0.0516 -0.0763  0.9685
33992SOL     OW 4607   0.218   6.808   1.007 -0.1939  0.5409  0.2029
33992SOL    HW1 4608   0.308   6.795   1.037  0.1602 -0.7744 -1.2401
33992SOL    HW2 4609   0.221   6.889   0.957  0.6696 -0.4135 -1.3792
33993SOL     OW 4610   7.720   8.860   2.511  0.1611 -0.7730  0.2582
33993SOL    HW1 4611   7.694   8.858   2.419  0.7851 -2.2856  0.0729
33993SOL    HW2 4612   7.640   8.834   2.559  0.1203 -1.0453  0.0470
33994SOL     OW 4613   1.113   0.065   0.012 -0.2040  0.3740 -0.7239
33994SOL    HW1 4614   1.158  -0.015   0.039 -0.0472  1.0213  1.0433
33994SOL    HW2 4615   1.031   0.035  -0.027 -0.2683 -0.6401  0.1670
33995SOL     OW 4616   2.385   9.015   4.981  0.0494 -0.6598  0.5250
33995SOL    HW1 4617   2.356   9.064   4.904  0.2141  0.2859  1.0383
33995SOL    HW2 4618   2.481   9.018   4.976  0.0616 -0.4818  0.8233
33996SOL     OW 4619   9.226   0.852   8.786 -0.3081 -0.5329  0.3209
33996SOL    HW1 4620   9.130   0.845   8.784 -0.2987 -1.2456  1.2800
33996SOL    HW2 4621   9.254   0.776   8.839  1.1045 -3.0114 -3.5473
33997SOL     OW 4622   5.862   2.630   3.466 -0.0411  0.1461 -0.3182
33997SOL    HW1 4623   5.797   2.562   3.448  1.2404 -1.1452 -0.2562
33997SOL    HW2 4624   5.811   2.705   3.496 -1.3867 -2.1498  4.0437
33998SOL     OW 4625   7.370   7.921   1.803  0.2808  0.0367  0.1271
33998SOL    HW1 4626   7.391   7.861   1.732 -0.4961  0.0920 -0.1511
33998SOL    HW2 4627   7.279   7.901   1.826  0.3439  0.4032  0.7286
33999SOL     OW 4628   7.196   1.463   2.765  0.4221 -0.0367  0.5411
33999SOL    HW1 4629   7.221   1.453   2.674 -0.8434  1.0624  0.0321
33999SOL    HW2 4630   7.196   1.374   2.801 -1.2595 -0.7898 -1.1595
34000SOL     OW 4631   4.223   4.171   7.264  0.0952  0.6904  0.0466
34000SOL    HW1 4632   4.239   4.181   7.358 -0.5249  1.0968  0.1135
34000SOL    HW2 4633   4.191   4.257   7.235  0.0830  0.5103 -0.4956
34001SOL     OW 4634   4.125   5.628   1.802 -0.1680 -0.1322 -0.1077
34001SOL    HW1 4635   4.205   5.586   1.771 -0.5314 -0.8917 -0.0346
34001SOL    HW2 4636   4.153   5.683   1.875  0.4288  0.3452 -0.6843
34002SOL     OW 4637   1.063   9.761   7.659  0.0579 -0.0790 -0.0567
34002SOL    HW1 4638   1.131   9.698   7.635 -0.5897 -0.5750 -0.6222
34002SOL    HW2 4639   1.042   9.805   7.576 -1.0925 -0.7162 -0.1199
34003SOL     OW 4640   0.642   4.471   2.776 -0.2277 -0.5533 -0.1519
34003SOL    HW1 4641   0.738   4.478   2.775  0.0061 -2.9593 -0.7806
34003SOL    HW2 4642   0.624   4.404   2.842 -1.4909 -0.2225 -0.1417
34004SOL     OW 4643   0.923   1.483   1.632 -0.0035  0.4799  0.1054
34004SOL    HW1 4644   0.834   1.473   1.597 -0.8273 -0.1480  2.2235
34004SOL    HW2 4645   0.942   1.399   1.673  1.4286  0.7541  0.0537
34005SOL     OW 4646   3.663   7.573   9.963 -0.5208 -0.4165 -0.6132
34005SOL    HW1 4647   3.744   7.600   9.920  0.5396 -2.2877  0.1116
34005SOL    HW2 4648   3.665   7.478   9.963 -1.6385 -0.5186  1.3980
34006SOL     OW 4649   0.943   1.009   8.850  0.4329  0.1536 -0.3508
34006SOL    HW1 4650   1.021   0.956   8.865 -0.9639 -1.7224  0.7942
34006SOL    HW2 4651   0.976   1.095   8.822  2.8110 -1.2965 -2.4016
34007SOL     OW 4652   8.467   2.884   3.047 -0.2629  0.1738  0.8468
34007SOL    HW1 4653   8.427   2.895   3.134 -0.4009 -0.2733  0.8458
34007SOL    HW2 4654   8.430   2.801   3.015 -0.5965  0.5863  0.1502
34008SOL     OW 4655   7.243   0.811   4.345 -0.0494  0.6500  0.0013
34008SOL    HW1 4656   7.216   0.812   4.437  0.6206 -1.0383  0.2471
34008SOL    HW2 4657   7.281   0.724   4.331 -0.7228  0.6171 -2.0506
34009SOL     OW 4658   2.404   0.779   7.628 -0.2208  0.3876  0.0660
34009SOL    HW1 4659   2.410   0.869   7.597 -1.0869 -0.6182 -3.5386
34009SOL    HW2 4660   2.492   0.743   7.618 -0.3309  0.2833 -0.5782
34010SOL     OW 4661   0.496   7.902   2.037 -0.0453 -0.0910 -0.4680
34010SOL    HW1 4662   0.422   7.870   1.986  1.0796 -2.3200 -0.8758
34010SOL    HW2 4663   0.512   7.833   2.101  1.2397  0.6414  0.0376
34011SOL     OW 4664   4.336   9.729   8.374 -0.4411  0.3784 -0.2478
34011SOL    HW1 4665   4.415   9.768   8.337 -0.0348 -0.7267 -0.5748
34011SOL    HW2 4666   4.280   9.711   8.299 -0.3845 -0.1746 -0.1639
34012SOL     OW 4667   3.151   2.186   1.422  0.8298  0.6797  0.1062
34012SOL    HW1 4668   3.190   2.273   1.425 -1.0045  1.5840 -0.6231
34012SOL    HW2 4669   3.067   2.195   1.469  0.8859 -0.8624  0.5778
34013SOL     OW 4670   0.619   7.782   1.719 -0.3581  0.4920 -0.4335
34013SOL    HW1 4671   0.560   7.857   1.719 -0.5768  0.3189 -0.0053
34013SOL    HW2 4672   0.652   7.778   1.629 -0.9287  0.6397 -0.6536
34014SOL     OW 4673   8.943   0.067   0.453 -0.6014  0.3158  0.4762
34014SOL    HW1 4674   9.000   0.137   0.422 -1.9105  2.2362  2.0847
34014SOL    HW2 4675   8.857   0.088   0.417 -0.3910 -2.7434 -2.2451
34015SOL     OW 4676   8.804  10.341   8.299  0.1011 -0.4142  0.3458
34015SOL    HW1 4677   8.713  10.346   8.328  0.1187 -1.3325  0.5933
34015SOL    HW2 4678   8.826  10.431   8.275 -0.9728 -0.2341 -0.0367
34016SOL     OW 4679   1.394   6.989   3.407  0.1673 -0.1360  0.4304
34016SOL    HW1 4680   1.409   6.922   3.474  1.1644 -0.0926  0.2705
34016SOL    HW2 4681   1.437   6.954   3.328 -2.5566 -1.0630 -0.7578
34017SOL     OW 4682   5.841   1.338   6.405  0.0797  0.0148  0.4523
34017SOL    HW1 4683   5.828   1.295   6.321 -1.8835  2.6287 -0.7143
34017SOL    HW2 4684   5.886   1.420   6.384 -1.5335  1.3057  1.7037
34018SOL     OW 4685   4.612   2.257  10.360 -0.0402  0.0414  0.3127
34018SOL    HW1 4686   4.703   2.245  10.388 -0.0581 -0.9474 -0.0289
34018SOL    HW2 4687   4.595   2.350  10.376  1.5723  0.6534 -1.1509
34019SOL     OW 4688   7.134   3.832   0.793  0.2622 -0.0862  0.3310
34019SOL    HW1 4689   7.215   3.883   0.784  0.4200 -0.5302 -0.8977
34019SOL    HW2 4690   7.080   3.884   0.852  0.8832  0.9218  0.0374
34020SOL     OW 4691   7.886   5.270   4.956 -0.3584  0.0290 -0.2297
34020SOL    HW1 4692   7.818   5.336   4.967  0.1641  0.5946 -0.3882
34020SOL    HW2 4693   7.968   5.317   4.969  0.0044 -1.2545  3.4743
34021SOL     OW 4694   0.946   2.524   3.500 -0.2503  0.2819 -0.3455
34021SOL    HW1 4695   0.860   2.483   3.498  0.1057 -0.5827 -3.1584
34021SOL    HW2 4696   0.928   2.617   3.509 -1.5459  0.1485 -1.2462
34022SOL     OW 4697   4.315   2.210   6.623  0.0999  0.7204 -0.0857
34022SOL    HW1 4698   4.357   2.203   6.537 -0.2694  2.2630 -0.4133
34022SOL    HW2 4699   4.378   2.258   6.676 -0.3005  1.0890  0.0616
34023SOL     OW 4700   2.570   8.025   4.364 -0.0025 -0.0087  0.0177
34023SOL    HW1 4701   2.481   7.992   4.381  0.7088 -0.6511  3.0848
34023SOL    HW2 4702   2.623   7.946   4.357  0.5060  0.3990 -0.8891
34024SOL     OW 4703   0.200   8.615   8.432 -0.1554  0.4152 -0.3107
34024SOL    HW1 4704   0.222   8.522   8.443 -1.7686 -0.2991 -2.4177
34024SOL    HW2 4705   0.130   8.631   8.495 -0.9911 -0.2646 -1.0508
34025SOL     OW 4706   7.761   1.561   5.966  0.1728  0.0553  0.5430
34025SOL    HW1 4707   7.845   1.515   5.964  0.0874 -0.0983  0.4867
34025SOL    HW2 4708   7.709   1.513   6.030  0.0493  0.0148  0.4117
34026SOL     OW 4709   3.280   4.603   0.681  0.2653  0.7916 -0.2608
34026SOL    HW1 4710   3.254   4.515   0.655  1.9798  0.3235 -0.5106
34026SOL    HW2 4711   3.272   4.655   0.601 -1.7154  1.1322  0.1180
34027SOL     OW 4712   2.891   6.127   2.215 -0.0809  0.3153  0.2799
34027SOL    HW1 4713   2.824   6.104   2.151 -0.3094  3.4855 -0.8068
34027SOL    HW2 4714   2.959   6.061   2.203 -0.4232  0.3575 -2.8555
34028SOL     OW 4715   1.174   1.396   2.940  0.1785 -0.8014  0.3564
34028SOL    HW1 4716   1.158   1.316   2.989  2.7515 -1.5187  0.1371
34028SOL    HW2 4717   1.221   1.453   3.001  0.5405 -0.4201 -0.2707
34029SOL     OW 4718   3.421   4.046   9.989  0.0999 -0.4361  0.0426
34029SOL    HW1 4719   3.330   4.060   9.963  0.0464 -1.7133 -0.4932
34029SOL    HW2 4720   3.433   3.951   9.989  1.4484 -0.2948  0.0503
34030SOL     OW 4721   9.538   8.169   4.794 -0.2988 -0.4565  0.0330
34030SOL    HW1 4722   9.512   8.177   4.702  1.9222  0.2796 -0.5982
34030SOL    HW2 4723   9.493   8.091   4.826 -1.8404 -0.1992 -1.3914
34031SOL     OW 4724   6.516   2.355   1.324  0.6558  0.9527 -0.5609
34031SOL    HW1 4725   6.566   2.306   1.259  0.9884  0.2668  0.1900
34031SOL    HW2 4726   6.581   2.383   1.389  0.1666  0.6358  0.0768
34032SOL     OW 4727   6.922   3.391  10.260  0.0303 -0.1997  0.2314
34032SOL    HW1 4728   6.880   3.338  10.192 -1.4274  1.9409 -0.6550
34032SOL    HW2 4729   6.857   3.396  10.330 -0.7050  1.9146 -0.5166
34033SOL     OW 4730   7.646   3.009   0.331 -0.6250  0.1824 -0.2629
34033SOL    HW1 4731   7.678   3.019   0.241 -1.0439  0.7472 -0.3597
34033SOL    HW2 4732   7.639   3.099   0.364 -1.9512  0.0815 -0.2055
34034SOL     OW 4733   5.237   6.794   6.805  0.1004 -0.4673 -0.3798
34034SOL    HW1 4734   5.176   6.832   6.868  0.9771  0.8422 -0.2954
34034SOL    HW2 4735   5.230   6.699   6.819 -3.3545 -0.5617 -1.7157
34035SOL     OW 4736  10.329   5.725   8.747 -0.0730 -0.0588 -0.1443
34035SOL    HW1 4737  10.343   5.797   8.809 -0.5043  0.6932 -0.8975
34035SOL    HW2 4738  10.273   5.664   8.795 -0.7216  0.6944  0.0891
34036SOL     OW 4739   3.469   4.323   0.198  0.0544 -0.5431 -0.0831
34036SOL    HW1 4740   3.431   4.293   0.281  2.0866 -1.6107  0.5242
34036SOL    HW2 4741   3.460   4.249   0.139 -0.2823 -0.2183 -0.4435
34037SOL     OW 4742   1.032   1.937   0.058 -0.3274 -0.4827 -0.5398
34037SOL    HW1 4743   1.121   1.918   0.027  0.9160 -1.0993  2.9696
34037SOL    HW2 4744   1.010   1.862   0.113 -2.1510  0.7111  0.4244
34038SOL     OW 4745   8.929   7.183   7.392  0.5836  0.2769  0.2261
34038SOL    HW1 4746   8.890   7.098   7.410  0.5341  0.1128 -0.6220
34038SOL    HW2 4747   8.856   7.239   7.367  0.5589  0.6950  1.1884
34039SOL     OW 4748   7.290   4.256   6.168 -0.0801 -0.6730 -0.4105
34039SOL    HW1 4749   7.347   4.252   6.245  2.2678  0.4466 -1.9856
34039SOL    HW2 4750   7.217   4.312   6.194  1.3953  0.8683  0.6043
34040SOL     OW 4751   8.139   1.006   6.969  0.5191 -0.0347 -0.0530
34040SOL    HW1 4752   8.106   0.921   6.998  0.8803  0.1626  0.9789
34040SOL    HW2 4753   8.182   0.988   6.885  1.1581 -1.0041  0.4595
34041SOL     OW 4754   6.132   3.101   2.497 -0.0673  0.4547  0.1192
34041SOL    HW1 4755   6.131   3.183   2.546 -2.5198  0.9420 -0.6286
34041SOL    HW2 4756   6.170   3.038   2.558  1.8090  2.0856  0.7327
34042SOL     OW 4757   9.307   3.676   7.610 -0.1350 -0.0224  0.4793
34042SOL    HW1 4758   9.382   3.727   7.643 -0.0750 -0.5227  1.1513
34042SOL    HW2 4759   9.328   3.586   7.634 -0.3229 -0.3426 -0.5475
34043SOL     OW 4760   7.637   0.420   8.727  0.0767 -0.0624  0.2575
34043SOL    HW1 4761   7.566   0.370   8.768  0.4155 -0.5328  0.2782
34043SOL    HW2 4762   7.708   0.418   8.792 -0.3581  1.6013  0.8555
34044SOL     OW 4763   3.104   0.389   0.101 -0.1450  0.1381 -0.5257
34044SOL    HW1 4764   3.043   0.315   0.101  1.3028 -1.1119 -0.3117
34044SOL    HW2 4765   3.098   0.425   0.190 -0.7639  0.2130 -0.5939
34045SOL     OW 4766   0.972   7.356   4.683 -0.1334 -0.0004  0.7230
34045SOL    HW1 4767   0.992   7.332   4.593 -0.8371 -1.3623  0.9017
34045SOL    HW2 4768   0.953   7.449   4.680  2.1224  0.5102 -0.1217
34046SOL     OW 4769   3.554   3.094   6.983  0.0993  0.0223  0.5333
34046SOL    HW1 4770   3.581   3.182   6.958 -4.1575  1.6119  0.7248
34046SOL    HW2 4771   3.529   3.052   6.901 -0.8961  0.2106  0.7288
34047SOL     OW 4772   0.563   8.234   7.837  0.0366 -1.0322 -0.3504
34047SOL    HW1 4773   0.492   8.299   7.841  0.7746 -0.0988 -1.7420
34047SOL    HW2 4774   0.520   8.151   7.858 -0.8579 -0.0831  1.9263
34048SOL     OW 4775   6.654   3.958   4.605 -0.0969  0.0089  0.4453
34048SOL    HW1 4776   6.674   3.888   4.667  0.4115  0.6304  0.9992
34048SOL    HW2 4777   6.709   4.031   4.633 -0.7838  0.7094  0.0168
34049SOL     OW 4778   2.822   3.144   5.867  0.3567 -0.0661 -0.8584
34049SOL    HW1 4779   2.751   3.162   5.929  0.4771  1.0256 -1.0164
34049SOL    HW2 4780   2.876   3.078   5.911  0.5348  0.8064  0.2784
34050SOL     OW 4781   8.825  10.176   4.140 -0.2707 -0.3325  0.1936
34050SOL    HW1 4782   8.863  10.250   4.093  2.1336 -1.3795  0.3311
34050SOL    HW2 4783   8.822  10.106   4.075 -0.7985 -0.6512  0.5533
34051SOL     OW 4784   0.853   9.548   6.981 -0.3159 -0.0517  0.1961
34051SOL    HW1 4785   0.764   9.543   6.946 -0.7508 -1.1359  1.3600
34051SOL    HW2 4786   0.845   9.515   7.071  0.8738  1.9485  1.1080
34052SOL     OW 4787   7.605  10.259   7.981  0.2793  0.4682  0.7334
34052SOL    HW1 4788   7.692  10.286   8.012  1.2730  1.2017 -2.3337
34052SOL    HW2 4789   7.578  10.329   7.921 -0.0740 -2.0851 -2.3527
34053SOL     OW 4790   9.078   3.584   9.677 -0.1683  0.0897 -0.5505
34053SOL    HW1 4791   9.056   3.603   9.768 -0.1965  0.1841 -0.5765
34053SOL    HW2 4792   9.136   3.509   9.681  1.4870  1.3230 -0.3189
34054SOL     OW 4793   9.450   6.653   7.107 -0.3216  0.4980 -0.2000
34054SOL    HW1 4794   9.490   6.723   7.159 -0.6768  0.0698  0.6832
34054SOL    HW2 4795   9.476   6.572   7.152  0.8949 -0.0351 -1.7522
34055SOL     OW 4796  10.011   3.722   8.871 -0.4779  0.3678  0.4007
34055SOL    HW1 4797   9.925   3.709   8.831 -0.4373  2.0450 -0.3298
34055SOL    HW2 4798  10.058   3.778   8.809  1.1417 -0.4699  0.8038
34056SOL     OW 4799   0.607   6.199   5.216  0.1789  0.5378 -0.0385
34056SOL    HW1 4800   0.588   6.250   5.137  0.4879 -0.4070 -0.7413
34056SOL    HW2 4801   0.525   6.155   5.236  0.4015 -0.1053 -0.5055
34057SOL     OW 4802   0.787   6.150   7.195 -0.4874  0.2908 -0.1319
34057SOL    HW1 4803   0.795   6.056   7.207  1.1423  0.5312  0.9081
34057SOL    HW2 4804   0.817   6.166   7.105 -2.0940 -0.3031 -0.8023
34058SOL     OW 4805   5.071   6.329   7.643 -0.5627  0.3390  0.1898
34058SOL    HW1 4806   5.140   6.390   7.618 -0.3792  0.1901  0.3255
34058SOL    HW2 4807   5.024   6.374   7.713 -0.2064  0.1836  0.5368
34059SOL     OW 4808   0.357   5.535   5.378 -0.3194  0.8750  0.0423
34059SOL    HW1 4809   0.384   5.531   5.287  4.1019  0.4577  1.1158
34059SOL    HW2 4810   0.389   5.621   5.408 -2.0807  1.1877  1.1441
34060SOL     OW 4811   8.865   9.807   0.219  0.1115  0.1130 -0.3878
34060SOL    HW1 4812   8.956   9.781   0.203  0.1101  0.5642 -1.2170
34060SOL    HW2 4813   8.822   9.727   0.248  1.1469  0.2703  1.7413
34061SOL     OW 4814   9.874   1.768   5.883 -0.0747  0.8292  0.1964
34061SOL    HW1 4815   9.813   1.818   5.828  0.4993  0.4152 -0.8508
34061SOL    HW2 4816   9.941   1.832   5.907 -0.6533  1.1675  0.9574
34062SOL     OW 4817   2.198   4.519   4.932 -0.1326 -0.0933 -0.3102
34062SOL    HW1 4818   2.250   4.566   4.997 -1.7309  0.8310  0.3616
34062SOL    HW2 4819   2.138   4.586   4.897 -0.0441 -0.8252 -1.9524
34063SOL     OW 4820   5.394   4.777   5.138  1.2081  0.0337  0.0576
34063SOL    HW1 4821   5.316   4.832   5.138  0.6737 -0.6944 -0.4230
34063SOL    HW2 4822   5.394   4.736   5.225  0.6371 -0.5131 -0.1875
34064SOL     OW 4823   7.196   0.304   7.537 -0.0148  0.1388 -0.1319
34064SOL    HW1 4824   7.185   0.382   7.592 -0.1829  0.4232 -0.5679
34064SOL    HW2 4825   7.291   0.294   7.527  0.2160 -1.5318  2.5095
34065SOL     OW 4826   6.863   0.594   4.169  0.0389 -0.0155  0.4202
34065SOL    HW1 4827   6.885   0.687   4.165  3.2819 -0.7027 -0.9118
34065SOL    HW2 4828   6.898   0.565   4.254  2.8517 -0.6906 -0.8322
34066SOL     OW 4829   1.897   9.538   4.823 -0.0024  0.0927  0.5109
34066SOL    HW1 4830   1.991   9.532   4.807 -0.1244 -1.6802  0.2821
34066SOL    HW2 4831   1.864   9.449   4.810 -1.6028  0.5199  1.3012
34067SOL     OW 4832   1.422   7.009   8.483  0.3577  0.1844 -0.3722
34067SOL    HW1 4833   1.351   6.944   8.481  0.2382  0.3325 -1.7754
34067SOL    HW2 4834   1.491   6.968   8.535  0.7089 -1.5390 -2.0970
34068SOL     OW 4835   1.259   9.092   1.308  0.5134 -0.1602  0.3278
34068SOL    HW1 4836   1.178   9.122   1.267  0.5486 -1.8616 -1.1026
34068SOL    HW2 4837   1.293   9.170   1.353 -1.6677  0.7016  0.6094
34069SOL     OW 4838   0.722   6.718   4.204  0.1461  0.1108 -0.2487
34069SOL    HW1 4839   0.724   6.748   4.295 -3.4821  0.8594 -0.2292
34069SOL    HW2 4840   0.735   6.797   4.152 -0.0972  0.1024 -0.3262
34070SOL     OW 4841   7.957   6.267   0.310 -0.0339 -0.5297 -0.1758
34070SOL    HW1 4842   7.888   6.205   0.334  0.4306 -1.3954 -1.0080
34070SOL    HW2 4843   7.954   6.334   0.379 -0.9766 -1.1254  0.3873
34071SOL     OW 4844   3.895   9.570   1.039  0.3453  0.3125 -0.5400
34071SOL    HW1 4845   3.913   9.477   1.051 -0.3144  0.0872 -1.1908
34071SOL    HW2 4846   3.881   9.579   0.945  1.1180  1.2118 -0.5781
34072SOL     OW 4847   1.573   6.123   5.364 -0.6189 -0.2778 -0.9995
34072SOL    HW1 4848   1.637   6.188   5.394 -0.6353 -0.8049  0.2611
34072SOL    HW2 4849   1.614   6.082   5.288 -0.9284  1.6811 -2.2949
34073SOL     OW 4850   9.092   9.049   0.529 -0.1126 -0.1960  0.4321
34073SOL    HW1 4851   9.020   9.094   0.484  0.1921  1.6049  1.6355
34073SOL    HW2 4852   9.168   9.061   0.472 -0.3575 -0.5278  0.0272
34074SOL     OW 4853   4.926   6.767   5.650 -0.2806 -0.0634  0.1520
34074SOL    HW1 4854   4.915   6.854   5.609  0.8331 -1.3131 -3.1140
34074SOL    HW2 4855   4.843   6.723   5.633 -0.6809  0.1693  1.4188
34075SOL     OW 4856   4.089   9.593   9.646 -0.0321 -0.7301 -0.4286
34075SOL    HW1 4857   4.015   9.534   9.633 -0.6557  0.5613 -3.5942
34075SOL    HW2 4858   4.078   9.625   9.736 -2.1119 -2.1180 -0.1077
34076SOL     OW 4859   0.045   5.121   6.307 -0.2018  0.4181 -0.2271
34076SOL    HW1 4860   0.074   5.083   6.224 -1.0883 -2.2871  0.5933
34076SOL    HW2 4861  -0.035   5.168   6.286  0.0602  0.5249 -1.0175
34077SOL     OW 4862   2.439   1.857   6.375  0.5332 -0.2242 -1.1637
34077SOL    HW1 4863   2.417   1.946   6.404 -0.4577  0.0269 -2.5981
34077SOL    HW2 4864   2.530   1.864   6.344  0.8375  0.0099 -0.2619
34078SOL     OW 4865   1.386   9.910   3.199  0.0621 -0.2029  0.4665
34078SOL    HW1 4866   1.300   9.895   3.239 -0.6561  0.7843 -0.6428
34078SOL    HW2 4867   1.368   9.965   3.123  1.4727 -1.3215 -0.7528
34079SOL     OW 4868   8.141   4.038   4.197 -0.3453  0.5808  0.0020
34079SOL    HW1 4869   8.070   4.095   4.227 -0.7866  0.7101 -1.2435
34079SOL    HW2 4870   8.097   3.963   4.157  0.1812  1.1889 -1.7934
34080SOL     OW 4871   1.725   1.853   3.151  0.1116  0.2796  0.1330
34080SOL    HW1 4872   1.813   1.837   3.184 -0.2576 -1.4292  0.3744
34080SOL    HW2 4873   1.667   1.837   3.225 -0.4979 -0.1486 -0.4146
34081SOL     OW 4874   8.938   5.552   9.102  0.3805  0.1750  0.3666
34081SOL    HW1 4875   8.975   5.510   9.025  0.1627  0.3710  0.1554
34081SOL    HW2 4876   8.848   5.571   9.078  0.6598  1.3826  0.2100
34082SOL     OW 4877   7.404   7.577  10.324 -0.1155 -0.2628  0.1588
34082SOL    HW1 4878   7.474   7.585  10.259  0.3095 -1.2404  0.4831
34082SOL    HW2 4879   7.381   7.667  10.346 -0.0534  0.0826 -1.1137
34083SOL     OW 4880   7.115   3.291   5.803  0.4783 -0.2176  0.1218
34083SOL    HW1 4881   7.090   3.227   5.737  1.7928 -0.3827 -0.2434
34083SOL    HW2 4882   7.198   3.259   5.838  1.4278  1.4922 -0.4177
34084SOL     OW 4883   9.075   0.353   1.722 -0.0172 -0.2342 -0.0734
34084SOL    HW1 4884   9.115   0.429   1.680 -0.9706  1.3506  1.7651
34084SOL    HW2 4885   9.034   0.305   1.650  2.1551 -0.0589 -1.5262
34085SOL     OW 4886   1.773   3.454   6.793  0.6567 -0.4799 -0.0160
34085SOL    HW1 4887   1.791   3.379   6.849  1.4779  0.6157  1.2582
34085SOL    HW2 4888   1.807   3.529   6.841 -1.9006  1.0068 -0.2923
34086SOL     OW 4889   5.226   0.975   4.215 -0.4020 -0.3262 -0.4026
34086SOL    HW1 4890   5.218   0.880   4.228 -0.4881 -0.6200 -2.3028
34086SOL    HW2 4891   5.136   1.006   4.209 -0.3683 -0.1909 -0.2061
34087SOL     OW 4892   1.932   9.585   3.422  0.0591  0.0297  0.0356
34087SOL    HW1 4893   1.843   9.550   3.418 -0.2007  0.3713  2.1095
34087SOL    HW2 4894   1.951   9.611   3.331 -0.8438 -2.6777 -1.0391
34088SOL     OW 4895   0.281   0.806   2.647 -0.3873  0.6383 -0.3347
34088SOL    HW1 4896   0.335   0.819   2.725  0.7803 -0.4641 -0.9110
34088SOL    HW2 4897   0.193   0.792   2.680  0.0715  0.2834  0.7830
34089SOL     OW 4898   2.749   1.819   9.087  0.2774  0.1857 -0.0123
34089SOL    HW1 4899   2.700   1.871   9.024  0.0825  1.0044  0.7931
34089SOL    HW2 4900   2.685   1.797   9.155  0.5778 -0.3632  0.1037
34090SOL     OW 4901   9.034   0.089   2.129 -0.5436  0.0158 -0.1365
34090SOL    HW1 4902   9.033   0.018   2.065 -1.3442  0.6055 -0.8171
34090SOL    HW2 4903   9.084   0.159   2.087  0.4542 -0.2201  0.6300
34091SOL     OW 4904   2.845   5.185   3.500 -0.0760  0.9279 -0.1565
34091SOL    HW1 4905   2.920   5.139   3.539 -1.2376  0.2569  1.4089
34091SOL    HW2 4906   2.813   5.242   3.570 -0.8754  1.3911 -0.8781
34092SOL     OW 4907   7.432   3.169   4.323  0.0456  0.5649  0.4752
34092SOL    HW1 4908   7.345   3.201   4.344  0.0206  0.5883  0.3342
34092SOL    HW2 4909   7.445   3.190   4.230 -0.5349 -1.0724 -0.0131
34093SOL     OW 4910   4.955   6.088   2.269  0.4829  0.2140  0.2786
34093SOL    HW1 4911   5.014   6.103   2.343 -0.6826 -0.5233  1.4287
34093SOL    HW2 4912   4.873   6.058   2.311 -1.1166  2.3431 -1.1329
34094SOL     OW 4913   3.888   4.970   2.819  0.0197  0.2347 -0.1128
34094SOL    HW1 4914   3.810   4.914   2.809 -0.1523  0.5446 -0.5084
34094SOL    HW2 4915   3.855   5.052   2.855 -0.2843  1.4107 -2.7984
34095SOL     OW 4916   3.045   6.704   4.435 -0.0591 -0.0061  0.1978
34095SOL    HW1 4917   3.041   6.699   4.531 -4.0373  0.5257  0.2407
34095SOL    HW2 4918   3.058   6.614   4.407  0.6619 -0.2402  1.2176
34096SOL     OW 4919  10.038   3.725   0.587 -0.4876  0.2919 -0.4658
34096SOL    HW1 4920  10.100   3.716   0.515  2.5792  2.9751  1.5141
34096SOL    HW2 4921   9.971   3.786   0.554 -0.7383 -0.6970 -1.8544
34097SOL     OW 4922   2.999   0.695   0.525 -0.3179 -0.2999  0.0344
34097SOL    HW1 4923   3.009   0.635   0.600  1.2054  1.1794  1.0948
34097SOL    HW2 4924   3.021   0.781   0.561 -1.8365  0.8208 -1.5990
34098SOL     OW 4925   4.903   3.845   8.164 -0.4146  0.3146 -0.3112
34098SOL    HW1 4926   4.814   3.878   8.168 -0.2293  1.3294 -2.6906
34098SOL    HW2 4927   4.952   3.897   8.227 -1.9064 -2.2050  3.2899
34099SOL     OW 4928   6.516   2.822   3.960  0.2446 -0.7107 -0.2628
34099SOL    HW1 4929   6.450   2.767   4.003  1.6214 -1.3195  1.1508
34099SOL    HW2 4930   6.465   2.880   3.903 -1.4709 -1.4556  0.4447
34100SOL     OW 4931   1.822   4.420   7.484  0.3655 -0.4006 -0.8232
34100SOL    HW1 4932   1.750   4.362   7.510  0.9367 -0.6273  0.3089
34100SOL    HW2 4933   1.850   4.461   7.566  2.6764 -1.6131 -0.9491
34101SOL     OW 4934   4.046   6.187   3.280 -0.0689  0.4185 -0.1673
34101SOL    HW1 4935   4.082   6.265   3.239 -0.3015  1.2564  1.1590
34101SOL    HW2 4936   4.062   6.199   3.374  0.6876 -1.5452 -0.0003
34102SOL     OW 4937   3.867   8.124   0.323 -0.0258 -0.1287 -0.3662
34102SOL    HW1 4938   3.866   8.065   0.398  2.7364  1.7261  1.3151
34102SOL    HW2 4939   3.909   8.074   0.253 -0.4077 -1.0839  0.0771
34103SOL     OW 4940   4.316   3.018   8.316  0.0775  0.1132 -0.1278
34103SOL    HW1 4941   4.375   2.966   8.261  0.7562  0.5912  0.1235
34103SOL    HW2 4942   4.366   3.097   8.335  0.7670 -0.8884  2.8851
34104SOL     OW 4943   5.750   2.686   6.530  0.3471  0.4520 -0.0820
34104SOL    HW1 4944   5.744   2.776   6.560 -0.4138  0.2693  0.3421
34104SOL    HW2 4945   5.784   2.693   6.441  2.7338  0.9926  0.8006
34105SOL     OW 4946   9.854   5.636   5.671  0.5585  0.1077  0.0956
34105SOL    HW1 4947   9.797   5.576   5.623  0.0010 -0.9263  1.9825
34105SOL    HW2 4948   9.927   5.581   5.701 -0.4277  0.0667  2.6610
34106SOL     OW 4949   4.318   7.970   8.142 -1.3681  0.2137  0.0137
34106SOL    HW1 4950   4.272   8.036   8.091 -2.4984 -1.8377 -1.8251
34106SOL    HW2 4951   4.248   7.917   8.181 -0.5134 -0.2257  0.9941
34107SOL     OW 4952   1.243   3.594   1.317 -0.2114 -0.5456  0.1180
34107SOL    HW1 4953   1.249   3.576   1.410  0.4646 -1.1918 -0.0404
34107SOL    HW2 4954   1.249   3.507   1.275 -1.1914 -0.3377 -0.4989
34108SOL     OW 4955   3.666   4.229   8.881 -0.4742 -0.1990 -0.9758
34108SOL    HW1 4956   3.724   4.169   8.835 -0.2512 -0.9469  0.2441
34108SOL    HW2 4957   3.614   4.173   8.939  0.2527  0.8101  0.7334
34109SOL     OW 4958   3.444   9.419   2.913  1.0878 -0.4552  0.0660
34109SOL    HW1 4959   3.486   9.478   2.976  0.6788 -0.0413 -0.0385
34109SOL    HW2 4960   3.478   9.447   2.828  0.3779  0.0916 -0.0505
34110SOL     OW 4961   6.136   5.888  10.102  0.1480 -0.2805 -0.2851
34110SOL    HW1 4962   6.045   5.857  10.104  0.1133 -0.5603 -2.9200
34110SOL    HW2 4963   6.183   5.828  10.160 -0.5135 -3.4179 -2.6890
34111SOL     OW 4964   0.002   3.200   9.666  0.9275  0.2951  0.1510
34111SOL    HW1 4965  -0.037   3.242   9.589 -1.6019 -1.4225  0.3602
34111SOL    HW2 4966   0.029   3.114   9.635  2.7252  0.6744  0.5438
34112SOL     OW 4967   3.498   6.097   9.186  0.2883 -0.2810 -0.1493
34112SOL    HW1 4968   3.580   6.145   9.197  0.6035 -0.0814 -2.7371
34112SOL    HW2 4969   3.524   6.005   9.191 -0.1008 -0.3310  3.3900
34113SOL     OW 4970   2.926   5.774   5.406 -0.0055  0.1739 -0.2152
34113SOL    HW1 4971   2.936   5.810   5.317  1.8686  2.0180  0.6428
34113SOL    HW2 4972   3.009   5.728   5.421  0.7431  1.9021  1.3534
34114SOL     OW 4973   9.167   0.907   7.957 -0.1215 -0.5365 -0.2932
34114SOL    HW1 4974   9.088   0.932   7.909 -1.3609 -1.3697  1.1858
34114SOL    HW2 4975   9.201   0.990   7.992 -0.8357 -0.2442 -0.2606
34115SOL     OW 4976   1.897   2.128   2.106  0.3735  0.2184 -0.7900
34115SOL    HW1 4977   1.976   2.107   2.156 -1.1206  0.1807  1.7643
34115SOL    HW2 4978   1.858   2.043   2.085 -0.6511  0.1957  0.9576
34116SOL     OW 4979   2.190   0.608   7.551  0.0208  0.2207 -0.1088
34116SOL    HW1 4980   2.123   0.615   7.619  0.5467 -3.3095  0.9908
34116SOL    HW2 4981   2.267   0.650   7.590  0.2442 -1.5226  1.4699
34117SOL     OW 4982   4.083   1.039   3.681 -0.1274  0.4246  0.6653
34117SOL    HW1 4983   4.045   1.088   3.608 -0.2962  1.4747  1.4279
34117SOL    HW2 4984   4.080   0.948   3.653 -0.0759  0.8178 -0.6801
34118SOL     OW 4985   6.858   2.085   3.778 -0.2485  0.0498  0.0708
34118SOL    HW1 4986   6.943   2.082   3.822  2.5298  0.0298 -4.5496
34118SOL    HW2 4987   6.836   2.178   3.777  0.5770  0.2586  0.0327
34119SOL     OW 4988   4.726   5.024   4.809 -0.3124 -0.1962 -0.5535
34119SOL    HW1 4989   4.691   5.112   4.803  0.7102  0.2170 -0.6547
34119SOL    HW2 4990   4.650   4.968   4.825 -1.3798  0.3764 -3.0731
34120SOL     OW 4991   9.756   5.902   9.943 -0.8335 -0.2462 -0.1001
34120SOL    HW1 4992   9.822   5.907   9.873  0.5122 -0.2150  1.1215
34120SOL    HW2 4993   9.677   5.940   9.904  0.3391  1.3207 -1.0663
34121SOL     OW 4994   5.809   7.202   2.050 -0.2451 -0.1636  1.0284
34121SOL    HW1 4995   5.768   7.253   2.120 -0.7076  2.0854 -0.7638
34121SOL    HW2 4996   5.895   7.243   2.037  0.3312 -1.3179  1.0375
34122SOL     OW 4997   3.809   3.712   2.647  0.5271  0.5033  0.1284
34122SOL    HW1 4998   3.802   3.620   2.620 -0.9069  0.3830  0.7995
34122SOL    HW2 4999   3.786   3.762   2.568 -1.5635  0.1925  0.4725
34123SOL     OW 5000   8.462   1.515   3.735  0.4629  0.1667 -0.1402
34123SOL    HW1 5001   8.424   1.495   3.821  0.7750 -0.4329 -0.1324
34123SOL    HW2 5002   8.386   1.525   3.677  0.2721 -1.1353 -0.1491
34124SOL     OW 5003   6.952   6.521   4.401  0.0624  0.0568 -0.0307
34124SOL    HW1 5004   6.860   6.518   4.373  0.1542 -1.3271 -0.2614
34124SOL    HW2 5005   6.947   6.526   4.497 -0.2519  0.1676 -0.0500
34125SOL     OW 5006   4.020   7.639   1.418 -0.1883  0.1137 -0.1792
34125SOL    HW1 5007   3.987   7.728   1.416  0.9651  0.5620  0.0418
34125SOL    HW2 5008   4.028   7.614   1.326 -0.8590  0.0849 -0.2389
34126SOL     OW 5009   4.259   8.727   7.215  0.2375 -0.0145 -0.0289
34126SOL    HW1 5010   4.167   8.700   7.215 -0.0506  0.8185 -1.5969
34126SOL    HW2 5011   4.280   8.741   7.307 -1.3648  0.2719  0.3216
34127SOL     OW 5012   3.313   2.977   1.741  0.3489 -0.2896  0.0171
34127SOL    HW1 5013   3.399   2.996   1.706  0.1341 -0.3953 -0.5843
34127SOL    HW2 5014   3.280   2.905   1.686  0.5418 -1.3772  1.2756
34128SOL     OW 5015   3.637   8.515   7.789 -0.2793 -0.7561  0.5400
34128SOL    HW1 5016   3.592   8.512   7.704  0.0725 -0.2839  0.3281
34128SOL    HW2 5017   3.591   8.451   7.843 -1.3417 -0.1381  0.3933
34129SOL     OW 5018   0.538   2.165   2.823 -0.0483  0.3082  0.5311
34129SOL    HW1 5019   0.559   2.205   2.907 -1.0313  1.1417  0.4037
34129SOL    HW2 5020   0.503   2.079   2.845 -0.4473  0.5816  0.9905
34130SOL     OW 5021   7.283   1.988   1.619 -0.3931  0.5016  0.1653
34130SOL    HW1 5022   7.272   1.991   1.714  0.2092  2.0262  0.2139
34130SOL    HW2 5023   7.300   1.895   1.600 -1.8413 -0.0536  1.3617
34131SOL     OW 5024   1.617   2.045   3.003  0.2722  0.2946  0.2807
34131SOL    HW1 5025   1.666   1.967   3.029 -2.0948 -0.7478  1.9384
34131SOL    HW2 5026   1.581   2.022   2.917 -0.5035 -0.5497  0.8046
34132SOL     OW 5027   2.340   2.884   4.107 -0.6944 -0.4334  0.8015
34132SOL    HW1 5028   2.314   2.874   4.016  0.6769 -0.8382  0.4274
34132SOL    HW2 5029   2.261   2.914   4.152 -1.3896 -0.2469 -0.5086
34133SOL     OW 5030   8.972   5.515   0.843 -0.2227 -0.0063 -0.4172
34133SOL    HW1 5031   8.922   5.514   0.925  0.3149 -1.6336 -0.0646
34133SOL    HW2 5032   9.062   5.530   0.870  0.0235 -0.9983 -0.6395
34134SOL     OW 5033   2.317   6.240   0.039 -0.9931 -1.0385 -0.3156
34134SOL    HW1 5034   2.280   6.222   0.126  0.7242 -0.3643  0.6083
34134SOL    HW2 5035   2.241   6.244  -0.019 -2.3078 -0.3187  1.3661
34135SOL     OW 5036   4.171   2.920   5.688 -0.0693 -0.2261 -0.4200
34135SOL    HW1 5037   4.211   2.961   5.611 -0.8809 -0.6655 -1.0921
34135SOL    HW2 5038   4.140   2.993   5.741  0.7873  0.0928 -0.3320
34136SOL     OW 5039   7.877   0.905   8.042  0.0395 -0.6102  0.1996
34136SOL    HW1 5040   7.878   0.851   7.963  1.3799 -0.5655  0.1662
34136SOL    HW2 5041   7.784   0.925   8.056 -0.4194 -2.3945 -0.1222
34137SOL     OW 5042   4.774   3.108   4.048 -0.5211 -0.3377 -0.1048
34137SOL    HW1 5043   4.697   3.060   4.079  0.2331  0.1203  2.7752
34137SOL    HW2 5044   4.841   3.090   4.114  1.3194  0.6842 -1.6131
34138SOL     OW 5045   1.165   1.545   6.353 -0.0090  0.2663 -0.3548
34138SOL    HW1 5046   1.081   1.590   6.357 -0.1548  0.0433 -0.8150
34138SOL    HW2 5047   1.162   1.484   6.427 -1.0705 -1.1138 -1.4730
34139SOL     OW 5048   3.165   3.403   0.376  0.2660  0.0508 -0.5139
34139SOL    HW1 5049   3.225   3.331   0.359 -0.3911 -0.5513 -0.3116
34139SOL    HW2 5050   3.155   3.447   0.292  1.2618  0.3814 -0.4779
34140SOL     OW 5051   8.135   3.100   4.285 -0.5056 -0.1905 -0.0842
34140SOL    HW1 5052   8.127   3.032   4.353  0.4009 -1.9510 -1.6343
34140SOL    HW2 5053   8.221   3.139   4.301 -1.2924  1.0916  1.2009
34141SOL     OW 5054   7.905   9.078   0.800  0.5035  0.7078 -0.0074
34141SOL    HW1 5055   7.958   9.042   0.870 -0.3409  0.1810  0.3731
34141SOL    HW2 5056   7.947   9.047   0.720  0.9758  0.6105  0.2707
34142SOL     OW 5057   4.954   5.085   6.502 -0.0364  0.5666 -0.1826
34142SOL    HW1 5058   4.989   5.072   6.590  0.0032 -0.9279 -0.4023
34142SOL    HW2 5059   5.019   5.138   6.457  1.7797 -1.7295 -0.4300
34143SOL     OW 5060   7.065   2.252   2.642  0.3809  0.0769  0.1778
34143SOL    HW1 5061   6.989   2.210   2.682  0.2613 -0.6968 -0.8213
34143SOL    HW2 5062   7.072   2.212   2.555 -0.4074  2.8609 -1.2883
34144SOL     OW 5063   3.284   5.052   4.553  0.2008 -0.0253  0.3095
34144SOL    HW1 5064   3.314   5.116   4.617  0.0305 -0.3763  0.7462
34144SOL    HW2 5065   3.195   5.031   4.580  0.7601 -1.5703  1.0911
34145SOL     OW 5066   5.397   7.493   2.019 -0.5476 -0.5288 -0.1412
34145SOL    HW1 5067   5.437   7.464   2.101 -0.2833  2.4013  0.8863
34145SOL    HW2 5068   5.341   7.420   1.993 -0.6083 -1.5990  2.5978
34146SOL     OW 5069   6.475   0.128   3.464 -0.3470  0.1784 -0.4179
34146SOL    HW1 5070   6.416   0.181   3.518  1.8948  2.0897  0.3100
34146SOL    HW2 5071   6.498   0.186   3.391  1.7640  0.0761  0.1182
34147SOL     OW 5072   7.744   5.218   1.550 -0.0868 -0.0927  0.3106
34147SOL    HW1 5073   7.720   5.285   1.486 -0.1542 -1.2943 -0.9635
34147SOL    HW2 5074   7.754   5.138   1.499 -1.1094 -1.3290  1.9400
34148SOL     OW 5075   8.563   7.296   7.795 -0.0456 -0.4067  0.4011
34148SOL    HW1 5076   8.644   7.322   7.752 -0.6540 -1.9760 -1.8578
34148SOL    HW2 5077   8.591   7.263   7.881  1.5832  0.0105  0.0548
34149SOL     OW 5078   2.342   8.472   3.773 -0.2769  0.2322 -0.2468
34149SOL    HW1 5079   2.353   8.379   3.790 -0.6077  0.4799  1.4875
34149SOL    HW2 5080   2.355   8.481   3.678  0.6282 -1.4280 -0.3142
34150SOL     OW 5081   6.924  10.032   4.901  0.3678  0.0090 -0.1043
34150SOL    HW1 5082   6.911  10.037   4.807 -0.4508  0.3055  0.0204
34150SOL    HW2 5083   7.009  10.074   4.916  1.3845 -1.6774 -0.8899
34151SOL     OW 5084   2.302   3.642   7.970 -0.0877 -0.0043  0.3302
34151SOL    HW1 5085   2.235   3.709   7.985 -0.2163  0.3573 -1.6019
34151SOL    HW2 5086   2.381   3.693   7.951  1.0393 -0.4032  3.3127
34152SOL     OW 5087   2.758   2.677   2.479 -0.3008 -0.1361 -1.3819
34152SOL    HW1 5088   2.676   2.683   2.529 -0.3969  0.4910 -1.6126
34152SOL    HW2 5089   2.792   2.590   2.500  0.4468  0.6561  0.9930
34153SOL     OW 5090   1.827   5.767   0.458  0.5081 -0.0177 -0.0850
34153SOL    HW1 5091   1.775   5.699   0.500 -0.6967  0.7363 -0.3154
34153SOL    HW2 5092   1.914   5.759   0.498  0.0618 -0.9017  0.7454
34154SOL     OW 5093   6.616   7.155   0.309  0.1988 -0.3592 -0.0172
34154SOL    HW1 5094   6.641   7.095   0.238 -0.2515  1.2785 -1.6294
34154SOL    HW2 5095   6.697   7.170   0.357  0.6505 -0.9970 -0.5558
34155SOL     OW 5096   4.192   2.054   0.377  0.5670 -0.4051  0.3547
34155SOL    HW1 5097   4.244   2.134   0.369 -0.1758 -0.0836 -1.9399
34155SOL    HW2 5098   4.252   1.983   0.353  0.6291 -0.2820  0.1428
34156SOL     OW 5099   4.328   7.721   0.702  0.3013 -0.1441 -0.6961
34156SOL    HW1 5100   4.381   7.642   0.692 -0.1680 -0.2659 -2.4395
34156SOL    HW2 5101   4.259   7.713   0.636 -1.5270  0.3411  1.0594
34157SOL     OW 5102   8.582   2.032   9.333  0.5152  0.8430  0.5034
34157SOL    HW1 5103   8.515   1.968   9.307 -1.9027  2.8189  1.4616
34157SOL    HW2 5104   8.648   1.980   9.378 -1.3252 -1.0123  1.2530
34158SOL     OW 5105  10.330   5.060   1.770  0.0174 -0.8339  0.5468
34158SOL    HW1 5106  10.287   5.050   1.855 -0.8825 -1.6854  0.0039
34158SOL    HW2 5107  10.261   5.049   1.706  0.7034 -0.2622 -0.3139
34159SOL     OW 5108   4.229   6.796   5.082 -0.1236 -0.3662 -0.2283
34159SOL    HW1 5109   4.218   6.876   5.134  0.3814 -1.1667  1.1701
34159SOL    HW2 5110   4.311   6.758   5.115 -0.6475 -1.7459 -0.4698
34160SOL     OW 5111   7.654   5.627   1.790  0.3029  0.0555  0.1088
34160SOL    HW1 5112   7.637   5.648   1.698 -0.8312  1.3918  0.5997
34160SOL    HW2 5113   7.656   5.712   1.834  0.0528 -0.6160  1.4522
34161SOL     OW 5114   2.037   9.794   7.650  0.5384  0.0333 -0.2379
34161SOL    HW1 5115   1.956   9.743   7.647  0.4641  0.1236  0.2245
34161SOL    HW2 5116   2.095   9.750   7.588  1.4114 -2.1948  1.9916
34162SOL     OW 5117   4.940   5.606   5.196 -0.3768 -0.1326  0.3034
34162SOL    HW1 5118   4.972   5.680   5.248 -1.2742  0.1195  0.5253
34162SOL    HW2 5119   4.953   5.530   5.252  1.0128 -0.2272 -0.1213
34163SOL     OW 5120   3.130   0.735   2.778  1.2785  0.1230 -1.1473
34163SOL    HW1 5121   3.039   0.705   2.778  0.1638  3.1753 -1.8424
34163SOL    HW2 5122   3.156   0.733   2.686  0.9506  1.7029 -1.3098
34164SOL     OW 5123   7.707   5.573   8.819  0.7806 -0.3721  0.1342
34164SOL    HW1 5124   7.657   5.526   8.752 -0.0255  2.1337 -1.1500
34164SOL    HW2 5125   7.640   5.610   8.877  1.3404 -0.1493  0.6417
34165SOL     OW 5126   6.347   0.338   0.230 -0.7756  0.7215  0.5292
34165SOL    HW1 5127   6.389   0.289   0.158  0.2659 -0.3896  1.8344
34165SOL    HW2 5128   6.383   0.426   0.223  0.2768  0.2964  0.4143
34166SOL     OW 5129   9.151   8.001   2.626 -0.6950  0.1603 -0.3639
34166SOL    HW1 5130   9.227   7.992   2.684  0.0609  2.9863 -0.7624
34166SOL    HW2 5131   9.142   7.915   2.585  0.6092 -1.0294  1.6768
34167SOL     OW 5132   0.666   2.372   4.365 -0.1410 -0.0041  0.4274
34167SOL    HW1 5133   0.746   2.330   4.395  0.5413 -0.1701 -1.4986
34167SOL    HW2 5134   0.695   2.457   4.331 -0.7915  0.0084 -0.1191
34168SOL     OW 5135   2.458   6.611   0.571  0.0302 -0.0148 -0.3792
34168SOL    HW1 5136   2.411   6.624   0.489 -0.0784 -0.1094 -0.3327
34168SOL    HW2 5137   2.549   6.632   0.551  0.4018 -2.0943 -1.0818
34169SOL     OW 5138   9.691   8.232   2.851 -0.1356  0.3626 -0.1538
34169SOL    HW1 5139   9.689   8.313   2.800  2.7979 -0.2879 -1.5354
34169SOL    HW2 5140   9.642   8.169   2.797 -1.4527  0.9010  0.3815
34170SOL     OW 5141   5.262   8.665   9.195  0.0923  0.1090  0.2642
34170SOL    HW1 5142   5.330   8.599   9.207  1.2452  1.1176 -0.3873
34170SOL    HW2 5143   5.311   8.747   9.184 -1.0282  0.4758 -3.2068
34171SOL     OW 5144   0.751   7.501   9.721  0.1402 -0.2160 -0.5427
34171SOL    HW1 5145   0.786   7.418   9.686 -1.0331 -0.7897 -0.3994
34171SOL    HW2 5146   0.744   7.558   9.644  0.1019 -0.5620 -0.7997
34172SOL     OW 5147   0.230   8.296   2.859  0.1785 -0.8144 -0.2358
34172SOL    HW1 5148   0.240   8.211   2.903  0.7915 -0.4286  0.4004
34172SOL    HW2 5149   0.297   8.295   2.791 -0.5414 -1.2712 -0.9605
34173SOL     OW 5150   9.729   6.912   8.577  0.5882 -0.0312  0.0106
34173SOL    HW1 5151   9.767   6.838   8.530 -0.8303 -0.5976 -0.3025
34173SOL    HW2 5152   9.796   6.980   8.573  1.5650 -0.9902 -0.4761
34174SOL     OW 5153   4.917   0.398   4.273  0.1190 -0.0180 -0.2695
34174SOL    HW1 5154   4.892   0.416   4.363  0.2314 -1.1725  0.0043
34174SOL    HW2 5155   4.840   0.356   4.234  0.2949 -0.1128 -0.5242
34175SOL     OW 5156   0.133   2.289   1.855  0.0118  0.1435  0.1443
34175SOL    HW1 5157   0.189   2.239   1.795  0.2800  0.3705  0.2034
34175SOL    HW2 5158   0.195   2.342   1.906 -0.0855 -1.0314  1.5487
34176SOL     OW 5159   0.800   5.808   8.025  0.1110  0.0996 -0.4702
34176SOL    HW1 5160   0.846   5.724   8.025  1.0935  0.5578  1.7660
34176SOL    HW2 5161   0.803   5.838   7.934  1.3428 -1.4376 -0.9741
34177SOL     OW 5162   9.481   9.521   2.282  0.7807  0.1702 -0.0358
34177SOL    HW1 5163   9.537   9.587   2.321  0.2781  1.0489 -0.7600
34177SOL    HW2 5164   9.392   9.546   2.308  0.5329  0.1749 -0.8414
34178SOL     OW 5165   8.942   1.519   4.482  0.1368  0.4142  0.0562
34178SOL    HW1 5166   8.911   1.605   4.455 -0.3547 -0.1088 -1.1189
34178SOL    HW2 5167   8.996   1.489   4.409 -1.9002 -1.4142 -0.8176
34179SOL     OW 5168   6.938   0.544   0.794  0.0993 -0.3841  0.1686
34179SOL    HW1 5169   6.998   0.482   0.836 -0.1291 -1.5180 -1.1045
34179SOL    HW2 5170   6.938   0.519   0.702  0.1895  1.7120 -0.4611
34180SOL     OW 5171   5.804   9.537   2.722 -0.2330  0.5670 -0.4313
34180SOL    HW1 5172   5.725   9.530   2.668  0.1568 -1.2153 -0.8371
34180SOL    HW2 5173   5.863   9.469   2.688  0.7268  0.5891  1.0779
34181SOL     OW 5174   5.874   9.998   2.679  0.8019 -0.0343 -0.3648
34181SOL    HW1 5175   5.801  10.060   2.688  0.6448 -0.3778  0.9848
34181SOL    HW2 5176   5.893   9.996   2.586 -0.1463  0.9548 -0.5944
34182SOL     OW 5177   1.274   6.993   8.184  0.0422 -0.3905 -0.1706
34182SOL    HW1 5178   1.317   6.918   8.224 -1.6792 -1.7739 -0.8092
34182SOL    HW2 5179   1.183   6.967   8.174 -1.0812  2.4593  1.2956
34183SOL     OW 5180   2.052   4.071   5.517  0.3134 -0.0927  0.1887
34183SOL    HW1 5181   2.001   4.091   5.595 -0.5648  1.9058 -0.8358
34183SOL    HW2 5182   2.122   4.013   5.548 -1.3438 -1.2083  1.9910
34184SOL     OW 5183   9.388   7.432   0.476  0.1775 -0.0955 -0.7646
34184SOL    HW1 5184   9.339   7.513   0.463 -0.2119 -0.5366 -2.2149
34184SOL    HW2 5185   9.479   7.455   0.455  0.5048  0.5354  1.1863
34185SOL     OW 5186   8.045   1.705  10.118  0.7261 -0.8438 -0.1799
34185SOL    HW1 5187   8.064   1.622  10.162  3.4150 -0.4311 -0.4152
34185SOL    HW2 5188   8.071   1.773  10.181 -1.3603 -0.1004 -0.0198
34186SOL     OW 5189   4.448   1.470   2.579  0.0052 -0.5833  0.5840
34186SOL    HW1 5190   4.385   1.540   2.560 -0.4542 -0.6506  1.7492
34186SOL    HW2 5191   4.531   1.516   2.591 -0.2326 -0.2646  1.0441
34187SOL     OW 5192   5.523  10.194   3.460 -0.0355 -0.0770 -0.1880
34187SOL    HW1 5193   5.467  10.237   3.524  0.2129  1.2348 -0.8273
34187SOL    HW2 5194   5.605  10.177   3.507 -0.7651 -1.5813  0.6100
34188SOL     OW 5195   9.893   1.621   2.631  0.0118 -0.1564 -0.4427
34188SOL    HW1 5196   9.967   1.562   2.641  0.2050  0.4955  3.1097
34188SOL    HW2 5197   9.932   1.707   2.615 -0.1669 -0.3123 -1.9059
34189SOL     OW 5198   2.223   3.799   1.423 -0.3028  0.2147 -0.3289
34189SOL    HW1 5199   2.279   3.876   1.412  1.1176 -0.5983  0.8647
34189SOL    HW2 5200   2.192   3.805   1.514  2.1290 -2.0154  0.7672
34190SOL     OW 5201   2.997   7.755   1.542  0.3930  0.5774  0.0272
34190SOL    HW1 5202   3.024   7.670   1.578  1.7632  1.5664  1.4732
34190SOL    HW2 5203   2.916   7.736   1.494  0.3379 -1.4277  0.8132
34191SOL     OW 5204   7.048   1.510   9.713  0.5248 -0.6990  0.1726
34191SOL    HW1 5205   7.119   1.566   9.680 -1.1763  1.4272 -0.1322
34191SOL    HW2 5206   6.968   1.557   9.689 -0.9542 -2.1121  2.0321
34192SOL     OW 5207   6.533   6.096   2.152 -0.1542 -0.2615 -0.2811
34192SOL    HW1 5208   6.462   6.142   2.198 -0.3600 -0.5781 -0.2783
34192SOL    HW2 5209   6.505   6.004   2.152 -1.6525  0.0667 -3.6835
34193SOL     OW 5210   7.178   4.301   4.053  0.3178 -0.1498  0.5148
34193SOL    HW1 5211   7.220   4.379   4.090  1.3253 -0.4761  0.0958
34193SOL    HW2 5212   7.090   4.301   4.091  0.4712  0.9141  0.9076
34194SOL     OW 5213   1.732   1.156   8.420 -0.1792  0.2943 -0.2951
34194SOL    HW1 5214   1.794   1.163   8.348  1.7503 -1.8489  0.9965
34194SOL    HW2 5215   1.657   1.108   8.383  0.8591 -0.9397 -0.8858
34195SOL     OW 5216   0.632   7.494   3.366  0.2075  0.1748 -0.2186
34195SOL    HW1 5217   0.661   7.585   3.363  2.6833 -0.4809  0.9126
34195SOL    HW2 5218   0.542   7.499   3.399  0.1339  2.2138 -0.5740
34196SOL     OW 5219   2.198  10.050  10.159 -0.3454  0.2263  0.4574
34196SOL    HW1 5220   2.189  10.031  10.253 -2.0230 -1.4273  0.0164
34196SOL    HW2 5221   2.248  10.131  10.156 -1.0408  0.8228  2.8172
34197SOL     OW 5222  10.023   2.045   1.669  0.9513 -0.4161  0.3046
34197SOL    HW1 5223   9.959   2.019   1.603  1.3399  0.1276 -0.2995
34197SOL    HW2 5224  10.032   2.140   1.657  0.8373 -0.2612  1.3106
34198SOL     OW 5225   5.180   7.897   8.592 -0.2109 -0.5681 -0.0337
34198SOL    HW1 5226   5.130   7.909   8.672  0.4736 -0.8498  0.4564
34198SOL    HW2 5227   5.125   7.841   8.537 -1.2364  0.6591 -0.3003
34199SOL     OW 5228   3.908   4.997   0.168 -0.4155  0.3409  0.4945
34199SOL    HW1 5229   3.962   5.065   0.128 -2.0729  2.8882  2.2918
34199SOL    HW2 5230   3.820   5.014   0.135 -1.1187  0.0339  2.1079
34200SOL     OW 5231   6.467   4.837   0.467  0.2642 -0.0308  0.1313
34200SOL    HW1 5232   6.411   4.859   0.392  1.8999 -1.5385 -1.6656
34200SOL    HW2 5233   6.448   4.744   0.483  0.5859  0.0517  1.0063
34201SOL     OW 5234   4.660   8.402   1.456 -0.0407 -0.0190  0.1573
34201SOL    HW1 5235   4.608   8.359   1.389 -0.4612 -1.3725  1.3081
34201SOL    HW2 5236   4.595   8.451   1.508  0.3956  1.8889 -0.9771
34202SOL     OW 5237   2.829   2.532   5.448 -0.1565 -0.0437 -0.0008
34202SOL    HW1 5238   2.767   2.586   5.401 -0.9159 -0.4129  0.5527
34202SOL    HW2 5239   2.868   2.475   5.381  1.5731  1.9831 -0.8075
34203SOL     OW 5240   9.520   0.287   2.702 -0.6938  0.9072  0.7289
34203SOL    HW1 5241   9.570   0.233   2.763  0.6643  2.6480  1.2518
34203SOL    HW2 5242   9.444   0.316   2.753 -1.9245 -1.1441  0.1635
34204SOL     OW 5243   0.678   1.692   6.210 -0.6134 -0.2805 -0.5603
34204SOL    HW1 5244   0.667   1.724   6.300  0.5534 -1.5729  0.0697
34204SOL    HW2 5245   0.713   1.767   6.162 -1.1846  0.4022  0.0686
34205SOL     OW 5246  10.113   6.924   4.921 -0.2320  0.0751  0.2856
34205SOL    HW1 5247  10.200   6.944   4.886  0.4131 -2.1691  0.3857
34205SOL    HW2 5248  10.130   6.897   5.011 -1.3072  1.4896  0.9332
34206SOL     OW 5249   4.217   4.428   8.573 -0.0721  0.1474 -0.1704
34206SOL    HW1 5250   4.143   4.462   8.522 -0.2768  0.4555  0.3240
34206SOL    HW2 5251   4.197   4.336   8.586  0.5633 -0.2380 -1.6624
34207SOL     OW 5252   0.887   5.798   1.985 -0.6969  0.2192  0.1493
34207SOL    HW1 5253   0.897   5.862   2.055 -0.5008  0.9020 -0.4827
34207SOL    HW2 5254   0.800   5.816   1.948  0.0904  1.3879 -1.2332
34208SOL     OW 5255   1.706   6.100   4.558  0.4507 -0.3356 -0.1411
34208SOL    HW1 5256   1.757   6.025   4.588  2.1936  0.4354 -1.0663
34208SOL    HW2 5257   1.689   6.150   4.637  1.3544 -0.4837  0.1574
34209SOL     OW 5258   4.016   2.472   2.981 -0.2834  0.1477 -0.6597
34209SOL    HW1 5259   4.024   2.500   2.889  0.0598 -1.3224 -1.1124
34209SOL    HW2 5260   4.103   2.488   3.018  0.2781 -1.3408 -1.2474
34210SOL     OW 5261   2.969   7.815   6.459 -0.8373  0.0055 -0.0921
34210SOL    HW1 5262   3.007   7.814   6.371  0.2285  1.4190  0.3027
34210SOL    HW2 5263   3.018   7.748   6.507 -0.5654  0.0896 -0.2496
34211SOL     OW 5264   8.345   9.137   1.879  0.0413  0.3931 -0.0124
34211SOL    HW1 5265   8.399   9.125   1.801  1.9077  0.6825  1.1591
34211SOL    HW2 5266   8.409   9.145   1.950 -1.5482  1.5254  1.3506
34212SOL     OW 5267   7.919  10.146   0.035 -0.3672 -0.1813  0.0043
34212SOL    HW1 5268   7.841  10.091   0.022 -1.0742  0.6505  0.6138
34212SOL    HW2 5269   7.993  10.086   0.025 -1.1148 -1.2178  0.5307
34213SOL     OW 5270  10.181   4.347   3.492  0.2420 -0.5230  0.0795
34213SOL    HW1 5271  10.125   4.362   3.568  1.9029 -1.1428  1.5030
34213SOL    HW2 5272  10.246   4.417   3.495 -0.2845  0.0804 -1.4308
34214SOL     OW 5273   7.500   4.295   5.463 -0.1045 -0.2407 -0.2899
34214SOL    HW1 5274   7.412   4.275   5.495 -0.3411  1.0876 -0.0450
34214SOL    HW2 5275   7.499   4.271   5.371 -0.7224 -0.2311 -0.2856
34215SOL     OW 5276   6.574   5.312   0.894  0.7512 -0.1169 -0.8973
34215SOL    HW1 5277   6.495   5.363   0.877  0.1651 -1.0065 -0.9636
34215SOL    HW2 5278   6.550   5.223   0.867  1.4159 -0.6096  0.0889
34216SOL     OW 5279   9.696   0.033   7.636  0.6989  0.2793 -0.5465
34216SOL    HW1 5280   9.691  -0.027   7.562  0.1869 -0.9497  0.4506
34216SOL    HW2 5281   9.621   0.092   7.625  0.6657  0.1473 -1.0295
34217SOL     OW 5282  10.172   4.298   5.091  0.4299 -0.5187 -0.3061
34217SOL    HW1 5283  10.132   4.380   5.061  0.3964  0.2997  1.7878
34217SOL    HW2 5284  10.265   4.309   5.073  0.3405 -0.3379 -0.6808
34218SOL     OW 5285   9.339   7.403  10.229  0.3726  0.1160  0.1620
34218SOL    HW1 5286   9.309   7.362  10.310 -1.4942 -0.7152 -0.8823
34218SOL    HW2 5287   9.260   7.407  10.174  1.3675  1.5825 -1.2316
34219SOL     OW 5288   4.199   9.406   9.232 -0.2078 -0.2730 -0.0814
34219SOL    HW1 5289   4.230   9.326   9.190  2.2228  0.1804  0.7118
34219SOL    HW2 5290   4.179   9.380   9.322 -0.4711 -0.1846 -0.1117
34220SOL     OW 5291   2.787   7.336   9.117 -0.7062  0.6872  0.6870
34220SOL    HW1 5292   2.723   7.301   9.055  0.2033  0.7580 -0.3157
34220SOL    HW2 5293   2.811   7.422   9.081 -0.0894  0.6850  1.0844
34221SOL     OW 5294   1.003   8.544   6.974 -0.4773  0.2801  0.0710
34221SOL    HW1 5295   0.969   8.616   7.028  2.4152 -0.4694  3.2706
34221SOL    HW2 5296   0.941   8.472   6.989 -0.9346  0.7694  0.5877
34222SOL     OW 5297   1.137   2.018   5.484 -0.1896  0.0019 -0.3311
34222SOL    HW1 5298   1.207   2.076   5.513  1.9339 -2.2719 -0.5163
34222SOL    HW2 5299   1.103   2.058   5.404  0.2965  1.5899  0.2251
34223SOL     OW 5300   1.469   9.306   3.250  0.7524  0.3781 -0.0482
34223SOL    HW1 5301   1.432   9.217   3.247 -0.1540  0.7372  0.0411
34223SOL    HW2 5302   1.449   9.336   3.339 -1.9123  1.8638 -1.0242
34224SOL     OW 5303   0.680   9.383   1.984  0.4073  0.2485  0.1153
34224SOL    HW1 5304   0.653   9.293   1.999 -3.1984  0.9859 -0.8185
34224SOL    HW2 5305   0.757   9.377   1.928  0.8721 -2.2198  0.9294
34225SOL     OW 5306   8.796   3.052   9.141 -0.3267 -0.5486 -0.1765
34225SOL    HW1 5307   8.781   2.984   9.076 -0.6920 -0.0300 -0.6478
34225SOL    HW2 5308   8.724   3.042   9.203  1.2335 -2.4741  1.4304
34226SOL     OW 5309   3.984   5.321   3.877  0.1433 -0.2013 -0.1155
34226SOL    HW1 5310   3.997   5.232   3.844  2.6737 -0.2840  0.8890
34226SOL    HW2 5311   3.964   5.372   3.799 -0.6366 -1.5176 -0.8131
34227SOL     OW 5312   8.393   5.793   2.688 -0.2116 -0.0933  0.1387
34227SOL    HW1 5313   8.477   5.748   2.696  1.2069  2.4510  0.7851
34227SOL    HW2 5314   8.405   5.851   2.612 -1.8760 -0.5922 -0.5443
34228SOL     OW 5315   4.336  10.227   5.459 -0.2005 -0.3836  0.4128
34228SOL    HW1 5316   4.301  10.142   5.485  1.1802 -1.0790  0.1079
34228SOL    HW2 5317   4.376  10.211   5.373  1.5258  0.1586  1.0738
34229SOL     OW 5318   8.714   4.269   0.132 -0.3235 -0.1264 -0.2536
34229SOL    HW1 5319   8.671   4.276   0.218 -1.6159 -2.1479 -0.6764
34229SOL    HW2 5320   8.791   4.215   0.148  1.4900  2.4074  0.2399
34230SOL     OW 5321   7.635   1.681   8.957 -0.4834 -0.4439  0.1038
34230SOL    HW1 5322   7.661   1.611   8.896 -0.7973 -0.4791  0.0089
34230SOL    HW2 5323   7.540   1.677   8.959 -0.5858  0.8517 -0.9443
34231SOL     OW 5324   8.058   5.874   7.716 -0.0437 -0.0096 -0.2495
34231SOL    HW1 5325   8.088   5.814   7.648 -0.3943 -2.1557  1.3641
34231SOL    HW2 5326   8.102   5.843   7.796 -3.4043 -0.8526  1.4540
34232SOL     OW 5327   8.995   3.205   9.001  0.4332  0.5099 -0.0902
34232SOL    HW1 5328   8.948   3.217   8.919 -0.8749  0.7014  0.6641
34232SOL    HW2 5329   8.947   3.136   9.046  1.8870 -0.4877 -0.0142
34233SOL     OW 5330   5.387   8.542   2.402 -0.2972  0.3081  0.2079
34233SOL    HW1 5331   5.348   8.467   2.356  0.5485  0.0612 -0.1337
34233SOL    HW2 5332   5.470   8.508   2.435 -0.1636  0.9471  0.5326
34234SOL     OW 5333   5.080   1.700   5.208 -0.3541 -0.1806  0.1976
34234SOL    HW1 5334   5.086   1.780   5.260  1.6090 -2.1340  3.2923
34234SOL    HW2 5335   5.146   1.710   5.140 -0.9728  1.2472 -0.2413
34235SOL     OW 5336  10.029   3.839   2.033 -0.0860 -0.6734 -0.2282
34235SOL    HW1 5337  10.117   3.855   1.998  1.5056 -0.2154  3.5475
34235SOL    HW2 5338  10.035   3.756   2.079 -1.6038 -0.5469  0.2626
34236SOL     OW 5339   8.410   4.830   1.154  0.4129  0.2615  0.3230
34236SOL    HW1 5340   8.358   4.756   1.185  0.9824 -0.4163 -0.3144
34236SOL    HW2 5341   8.479   4.791   1.101  0.6705  1.2579 -0.1001
34237SOL     OW 5342   4.525   2.643   9.912 -0.8143  0.4621 -0.2547
34237SOL    HW1 5343   4.541   2.583   9.985 -1.3432  0.3242 -0.2467
34237SOL    HW2 5344   4.464   2.596   9.856 -0.2472  0.4842 -0.8967
34238SOL     OW 5345   0.730   7.062   9.661  0.5416  0.2134  0.1407
34238SOL    HW1 5346   0.792   7.135   9.659 -0.3048  0.9437 -0.5444
34238SOL    HW2 5347   0.647   7.101   9.635  0.1786 -1.0986 -0.7918
34239SOL     OW 5348   8.090   6.952   5.103  0.4772  0.2023  0.1851
34239SOL    HW1 5349   8.151   6.941   5.031  0.1417 -1.9975  0.1746
34239SOL    HW2 5350   8.141   6.994   5.172  1.0105  1.6196 -1.0256
34240SOL     OW 5351   2.089   8.096   3.143 -0.0482 -0.1131  0.6398
34240SOL    HW1 5352   2.040   8.174   3.167 -0.3893 -0.4834  1.1664
34240SOL    HW2 5353   2.152   8.126   3.078 -1.1430  0.3175 -0.2494
34241SOL     OW 5354   0.974   6.237   0.380 -0.0644  0.0662 -0.2096
34241SOL    HW1 5355   0.895   6.189   0.355 -0.1118 -0.0576  0.1695
34241SOL    HW2 5356   0.946   6.328   0.386  0.6995  0.6896 -3.9975
34242SOL     OW 5357   0.364   6.998   6.304  0.1363  0.1534 -0.4011
34242SOL    HW1 5358   0.320   7.046   6.375  1.1474  1.0535 -0.3448
34242SOL    HW2 5359   0.368   6.908   6.335  1.3919  0.6832  1.1508
34243SOL     OW 5360   1.440   5.518   6.312  0.0972 -0.1434  0.4610
34243SOL    HW1 5361   1.365   5.513   6.253 -0.8123  3.5947  1.0892
34243SOL    HW2 5362   1.445   5.431   6.351 -3.1925 -0.8653 -0.4343
34244SOL     OW 5363   8.102   8.390   1.476  0.7299 -0.1958  0.3535
34244SOL    HW1 5364   8.171   8.453   1.455  1.9462 -1.9162 -1.0966
34244SOL    HW2 5365   8.088   8.400   1.570  3.2968 -0.0843  0.7924
34245SOL     OW 5366   4.667   1.882   3.238  0.6541 -0.2832 -0.1313
34245SOL    HW1 5367   4.676   1.955   3.298  2.8514 -0.7341  0.1621
34245SOL    HW2 5368   4.618   1.918   3.164  1.1348  1.3138  0.2848
34246SOL     OW 5369   0.420   9.431   8.054 -0.1572 -0.1476 -0.8172
34246SOL    HW1 5370   0.398   9.425   8.147  0.8507  0.1418 -0.5464
34246SOL    HW2 5371   0.385   9.515   8.026 -0.9099 -0.4592 -0.8365
34247SOL     OW 5372   5.203   7.052   0.338 -0.6572 -0.5695  0.1998
34247SOL    HW1 5373   5.132   7.108   0.370 -0.2173  0.4040 -0.5045
34247SOL    HW2 5374   5.229   7.001   0.415 -1.3121 -0.0711  0.7631
34248SOL     OW 5375   4.918   8.698   1.798 -0.0752  0.0546  0.2731
34248SOL    HW1 5376   4.934   8.746   1.879 -0.6344  0.5562  0.0993
34248SOL    HW2 5377   4.983   8.733   1.736 -0.6354  0.7939  0.0763
34249SOL     OW 5378   1.773   5.545   2.321  0.3444  0.5474 -0.4895
34249SOL    HW1 5379   1.743   5.471   2.268  2.2560 -0.0649 -0.8181
34249SOL    HW2 5380   1.711   5.615   2.303 -2.2353 -1.2717  0.7345
34250SOL     OW 5381   7.932   7.103  10.261  0.3552  0.2435  0.1847
34250SOL    HW1 5382   7.895   7.186  10.292  1.9532  0.3811  1.8866
34250SOL    HW2 5383   7.980   7.068  10.336  1.4712 -1.2027 -1.1266
34251SOL     OW 5384   6.922   5.467   7.248 -0.6288 -0.2332  0.3410
34251SOL    HW1 5385   6.830   5.451   7.227 -0.2249 -0.5441 -1.3236
34251SOL    HW2 5386   6.959   5.506   7.168  0.9804 -1.3265  0.5068
34252SOL     OW 5387   8.430   2.114   6.106  0.1614  0.4374  0.6211
34252SOL    HW1 5388   8.385   2.165   6.174  0.8904  0.0795  1.3776
34252SOL    HW2 5389   8.419   2.023   6.133 -1.4082  0.1137 -0.8942
34253SOL     OW 5390   2.775   5.317   8.459 -0.1823 -0.4071 -0.4188
34253SOL    HW1 5391   2.794   5.275   8.543 -0.7190  0.0348 -0.0735
34253SOL    HW2 5392   2.795   5.409   8.473 -0.4141 -0.3084 -0.7349
34254SOL     OW 5393   4.957  10.076   2.430 -0.1668 -0.4940  0.1550
34254SOL    HW1 5394   5.018  10.106   2.497  0.1113 -0.7453  0.0158
34254SOL    HW2 5395   4.886  10.034   2.478 -0.7807  0.7672  0.3835
34255SOL     OW 5396  10.027   1.936   4.543 -0.0105 -0.6806  0.1383
34255SOL    HW1 5397   9.996   2.010   4.596 -1.1124 -2.4091  2.0592
34255SOL    HW2 5398  10.018   1.966   4.453  0.4036  1.8222  0.8564
34256SOL     OW 5399   4.491   8.178   6.167 -0.3207  0.4135  0.1747
34256SOL    HW1 5400   4.459   8.198   6.255  0.7696  2.3159  0.1928
34256SOL    HW2 5401   4.568   8.233   6.156 -0.0485 -0.2656 -1.7439
34257SOL     OW 5402   8.675   0.251   9.352  0.0934  0.2612 -0.5334
34257SOL    HW1 5403   8.767   0.266   9.376 -0.0191  1.4117 -0.7548
34257SOL    HW2 5404   8.670   0.276   9.260  0.4065 -3.6108 -1.7693
34258SOL     OW 5405   0.800   3.514   8.215  0.0448  0.5148  0.1701
34258SOL    HW1 5406   0.875   3.481   8.167  0.7195  1.9607  0.1699
34258SOL    HW2 5407   0.754   3.570   8.152  0.2907  1.5014  0.8399
34259SOL     OW 5408   8.171   8.676   0.844 -0.1042 -0.0533  0.2993
34259SOL    HW1 5409   8.129   8.617   0.782 -1.0846 -0.7355  1.5643
34259SOL    HW2 5410   8.174   8.760   0.799  1.5659 -1.0646 -1.6554
34260SOL     OW 5411   7.958   7.253   8.234  0.3032  0.0401  0.3903
34260SOL    HW1 5412   7.970   7.347   8.248  1.5086  0.1284 -0.9848
34260SOL    HW2 5413   7.906   7.248   8.153 -1.2118 -0.4843  1.3557
34261SOL     OW 5414   1.948   0.502  10.083  0.5248 -0.5951  0.1291
34261SOL    HW1 5415   1.916   0.590  10.061  1.7727  0.0399  0.7215
34261SOL    HW2 5416   1.869   0.448  10.086 -0.1447  0.2283 -1.4707
34262SOL     OW 5417   2.956   2.835   6.443 -0.2095  0.3704 -0.4464
34262SOL    HW1 5418   2.868   2.871   6.457 -0.1398  0.9573 -1.4202
34262SOL    HW2 5419   2.992   2.824   6.531 -1.1798  0.3131 -0.0433
34263SOL     OW 5420   5.267   0.359   6.517  0.4578  0.3695 -0.5703
34263SOL    HW1 5421   5.273   0.360   6.421  1.5009  1.1047 -0.5030
34263SOL    HW2 5422   5.219   0.438   6.539 -2.0354 -1.0199 -0.5817
34264SOL     OW 5423   4.547   7.970   1.289 -0.3315 -0.4966  0.5517
34264SOL    HW1 5424   4.557   7.948   1.381 -0.0118 -1.7933  0.2342
34264SOL    HW2 5425   4.560   8.065   1.284  5.1992 -0.8844  1.1391
34265SOL     OW 5426   1.797   0.755  10.048 -0.5699  0.3045 -0.2837
34265SOL    HW1 5427   1.746   0.822  10.094  0.3492  2.1569 -1.8249
34265SOL    HW2 5428   1.737   0.717   9.985 -0.7195  0.6975 -0.3789
34266SOL     OW 5429   8.813   7.053   6.038  0.3073  0.3441 -0.1095
34266SOL    HW1 5430   8.750   7.116   6.073 -1.4011 -0.8775 -0.8259
34266SOL    HW2 5431   8.804   6.975   6.093  0.5548 -0.1570 -0.7552
34267SOL     OW 5432   4.914   8.333   2.962 -0.1254  0.4708  0.1537
34267SOL    HW1 5433   4.867   8.274   2.904 -0.2721 -0.4658  1.1909
34267SOL    HW2 5434   4.990   8.361   2.912 -0.5677  0.1661 -0.7024
34268SOL     OW 5435   9.879   3.070   1.535  0.4250  0.7240  0.5737
34268SOL    HW1 5436   9.912   3.155   1.504 -0.2374  0.7175 -0.1940
34268SOL    HW2 5437   9.799   3.056   1.484 -0.4159  0.4409  1.9098
34269SOL     OW 5438   2.078   7.221   9.237  0.2961  0.0807  0.3784
34269SOL    HW1 5439   2.030   7.291   9.281  0.8075  0.3904  0.4586
34269SOL    HW2 5440   2.135   7.268   9.175 -0.2263 -0.3303 -0.4327
34270SOL     OW 5441   4.379   5.950   5.334  0.2336  0.1876  0.3560
34270SOL    HW1 5442   4.345   5.998   5.409  0.6408  1.0472  0.0074
34270SOL    HW2 5443   4.374   6.012   5.261 -2.3169 -1.3425 -0.9167
34271SOL     OW 5444   5.117   0.217   4.942 -0.3297 -0.1097 -0.0087
34271SOL    HW1 5445   5.196   0.224   4.996  0.0931  1.3786 -0.7710
34271SOL    HW2 5446   5.088   0.307   4.930 -1.0139 -0.4857 -1.3892
34272SOL     OW 5447   8.665   4.752   3.401 -0.2039  0.5744 -0.4161
34272SOL    HW1 5448   8.625   4.828   3.358 -3.0281 -0.5678 -0.0024
34272SOL    HW2 5449   8.620   4.745   3.485  1.2980 -0.5219  0.3427
34273SOL     OW 5450   1.329   0.238   7.735 -0.4963 -0.4021 -0.5586
34273SOL    HW1 5451   1.282   0.248   7.818  0.0151  0.5186 -0.3711
34273SOL    HW2 5452   1.269   0.273   7.669 -0.2464  0.4161 -0.3660
34274SOL     OW 5453   1.911   9.615   2.088  0.0181  0.1318 -0.5741
34274SOL    HW1 5454   1.999   9.634   2.120  0.6414  0.3793 -2.2820
34274SOL    HW2 5455   1.868   9.567   2.159  1.5029  0.0874  0.3216
34275SOL     OW 5456   9.750   3.642   3.598 -0.8133  0.1173 -0.2767
34275SOL    HW1 5457   9.831   3.593   3.610 -1.7705 -1.2282  1.0045
34275SOL    HW2 5458   9.702   3.594   3.531 -1.3081 -0.1010  0.2295
34276SOL     OW 5459   8.189   7.566   3.804  0.4274 -0.1307  0.3636
34276SOL    HW1 5460   8.206   7.575   3.898  0.7644 -2.6981  0.6319
34276SOL    HW2 5461   8.094   7.553   3.798  0.4639 -0.4221  0.4060
34277SOL     OW 5462   0.243   0.455  10.068  0.1314 -0.2187  0.2553
34277SOL    HW1 5463   0.247   0.545  10.101  1.8902 -0.2556  0.2230
34277SOL    HW2 5464   0.206   0.405  10.141 -0.0907  0.3895  0.5731
34278SOL     OW 5465  10.131   9.352   1.045  0.3747  0.2166  0.6103
34278SOL    HW1 5466  10.199   9.398   0.994  0.8049  0.6127  1.5209
34278SOL    HW2 5467  10.172   9.336   1.130 -0.1056 -1.0335  0.6211
34279SOL     OW 5468   4.302   3.773   4.185  0.5734 -0.2845 -0.6824
34279SOL    HW1 5469   4.396   3.780   4.169  0.8149 -0.8878  0.3361
34279SOL    HW2 5470   4.296   3.735   4.273 -0.6264  0.2557 -0.5144
34280SOL     OW 5471   2.152   2.901   0.309  0.0736  0.0056  0.1077
34280SOL    HW1 5472   2.104   2.838   0.255  0.1226 -2.0418  2.2646
34280SOL    HW2 5473   2.083   2.951   0.354 -0.0578 -0.8956  0.9506
34281SOL     OW 5474   7.880   9.170   8.402 -0.3367  0.4337  0.1432
34281SOL    HW1 5475   7.798   9.132   8.433 -0.5092  1.1920  0.6316
34281SOL    HW2 5476   7.911   9.108   8.336 -0.3899 -0.7861  1.2218
34282SOL     OW 5477   4.580   3.882   5.276  0.8562 -0.9900 -0.5131
34282SOL    HW1 5478   4.602   3.901   5.185  0.7284 -0.3063 -0.4083
34282SOL    HW2 5479   4.539   3.962   5.308  1.6412 -0.9267  0.3874
34283SOL     OW 5480   4.100   6.086   3.838 -0.1591 -0.2058 -0.3050
34283SOL    HW1 5481   4.184   6.109   3.798 -0.8480 -0.3321 -1.9095
34283SOL    HW2 5482   4.122   6.024   3.907  1.0189 -0.6250 -1.0341
34284SOL     OW 5483   1.821   1.384   3.541  0.3955  0.4820 -0.3250
34284SOL    HW1 5484   1.916   1.387   3.542  0.3839  1.6502  0.5192
34284SOL    HW2 5485   1.795   1.449   3.476  0.1733  0.6575 -0.0649
34285SOL     OW 5486   7.657   7.371   5.590 -0.3464 -0.3905  0.0388
34285SOL    HW1 5487   7.646   7.306   5.521 -1.6646 -0.7397  0.5455
34285SOL    HW2 5488   7.665   7.454   5.543  1.3692 -0.8893 -0.6096
34286SOL     OW 5489   3.223   6.667   2.521 -0.0964  0.0201 -0.6731
34286SOL    HW1 5490   3.190   6.724   2.451 -0.4698  0.2771 -0.2947
34286SOL    HW2 5491   3.176   6.584   2.508 -0.2618  0.1091 -0.6534
34287SOL     OW 5492   8.828   3.895  10.181 -0.1944  0.2271 -0.3393
34287SOL    HW1 5493   8.876   3.958  10.126  0.0699 -0.2559 -0.6745
34287SOL    HW2 5494   8.739   3.928  10.183 -0.0013  0.7554 -0.2942
34288SOL     OW 5495   6.399  10.098   9.192 -0.1105 -0.2142  0.3819
34288SOL    HW1 5496   6.420  10.121   9.101  1.0297 -1.5272  0.2722
34288SOL    HW2 5497   6.479  10.057   9.225 -0.1196  1.2146  2.3526
34289SOL     OW 5498   5.754   8.302   0.330 -0.2907  0.1293 -0.2735
34289SOL    HW1 5499   5.668   8.260   0.327 -0.5126  0.5490  0.0804
34289SOL    HW2 5500   5.740   8.386   0.286 -0.0873  0.2454 -0.1160
34290SOL     OW 5501   7.887   4.993   2.040 -0.0735 -0.1230 -0.1998
34290SOL    HW1 5502   7.835   4.981   2.119 -2.5616  2.1228 -1.3335
34290SOL    HW2 5503   7.897   5.088   2.032  0.4681 -0.3004 -2.3503
34291SOL     OW 5504   6.415   7.006   9.871  0.1340 -0.4010  0.4807
34291SOL    HW1 5505   6.418   7.077   9.807 -1.1519 -2.6261 -2.2620
34291SOL    HW2 5506   6.494   6.955   9.853 -0.2105 -1.0236  0.7348
34292SOL     OW 5507   1.077   9.251   9.293 -0.5166 -0.1217  0.0946
34292SOL    HW1 5508   1.042   9.318   9.352 -0.2117 -1.1420  1.4928
34292SOL    HW2 5509   1.090   9.175   9.349  1.1485 -0.6915 -0.9997
34293SOL     OW 5510   1.716   9.591   7.419 -0.1938 -0.1924 -0.0372
34293SOL    HW1 5511   1.624   9.577   7.395 -1.0624  1.8993  1.7971
34293SOL    HW2 5512   1.751   9.644   7.348 -0.6427 -0.2829 -0.3329
34294SOL     OW 5513   3.199   4.175   9.279 -0.1118 -0.2590 -0.1016
34294SOL    HW1 5514   3.112   4.212   9.265  0.5939  0.7775 -2.2129
34294SOL    HW2 5515   3.191   4.084   9.252 -0.6000 -0.2139 -0.1192
34295SOL     OW 5516  10.057   6.246   9.010  0.3834  0.0432 -0.0396
34295SOL    HW1 5517  10.069   6.294   8.928 -0.2731 -0.5351 -0.4794
34295SOL    HW2 5518  10.077   6.156   8.988  1.9946  0.1267  0.8727
34296SOL     OW 5519   4.392   2.683   4.629  0.0893  0.4225 -0.3900
34296SOL    HW1 5520   4.482   2.700   4.658 -0.0449  1.5942 -0.6422
34296SOL    HW2 5521   4.340   2.753   4.669 -0.5956  0.2026 -0.8838
34297SOL     OW 5522   4.252   9.117   0.251 -0.1305  0.5415 -0.0450
34297SOL    HW1 5523   4.214   9.066   0.179 -0.4549  2.8029 -1.5760
34297SOL    HW2 5524   4.307   9.182   0.208  0.4069  1.3811  1.8216
34298SOL     OW 5525   0.571   7.248   0.331 -0.1938 -0.1925  0.1897
34298SOL    HW1 5526   0.539   7.224   0.418 -2.1793  1.5979  0.0382
34298SOL    HW2 5527   0.529   7.186   0.272  1.1639 -1.4165  0.4729
34299SOL     OW 5528   4.998   9.190   0.085  0.0843 -0.2065  0.2274
34299SOL    HW1 5529   4.980   9.157  -0.003  0.6588 -0.8803  0.3552
34299SOL    HW2 5530   5.093   9.183   0.095  0.5087  3.0968 -0.3743
34300SOL     OW 5531   3.085   7.049   3.059  0.5882  0.7058 -0.2357
34300SOL    HW1 5532   2.995   7.049   3.026  0.7772  1.3302 -0.7807
34300SOL    HW2 5533   3.077   7.029   3.152 -0.1186  0.7944 -0.2731
34301SOL     OW 5534   0.675   1.258   9.327  0.8445 -0.1995  0.3451
34301SOL    HW1 5535   0.667   1.181   9.383  0.0522 -0.7803 -0.5371
34301SOL    HW2 5536   0.594   1.260   9.276  0.9673  1.0730  0.1612
34302SOL     OW 5537   7.875   6.778   7.518  0.0571  0.3557  0.8146
34302SOL    HW1 5538   7.925   6.740   7.590  0.1287  0.3097  0.7401
34302SOL    HW2 5539   7.798   6.721   7.510  0.5951 -0.3012  0.1285
34303SOL     OW 5540   4.248   7.804   9.835  0.1803  0.2295 -0.1546
34303SOL    HW1 5541   4.312   7.834   9.900 -0.5467  0.0701  0.6524
34303SOL    HW2 5542   4.228   7.714   9.861 -1.0485  0.5744  0.1652
34304SOL     OW 5543   9.114   9.746   0.111  0.2040 -0.2189  0.2144
34304SOL    HW1 5544   9.207   9.746   0.135 -0.1581 -0.4471  1.6448
34304SOL    HW2 5545   9.109   9.811   0.040  1.4097 -0.0092  0.2868
34305SOL     OW 5546   4.099   9.503   6.434 -0.1056 -0.0389  0.4685
34305SOL    HW1 5547   4.072   9.475   6.522  2.1386  0.1530  1.2862
34305SOL    HW2 5548   4.126   9.422   6.391  0.4673  0.0777  0.6017
34306SOL     OW 5549   7.373   9.887   2.079 -0.1468  0.1538 -0.0131
34306SOL    HW1 5550   7.437   9.859   2.013 -0.0657 -2.1791  0.9474
34306SOL    HW2 5551   7.344   9.805   2.120 -0.0655  1.4789  2.9540
34307SOL     OW 5552   0.448   4.617   6.070 -0.4309 -0.6824 -0.1526
34307SOL    HW1 5553   0.483   4.565   6.142  1.0156 -1.4468 -1.3499
34307SOL    HW2 5554   0.518   4.679   6.048 -0.5251 -0.9871 -1.3902
34308SOL     OW 5555   8.038   0.207   8.912 -0.0252  0.2288  0.4934
34308SOL    HW1 5556   8.077   0.154   8.981 -1.1747 -0.5438  0.5846
34308SOL    HW2 5557   7.948   0.175   8.906  0.1875 -0.0774 -1.7276
34309SOL     OW 5558   4.998   6.282   9.490 -0.1531  0.5831  0.0125
34309SOL    HW1 5559   4.999   6.375   9.467  1.5615  0.1455 -2.0051
34309SOL    HW2 5560   5.016   6.280   9.583 -2.7838  2.3267  0.7021
34310SOL     OW 5561   6.468   9.812   1.970  0.4561 -0.2260 -0.2832
34310SOL    HW1 5562   6.374   9.826   1.974  0.5169  0.2223 -0.4570
34310SOL    HW2 5563   6.507   9.891   2.008  0.7988  0.2860 -1.6377
34311SOL     OW 5564   2.519   4.240   6.434  0.2678 -0.0216 -0.2093
34311SOL    HW1 5565   2.517   4.335   6.423 -0.3966  0.2359  1.7335
34311SOL    HW2 5566   2.612   4.218   6.436  0.4499  0.7618  0.4746
34312SOL     OW 5567   0.408   2.784   8.982 -0.3420  0.1172  0.2553
34312SOL    HW1 5568   0.341   2.842   8.944 -1.1176 -0.3076  0.9192
34312SOL    HW2 5569   0.448   2.837   9.051  0.2594  0.4953 -0.3816
34313SOL     OW 5570   9.456   3.035   1.691 -0.0059 -0.0419 -0.5462
34313SOL    HW1 5571   9.494   3.069   1.610 -0.5728 -1.4477 -1.4317
34313SOL    HW2 5572   9.472   2.941   1.688 -1.1701 -0.2968  0.3479
34314SOL     OW 5573   4.411   4.654   1.645 -0.5462 -0.4507  0.0868
34314SOL    HW1 5574   4.400   4.607   1.563  6.2267  0.8195 -2.1706
34314SOL    HW2 5575   4.380   4.742   1.627  0.8958 -0.1814 -1.2931
34315SOL     OW 5576   3.358   1.827   2.269 -0.0601 -0.4103  0.1024
34315SOL    HW1 5577   3.389   1.769   2.338 -1.4270  0.6312  1.6658
34315SOL    HW2 5578   3.361   1.914   2.307 -0.2820  0.2823 -1.3804
34316SOL     OW 5579   6.700   3.900   7.712  0.0148  0.4209  0.3752
34316SOL    HW1 5580   6.684   3.939   7.627  1.4713  0.2606 -0.0015
34316SOL    HW2 5581   6.622   3.920   7.763 -1.2349 -0.1857 -1.2302
34317SOL     OW 5582   5.389   7.549  10.249  0.3275  0.3164  0.1093
34317SOL    HW1 5583   5.337   7.555  10.329  0.3147  0.8765  0.0627
34317SOL    HW2 5584   5.340   7.602  10.186  1.1411  1.1526  0.1618
34318SOL     OW 5585   1.862   3.152   5.476  0.3126  0.2301 -0.4274
34318SOL    HW1 5586   1.779   3.181   5.437  0.2508 -0.9590 -1.2642
34318SOL    HW2 5587   1.847   3.154   5.570 -0.5543  0.3590 -0.5606
34319SOL     OW 5588   2.934   0.356  10.018  0.7316  0.1413 -0.2413
34319SOL    HW1 5589   2.958   0.405   9.939  3.1742 -1.7432 -0.7950
34319SOL    HW2 5590   2.998   0.285  10.022 -1.4115 -1.8504  1.5740
34320SOL     OW 5591   3.650   2.373   4.983 -0.0332  0.3425  0.6228
34320SOL    HW1 5592   3.598   2.448   5.010 -0.8869 -0.4751  1.3317
34320SOL    HW2 5593   3.651   2.316   5.060  1.1089 -0.0985  0.2976
34321SOL     OW 5594   0.002   7.777   1.632  0.1155  0.5601 -0.1132
34321SOL    HW1 5595  -0.015   7.828   1.712  0.5651 -0.3918  0.5986
34321SOL    HW2 5596  -0.038   7.830   1.562 -1.2363  0.8891  0.8594
34322SOL     OW 5597  10.306   3.430   7.534  0.4675  0.0669 -0.5681
34322SOL    HW1 5598  10.307   3.432   7.439 -1.1136 -0.1968 -0.6028
34322SOL    HW2 5599  10.215   3.413   7.558  1.1570 -2.0286  0.9326
34323SOL     OW 5600   8.352   7.433   3.043 -0.2337 -0.3467  0.4982
34323SOL    HW1 5601   8.382   7.439   3.134 -0.2091  0.3462  0.4528
34323SOL    HW2 5602   8.425   7.392   2.997  0.3274  0.5798  0.5385
34324SOL     OW 5603   6.176   4.765   5.008  0.8400  0.1481  0.2004
34324SOL    HW1 5604   6.189   4.770   4.913 -0.9593  0.5362 -0.0623
34324SOL    HW2 5605   6.244   4.821   5.044 -0.0293  2.1050 -1.0377
34325SOL     OW 5606   2.867   8.435   2.142  0.2975 -0.2538 -0.4729
34325SOL    HW1 5607   2.920   8.456   2.066  1.9793 -0.2591  0.6338
34325SOL    HW2 5608   2.895   8.498   2.209 -0.4069 -0.8786  0.4417
34326SOL     OW 5609   2.977   2.368   7.960  0.2461  0.6139 -0.8249
34326SOL    HW1 5610   3.066   2.401   7.947  0.9751 -0.1811  1.5815
34326SOL    HW2 5611   2.989   2.278   7.990 -1.4585  0.0344 -1.7684
34327SOL     OW 5612   6.024   7.427   1.963 -0.6237 -0.7214 -0.1768
34327SOL    HW1 5613   6.015   7.392   1.874 -0.8448 -0.2791 -0.3281
34327SOL    HW2 5614   6.111   7.396   1.991 -0.3495 -0.4693 -0.7243
34328SOL     OW 5615   3.647   2.030   9.351 -0.1105 -0.8388 -0.7031
34328SOL    HW1 5616   3.609   1.974   9.418  0.6323 -0.5349 -0.0126
34328SOL    HW2 5617   3.587   2.022   9.276 -1.3415 -0.6244  0.2299
34329SOL     OW 5618   3.945   5.557   4.304 -0.1816  0.4615 -0.3730
34329SOL    HW1 5619   3.943   5.487   4.239 -1.5781 -0.5560  0.6902
34329SOL    HW2 5620   3.974   5.515   4.385 -0.7914  1.1371  0.2218
34330SOL     OW 5621   8.629   2.290   3.341 -0.3720 -0.5312 -0.1897
34330SOL    HW1 5622   8.672   2.267   3.259 -0.0244  1.3226 -0.5506
34330SOL    HW2 5623   8.596   2.206   3.375  1.6631 -1.6929 -0.9451
34331SOL     OW 5624   4.576   8.655   4.554  0.4456  0.4108 -0.3878
34331SOL    HW1 5625   4.615   8.581   4.507 -0.0258  0.1310 -0.3445
34331SOL    HW2 5626   4.481   8.644   4.543  0.3646  0.9111 -0.2348
34332SOL     OW 5627   7.918   6.645   7.761  0.1266  0.4791 -0.4270
34332SOL    HW1 5628   8.000   6.598   7.773 -0.6627 -0.2072  3.4885
34332SOL    HW2 5629   7.936   6.734   7.792 -0.3504  0.6055 -0.5009
34333SOL     OW 5630   8.585   2.845  10.275  0.0529  0.3574  0.0678
34333SOL    HW1 5631   8.657   2.783  10.266 -0.5654 -0.3190 -0.2538
34333SOL    HW2 5632   8.629   2.929  10.291  0.9130 -0.0325 -0.1547
34334SOL     OW 5633   4.750   1.015   4.326  0.8393 -0.2635  0.2750
34334SOL    HW1 5634   4.699   0.997   4.248  0.9874 -0.9494  0.3364
34334SOL    HW2 5635   4.840   1.024   4.295  0.7292  0.7257  0.1988
34335SOL     OW 5636   1.222   9.366   5.672 -0.5070 -0.3777 -0.3687
34335SOL    HW1 5637   1.260   9.423   5.739  1.5827 -0.1198 -1.6740
34335SOL    HW2 5638   1.225   9.418   5.592  1.1045 -2.0799 -1.5224
34336SOL     OW 5639   9.247   3.071   3.333  0.1451  0.7845 -0.3951
34336SOL    HW1 5640   9.290   2.986   3.323  0.2878  0.7395  0.4895
34336SOL    HW2 5641   9.279   3.104   3.417 -0.2145  1.5339 -0.5451
34337SOL     OW 5642  10.256   7.043   3.840 -0.2220 -0.1291 -0.2790
34337SOL    HW1 5643  10.210   6.971   3.883  0.5641  0.0924  0.9871
34337SOL    HW2 5644  10.225   7.041   3.749 -1.1858 -1.2350  0.0545
34338SOL     OW 5645   9.051   0.677   5.811 -0.2823  0.0759 -0.3396
34338SOL    HW1 5646   8.957   0.663   5.799 -0.2847 -0.0742 -0.1415
34338SOL    HW2 5647   9.090   0.647   5.729 -0.3976  0.0275 -0.3768
34339SOL     OW 5648   7.199   7.808   9.597  0.3000 -0.1115 -0.1094
34339SOL    HW1 5649   7.235   7.885   9.642  0.3194 -0.5548  0.6413
34339SOL    HW2 5650   7.156   7.844   9.520  0.2799  0.6651  0.2511
34340SOL     OW 5651   6.509   5.782   9.407 -0.3213  0.2133  0.4401
34340SOL    HW1 5652   6.517   5.704   9.461 -1.4695  0.6599  1.2851
34340SOL    HW2 5653   6.576   5.841   9.442 -0.5329  0.2032  0.8751
34341SOL     OW 5654  10.238   1.400   8.398 -0.0307 -0.2160 -0.2027
34341SOL    HW1 5655  10.156   1.423   8.441 -0.4193 -0.8389 -0.6074
34341SOL    HW2 5656  10.212   1.366   8.313  0.6684 -0.1085 -0.4683
34342SOL     OW 5657   2.706  10.032   1.455  0.1884  0.2928 -0.0006
34342SOL    HW1 5658   2.708   9.937   1.470 -0.7907  0.4041  0.9384
34342SOL    HW2 5659   2.713  10.042   1.360  0.0066 -0.7308 -0.1298
34343SOL     OW 5660   7.513   9.165   3.249  0.0009 -0.0778  0.1555
34343SOL    HW1 5661   7.475   9.181   3.163 -0.9712  1.3899  0.8286
34343SOL    HW2 5662   7.597   9.123   3.230 -0.2024  0.1877 -1.4934
34344SOL     OW 5663   2.018   5.451   4.566 -0.5354 -0.0947  0.7130
34344SOL    HW1 5664   1.943   5.494   4.606 -1.2860 -1.4055  0.7924
34344SOL    HW2 5665   2.093   5.504   4.590 -1.1038 -0.2059  2.9172
34345SOL     OW 5666   0.160   2.663   3.190 -0.4546  0.1847 -0.0443
34345SOL    HW1 5667   0.234   2.707   3.147  0.7936  1.2788  2.9319
34345SOL    HW2 5668   0.144   2.586   3.136  3.9247 -1.0034 -0.0749
34346SOL     OW 5669   6.276   4.991  10.258  0.0995  0.5246 -0.5437
34346SOL    HW1 5670   6.235   4.919  10.210 -0.6683  1.4008 -1.2404
34346SOL    HW2 5671   6.367   4.964  10.269 -0.1501 -0.4921 -0.9088
34347SOL     OW 5672   3.870   9.193   7.932 -0.1683  0.6130  0.7469
34347SOL    HW1 5673   3.947   9.139   7.951 -1.8284 -2.0333  0.4188
34347SOL    HW2 5674   3.907   9.274   7.896  2.4564 -0.4939  0.6653
34348SOL     OW 5675   9.650   2.850   4.942 -0.3860 -0.2343  0.1227
34348SOL    HW1 5676   9.566   2.826   4.980 -0.4927 -0.9885 -0.5522
34348SOL    HW2 5677   9.628   2.890   4.858 -0.0871  0.0367  0.1697
34349SOL     OW 5678  10.264   2.783   4.125  0.1448  0.8217 -0.3155
34349SOL    HW1 5679  10.297   2.759   4.039 -0.3687 -0.8381 -0.0880
34349SOL    HW2 5680  10.172   2.805   4.110 -0.6666 -1.8852  0.0858
34350SOL     OW 5681   7.171   1.429   2.188  0.1730 -0.3403  0.1821
34350SOL    HW1 5682   7.168   1.462   2.098  1.2957  1.6157  0.8098
34350SOL    HW2 5683   7.083   1.445   2.223  0.4194  1.1460  0.1630
34351SOL     OW 5684   4.620   9.935   4.399 -0.0645 -0.1037  0.6051
34351SOL    HW1 5685   4.700   9.888   4.423 -0.5296 -0.5907  1.2385
34351SOL    HW2 5686   4.549   9.882   4.436 -0.5614  1.8069  2.5856
34352SOL     OW 5687   6.010   1.003   3.538 -0.0594  0.2282  0.1733
34352SOL    HW1 5688   5.943   1.017   3.604 -0.1266 -2.1817  0.7236
34352SOL    HW2 5689   6.090   0.989   3.588 -0.1242 -1.7052 -0.1993
34353SOL     OW 5690   0.309   4.690   5.421 -0.0324  0.8690 -0.3256
34353SOL    HW1 5691   0.235   4.738   5.385 -0.0056  1.4148  0.3222
34353SOL    HW2 5692   0.293   4.599   5.397 -0.6660  1.0479 -0.5950
34354SOL     OW 5693   6.954   5.326   1.646  0.7597 -0.0096  0.1505
34354SOL    HW1 5694   6.992   5.321   1.733 -1.6670 -1.8839  1.2330
34354SOL    HW2 5695   7.029   5.330   1.587  2.4677  1.4324  2.2892
34355SOL     OW 5696   1.229   5.489   4.759 -0.2930 -0.4382  0.2080
34355SOL    HW1 5697   1.233   5.582   4.737  1.4883 -0.2378  1.2160
34355SOL    HW2 5698   1.252   5.485   4.852 -0.4504 -1.8784  0.2106
34356SOL     OW 5699   4.787   9.904   8.534 -0.2159  0.3827  0.2632
34356SOL    HW1 5700   4.854   9.836   8.523 -0.6227 -0.2820  1.6840
34356SOL    HW2 5701   4.835   9.987   8.527  0.8243 -0.0747  1.6183
34357SOL     OW 5702   5.173   1.437   4.825  0.1730  0.1171 -0.4413
34357SOL    HW1 5703   5.182   1.364   4.886  0.5961  1.0533  0.6664
34357SOL    HW2 5704   5.091   1.479   4.851 -0.6600 -0.6181 -1.8188
34358SOL     OW 5705   3.660   9.552   3.976  0.2283  0.2473 -0.7836
34358SOL    HW1 5706   3.641   9.585   4.064  1.6127 -0.9775  0.0141
34358SOL    HW2 5707   3.751   9.521   3.981  0.3802  0.2860 -2.6925
34359SOL     OW 5708   9.476   3.889   7.912  0.8218  0.4502  0.1907
34359SOL    HW1 5709   9.533   3.888   7.990  0.2733 -1.3369  0.6178
34359SOL    HW2 5710   9.522   3.835   7.848  0.0211 -0.3267  0.2501
34360SOL     OW 5711   0.305   7.149   6.555  0.3032  0.1123 -0.1053
34360SOL    HW1 5712   0.250   7.216   6.514 -0.9671  0.0512  1.3658
34360SOL    HW2 5713   0.376   7.198   6.596 -0.8144  0.6794  1.2736
34361SOL     OW 5714   2.604   0.871   8.631 -0.1592  0.6397  0.1072
34361SOL    HW1 5715   2.591   0.880   8.725 -1.5933 -1.6539  0.1878
34361SOL    HW2 5716   2.523   0.832   8.598  0.7810  0.2145 -1.8927
34362SOL     OW 5717   9.721   9.950   1.382  0.7098 -0.4007 -0.0085
34362SOL    HW1 5718   9.704   9.944   1.288  1.6188  2.8911 -0.4996
34362SOL    HW2 5719   9.815   9.969   1.388  0.4606  0.5426  1.4767
34363SOL     OW 5720   9.274   7.314   1.223  0.0888 -0.9483 -0.2978
34363SOL    HW1 5721   9.261   7.330   1.130 -1.3540 -1.4370 -0.2218
34363SOL    HW2 5722   9.368   7.314   1.235  0.2803  0.7636 -1.4480
34364SOL     OW 5723   6.030   4.437   4.113 -0.8905 -0.3093  0.2139
34364SOL    HW1 5724   6.116   4.399   4.098 -1.6038 -1.5340 -1.0054
34364SOL    HW2 5725   5.969   4.366   4.095 -2.1526  0.3741  1.5798
34365SOL     OW 5726   5.351   4.024   1.352  0.7547 -0.1835  0.1292
34365SOL    HW1 5727   5.359   4.088   1.281  0.3867 -0.8632 -0.5381
34365SOL    HW2 5728   5.413   3.955   1.330  1.4732  0.1399  1.0825
34366SOL     OW 5729   6.213   7.416   0.400 -0.4189  0.4037  0.0350
34366SOL    HW1 5730   6.248   7.327   0.393 -1.4403  0.0234 -0.5357
34366SOL    HW2 5731   6.238   7.458   0.318 -1.9981 -0.1559 -0.7761
34367SOL     OW 5732   4.545   3.321   0.421  0.1511 -0.2641 -0.2893
34367SOL    HW1 5733   4.511   3.308   0.509 -0.1167 -0.3508 -0.4049
34367SOL    HW2 5734   4.474   3.364   0.373  0.7648  0.9900 -0.1103
34368SOL     OW 5735   1.298   7.991   9.472  0.2797  0.4747 -0.5918
34368SOL    HW1 5736   1.243   8.069   9.471 -0.5146 -0.0819 -1.0554
34368SOL    HW2 5737   1.254   7.929   9.414  1.7531  0.2594 -1.5548
34369SOL     OW 5738   7.196   5.265   3.738  0.0408  0.3228 -0.7001
34369SOL    HW1 5739   7.282   5.300   3.763  0.4630 -0.7441 -0.6249
34369SOL    HW2 5740   7.139   5.343   3.734  0.4758  0.8179  1.3952
34370SOL     OW 5741   4.953   0.702   6.279 -0.0033  0.3710  0.4317
34370SOL    HW1 5742   4.947   0.679   6.371  0.8769  2.1161  0.9662
34370SOL    HW2 5743   5.025   0.648   6.245 -1.8098 -2.0282  0.1046
34371SOL     OW 5744   4.420   0.141   0.875  0.2997 -0.0121  1.0967
34371SOL    HW1 5745   4.457   0.225   0.902 -0.6572  0.8574 -0.2170
34371SOL    HW2 5746   4.491   0.097   0.827 -0.0451  1.2878 -0.6925
34372SOL     OW 5747   2.916   2.050   5.020 -0.1483  0.0809 -0.0322
34372SOL    HW1 5748   2.867   2.060   4.939 -0.2116  0.3089  0.0348
34372SOL    HW2 5749   3.008   2.049   4.993 -0.1786 -0.0593 -0.1285
34373SOL     OW 5750   4.181   4.633   1.889  0.1998 -0.4931  0.6425
34373SOL    HW1 5751   4.247   4.607   1.824 -1.0361  0.3647 -1.0458
34373SOL    HW2 5752   4.182   4.563   1.954  2.4572 -0.7128  0.4651
34374SOL     OW 5753   5.194   0.366   6.241 -0.0967 -0.1164  0.2830
34374SOL    HW1 5754   5.225   0.456   6.226 -0.9593 -0.0537 -1.3565
34374SOL    HW2 5755   5.193   0.326   6.154  1.3386 -2.1131  1.1016
34375SOL     OW 5756   8.765   1.402   6.008  0.1002  0.3921  0.4758
34375SOL    HW1 5757   8.801   1.345   6.077  2.3258 -0.2861 -1.1291
34375SOL    HW2 5758   8.829   1.472   5.999 -1.2627  1.6863  0.5437
34376SOL     OW 5759   4.865   2.829   7.129 -0.1063 -0.5419 -0.3314
34376SOL    HW1 5760   4.839   2.764   7.194  0.8030 -0.2325  0.3790
34376SOL    HW2 5761   4.961   2.830   7.134  0.0056 -0.8712 -2.0460
34377SOL     OW 5762   5.740   2.182   3.211  0.8584 -0.5991  0.1356
34377SOL    HW1 5763   5.813   2.243   3.225 -0.2535  0.9818 -0.6286
34377SOL    HW2 5764   5.741   2.164   3.117  0.9553 -1.5171  0.3004
34378SOL     OW 5765   3.264  10.064   3.445  0.0869 -0.3807  0.0738
34378SOL    HW1 5766   3.178  10.024   3.432  0.7087 -2.1144  0.9700
34378SOL    HW2 5767   3.262  10.143   3.392 -2.2132 -0.1425  0.4262
34379SOL     OW 5768   5.350   0.176   4.336  0.1917 -0.2075  0.0110
34379SOL    HW1 5769   5.415   0.116   4.302  0.6487  1.3367 -2.0813
34379SOL    HW2 5770   5.268   0.127   4.334  0.6918 -1.0277 -0.8066
34380SOL     OW 5771   1.256   2.818  10.269 -0.8366  0.5996 -0.3941
34380SOL    HW1 5772   1.235   2.757  10.199  1.4912 -0.9126  0.0980
34380SOL    HW2 5773   1.194   2.797  10.339  0.2835 -1.7641  0.0089
34381SOL     OW 5774   3.541   2.753   1.187  0.0934  0.1541  0.4107
34381SOL    HW1 5775   3.583   2.677   1.148 -0.4210  0.8505 -1.6075
34381SOL    HW2 5776   3.458   2.719   1.222  0.8013 -0.5787  1.4379
34382SOL     OW 5777   7.683   1.428   6.259  0.1411 -0.1729 -0.5157
34382SOL    HW1 5778   7.693   1.360   6.325 -2.4988 -0.0897  0.0590
34382SOL    HW2 5779   7.743   1.497   6.286  0.9798 -1.1907  0.3088
34383SOL     OW 5780   0.068   3.394   1.869  0.1304  0.2856  0.4090
34383SOL    HW1 5781   0.057   3.398   1.964 -0.6981  0.7297  0.2990
34383SOL    HW2 5782  -0.010   3.437   1.833  0.6518  0.5362 -0.4669
34384SOL     OW 5783   3.828   9.357   5.946  0.6142 -0.2959  0.1598
34384SOL    HW1 5784   3.851   9.264   5.944  0.7036 -0.3563  1.8389
34384SOL    HW2 5785   3.821   9.377   6.040 -0.0955  1.2217 -0.1884
34385SOL     OW 5786   9.165   6.675   5.659  0.0295 -0.5534  0.3935
34385SOL    HW1 5787   9.167   6.579   5.651  0.5191 -0.5037 -0.1308
34385SOL    HW2 5788   9.105   6.703   5.589 -0.5617 -0.5117  0.9129
34386SOL     OW 5789   9.545   3.447   2.406 -0.2893  0.4132  0.4230
34386SOL    HW1 5790   9.454   3.467   2.426 -0.2487  1.7168 -0.6014
34386SOL    HW2 5791   9.596   3.494   2.472 -0.3360 -0.0961  0.8295
34387SOL     OW 5792   3.155   5.479   3.246  0.1348  0.5328  0.2743
34387SOL    HW1 5793   3.109   5.428   3.314  2.2526  2.1633  3.1275
34387SOL    HW2 5794   3.241   5.497   3.283  1.2528  2.0171 -2.7065
34388SOL     OW 5795   7.444   3.279   1.838 -0.4046 -0.0273 -0.2694
34388SOL    HW1 5796   7.390   3.241   1.907 -1.1122  0.4411 -0.5499
34388SOL    HW2 5797   7.530   3.292   1.879 -1.1158  1.2970  0.8846
34389SOL     OW 5798  10.157   8.715  10.020  0.0871 -0.2447  0.3249
34389SOL    HW1 5799  10.187   8.805  10.005 -0.2198 -0.0375  0.9180
34389SOL    HW2 5800  10.237   8.665  10.034  0.2652 -0.0813 -0.0948
34390SOL     OW 5801   5.468   8.545   3.882 -0.1786 -1.0484 -0.6047
34390SOL    HW1 5802   5.454   8.476   3.947 -2.4048  0.6034  0.8183
34390SOL    HW2 5803   5.552   8.584   3.907 -0.3314 -1.3437  0.4387
34391SOL     OW 5804   3.767   3.844   5.154 -0.0119 -0.0203 -0.8968
34391SOL    HW1 5805   3.823   3.918   5.175 -0.6241  0.4169 -0.7602
34391SOL    HW2 5806   3.793   3.817   5.066  3.0815 -2.3279  0.5432
34392SOL     OW 5807   3.851   6.623   4.174  0.1280  0.1593 -0.0218
34392SOL    HW1 5808   3.918   6.673   4.221  0.9023 -1.4801  0.6920
34392SOL    HW2 5809   3.770   6.642   4.220  0.5240  0.2289  0.6629
34393SOL     OW 5810   4.799   3.249   1.091 -0.4022  0.2150 -0.2396
34393SOL    HW1 5811   4.837   3.168   1.124  2.3802  0.6982 -1.9487
34393SOL    HW2 5812   4.748   3.283   1.165  0.9075 -1.5058  1.5744
34394SOL     OW 5813   7.237   5.497   4.227  0.0324 -0.3868 -0.2350
34394SOL    HW1 5814   7.294   5.571   4.251  0.0480 -0.7278  0.8420
34394SOL    HW2 5815   7.298   5.427   4.204  0.0205 -0.1699 -0.9390
34395SOL     OW 5816   1.574   1.003   5.144 -0.3743 -0.5811 -0.3487
34395SOL    HW1 5817   1.542   1.079   5.193 -0.2899 -0.1625 -0.9333
34395SOL    HW2 5818   1.512   0.993   5.072 -1.8231 -2.5804  1.0630
34396SOL     OW 5819   9.823   2.571   4.798 -0.2150  0.2291 -0.0073
34396SOL    HW1 5820   9.912   2.607   4.789 -0.3535  0.5124 -0.2651
34396SOL    HW2 5821   9.802   2.582   4.891 -0.4218  1.2290 -0.1532
34397SOL     OW 5822   3.096   6.911   8.009 -0.1915  0.2523  0.5252
34397SOL    HW1 5823   3.097   7.006   8.002  1.1809  0.2567  0.4865
34397SOL    HW2 5824   3.118   6.881   7.921  0.3317 -0.0689  0.7587
34398SOL     OW 5825   6.037   5.819   8.539 -0.2451  0.0875  0.0241
34398SOL    HW1 5826   6.000   5.741   8.497 -0.5768  0.0750  0.3327
34398SOL    HW2 5827   6.081   5.785   8.617  0.6184  0.0771 -0.4559
34399SOL     OW 5828   0.642   8.612   6.931  0.3909  0.2603  0.0565
34399SOL    HW1 5829   0.546   8.615   6.933  0.3971  4.0542  0.6822
34399SOL    HW2 5830   0.666   8.561   7.008 -1.1239  1.2444  1.2342
34400SOL     OW 5831   9.682   1.358   0.861  0.2657  0.4126 -0.2019
34400SOL    HW1 5832   9.755   1.297   0.848  0.9793  1.6615 -2.7723
34400SOL    HW2 5833   9.607   1.302   0.881  1.5312 -1.0470  0.6579
34401SOL     OW 5834   7.847   3.149   7.261  0.2364 -0.1106 -0.1544
34401SOL    HW1 5835   7.921   3.209   7.265 -1.2540  1.7921  0.2902
34401SOL    HW2 5836   7.832   3.123   7.352  0.3180 -0.4525 -0.2369
34402SOL     OW 5837   0.694   2.528   7.435 -0.2812  0.2301 -0.3136
34402SOL    HW1 5838   0.761   2.597   7.442 -0.9562  1.0330 -1.3454
34402SOL    HW2 5839   0.615   2.575   7.409 -0.9201 -0.8712 -0.3928
34403SOL     OW 5840   7.671   3.845   6.617 -0.0989 -0.2080  0.0444
34403SOL    HW1 5841   7.665   3.853   6.522  2.1564  1.2624 -0.0398
34403SOL    HW2 5842   7.639   3.757   6.636  1.6811 -1.4587 -2.3310
34404SOL     OW 5843   5.090   7.941   8.865 -0.3640  0.1984 -0.5324
34404SOL    HW1 5844   5.102   7.884   8.942  0.6957  0.1284 -0.7251
34404SOL    HW2 5845   5.012   7.992   8.884 -1.7868 -1.8155 -0.6529
34405SOL     OW 5846   0.896   7.605   6.736  0.1343 -0.1124  0.2815
34405SOL    HW1 5847   0.864   7.524   6.695 -0.5674  0.1020  0.3882
34405SOL    HW2 5848   0.934   7.577   6.819 -0.1828 -0.3255  0.3562
34406SOL     OW 5849   0.457   5.061   6.156  0.3483 -0.4792  0.1759
34406SOL    HW1 5850   0.531   5.011   6.122  0.8779 -1.0665  2.0776
34406SOL    HW2 5851   0.383   5.000   6.152  0.3805 -0.5067 -0.0099
34407SOL     OW 5852   7.280   4.381   0.226 -0.0432  0.5738  0.5312
34407SOL    HW1 5853   7.350   4.433   0.266  0.5190 -0.1446  0.5249
34407SOL    HW2 5854   7.274   4.414   0.137  0.1908  0.7495  0.5778
34408SOL     OW 5855   9.138   3.504   1.526 -0.2934 -0.3143 -0.0298
34408SOL    HW1 5856   9.082   3.557   1.469  0.9043  0.3620 -0.6284
34408SOL    HW2 5857   9.088   3.495   1.608 -1.7566 -0.7471 -0.9321
34409SOL     OW 5858   2.828   5.222   2.545  0.2207 -0.5153  0.1781
34409SOL    HW1 5859   2.870   5.154   2.491  0.8175  0.4499 -0.6075
34409SOL    HW2 5860   2.782   5.173   2.613 -0.6525 -1.7973 -1.2549
34410SOL     OW 5861   2.613   7.311   3.851 -0.2808  0.1199  0.2058
34410SOL    HW1 5862   2.544   7.249   3.829 -1.3527  1.2397  0.2902
34410SOL    HW2 5863   2.675   7.304   3.779  0.3044 -1.9463  0.8325
34411SOL     OW 5864   7.328   1.117   7.862  0.0675  0.1314  0.1916
34411SOL    HW1 5865   7.346   1.026   7.838 -0.1182  0.7210 -2.4587
34411SOL    HW2 5866   7.276   1.152   7.789  0.7963  2.5926  0.7473
34412SOL     OW 5867   1.835   7.763   6.145  0.2045 -0.4611 -0.1187
34412SOL    HW1 5868   1.915   7.806   6.113 -0.6412  0.4193 -1.1213
34412SOL    HW2 5869   1.867   7.682   6.185  1.5747 -0.3043 -0.8071
34413SOL     OW 5870   3.355   4.171   6.327 -0.1993  0.4688 -0.0579
34413SOL    HW1 5871   3.436   4.135   6.291  0.9313  3.3113 -0.6270
34413SOL    HW2 5872   3.305   4.198   6.250 -1.2171 -0.2570  0.3291
34414SOL     OW 5873  10.048   9.550   4.255 -0.2270 -0.0040  0.1912
34414SOL    HW1 5874  10.023   9.620   4.314  1.4234 -0.2587  1.2584
34414SOL    HW2 5875  10.059   9.473   4.311  2.2428 -0.0491 -0.2258
34415SOL     OW 5876   7.410   2.396   0.682  0.2666 -0.2723  0.2761
34415SOL    HW1 5877   7.452   2.347   0.611 -1.1571 -1.2067  0.0435
34415SOL    HW2 5878   7.448   2.359   0.762  1.3508  0.2924  0.0397
34416SOL     OW 5879   3.660   7.205   4.096 -0.9185  0.3866  0.0403
34416SOL    HW1 5880   3.621   7.232   4.013 -0.2361  0.5480 -0.2338
34416SOL    HW2 5881   3.717   7.277   4.120  0.8981 -0.7302 -0.6734
34417SOL     OW 5882   8.519   6.015   2.522  0.7543  0.5505 -0.3772
34417SOL    HW1 5883   8.562   5.957   2.459  1.4037 -1.9384  2.1753
34417SOL    HW2 5884   8.585   6.083   2.540  1.5952 -0.2259 -0.4451
34418SOL     OW 5885   2.875   7.022   3.612  0.4769 -0.1417 -0.0834
34418SOL    HW1 5886   2.936   6.951   3.634  1.7109  0.5557 -1.1123
34418SOL    HW2 5887   2.790   6.978   3.603  1.0043 -1.3113  0.3602
34419SOL     OW 5888   8.759   4.466   3.611 -0.3858  1.0042  0.2370
34419SOL    HW1 5889   8.670   4.437   3.594 -0.0270 -0.0605  0.1045
34419SOL    HW2 5890   8.810   4.433   3.537  0.3776  0.2599  1.0593
34420SOL     OW 5891   3.273   5.291   0.159 -0.7269  0.2373 -0.3173
34420SOL    HW1 5892   3.264   5.373   0.112 -1.8972 -0.6290 -1.7096
34420SOL    HW2 5893   3.359   5.257   0.131 -2.1287 -1.1449 -3.4833
34421SOL     OW 5894   6.031   4.076   8.158 -0.2512  0.4592 -0.0637
34421SOL    HW1 5895   6.098   4.025   8.112  0.4241  0.2110  1.1523
34421SOL    HW2 5896   6.080   4.132   8.218 -1.1367 -0.2147  1.3378
34422SOL     OW 5897  10.333   5.468   0.648  0.0969 -0.2664  0.3782
34422SOL    HW1 5898  10.381   5.528   0.592  1.0195  0.1179  1.5326
34422SOL    HW2 5899  10.274   5.524   0.699 -1.6965 -0.7362 -1.0702
34423SOL     OW 5900   9.689   8.759   3.000 -0.3088  0.0338 -0.1593
34423SOL    HW1 5901   9.761   8.697   2.991  0.1022  0.3300  0.8915
34423SOL    HW2 5902   9.733   8.844   3.013 -0.8520  0.3316 -0.2473
34424SOL     OW 5903   3.339   7.935   1.198  0.9060  0.4248  0.4452
34424SOL    HW1 5904   3.319   7.945   1.291  2.7660  0.1232  0.9245
34424SOL    HW2 5905   3.277   7.870   1.167 -0.9908  1.8964  0.9930
34425SOL     OW 5906   5.584   4.162   0.656 -0.0300 -0.2010 -0.1792
34425SOL    HW1 5907   5.559   4.077   0.692  0.5657 -0.8258 -1.1648
34425SOL    HW2 5908   5.677   4.152   0.635 -0.1414  0.4327 -1.0145
34426SOL     OW 5909   3.836   5.250   3.513 -0.2863  0.1626 -0.3944
34426SOL    HW1 5910   3.843   5.325   3.572 -2.5043  0.8767 -0.9439
34426SOL    HW2 5911   3.817   5.288   3.427 -0.0227 -0.9804 -0.9831
34427SOL     OW 5912   0.119   7.962   2.593 -0.2177 -0.1239 -0.4820
34427SOL    HW1 5913   0.123   7.988   2.685 -0.6458  0.3162 -0.5835
34427SOL    HW2 5914   0.199   7.999   2.555  1.0467 -2.0629  0.1278
34428SOL     OW 5915   9.550   4.228   6.782  1.1480 -0.0732 -0.2702
34428SOL    HW1 5916   9.456   4.215   6.769  1.1862 -1.4887  0.6710
34428SOL    HW2 5917   9.591   4.157   6.732  1.6257 -0.4398  0.6151
34429SOL     OW 5918  10.151   0.089   8.235  0.4794  0.0019 -0.7662
34429SOL    HW1 5919  10.229   0.145   8.237  0.3151  0.3215 -2.0021
34429SOL    HW2 5920  10.142   0.056   8.324  1.8075  0.2637 -0.5173
34430SOL     OW 5921   1.961   0.099   5.091 -0.3853 -0.1006 -0.0656
34430SOL    HW1 5922   2.049   0.101   5.129 -0.5147 -1.3294  0.3476
34430SOL    HW2 5923   1.970   0.043   5.014 -1.0377 -1.3077  0.6913
34431SOL     OW 5924   0.596   8.601   0.891  0.3567  0.1998 -0.6315
34431SOL    HW1 5925   0.541   8.665   0.936  1.0023  0.1136  0.3116
34431SOL    HW2 5926   0.548   8.580   0.811 -1.0824 -0.0294  0.2486
34432SOL     OW 5927   2.472   5.761   0.711  0.0010 -0.1121 -0.3328
34432SOL    HW1 5928   2.489   5.747   0.804 -2.0177  0.4512  0.1610
34432SOL    HW2 5929   2.389   5.808   0.708  0.3671  0.5261 -2.4026
34433SOL     OW 5930   3.355   4.727   3.642  0.2374 -0.0482 -0.5907
34433SOL    HW1 5931   3.386   4.653   3.694  0.5486 -0.6110 -1.5736
34433SOL    HW2 5932   3.267   4.702   3.613 -0.7326  1.0392  1.1651
34434SOL     OW 5933   9.470   1.496   4.865  0.4622 -0.0458 -0.2010
34434SOL    HW1 5934   9.531   1.425   4.887 -1.2462 -0.9693  1.8763
34434SOL    HW2 5935   9.481   1.559   4.936 -1.1921 -0.3809  0.3770
34435SOL     OW 5936   9.861   4.634   3.866  0.0917  0.0730 -0.1910
34435SOL    HW1 5937   9.809   4.632   3.785 -0.0767 -0.5039 -0.0728
34435SOL    HW2 5938   9.939   4.685   3.843  0.3236 -0.5847 -0.8905
34436SOL     OW 5939   0.576   3.835   4.232  0.3090  0.3895  0.0109
34436SOL    HW1 5940   0.589   3.930   4.228  1.5243  0.2115 -0.6489
34436SOL    HW2 5941   0.516   3.823   4.306  0.4915  1.6338  0.3933
34437SOL     OW 5942   0.923   3.450   5.258  0.5166  0.1906 -0.0641
34437SOL    HW1 5943   0.849   3.417   5.310 -0.4024  1.5203 -0.4849
34437SOL    HW2 5944   0.962   3.371   5.220  0.5415 -0.7155  1.7345
34438SOL     OW 5945   3.891   6.314   1.695  0.7337 -0.3291  0.2726
34438SOL    HW1 5946   3.807   6.318   1.740 -0.8557 -2.2241 -2.2532
34438SOL    HW2 5947   3.893   6.391   1.640 -0.0667 -0.9966 -0.7243
34439SOL     OW 5948   5.294   4.088   4.107  0.6725  0.0647  0.1930
34439SOL    HW1 5949   5.216   4.056   4.062  0.9196  2.1811 -1.9142
34439SOL    HW2 5950   5.312   4.021   4.173 -2.6190 -0.7224  0.4792
34440SOL     OW 5951   5.968   6.137   9.173  0.0149  0.1233  0.1437
34440SOL    HW1 5952   6.062   6.123   9.164 -0.2229 -1.3792 -0.4140
34440SOL    HW2 5953   5.934   6.121   9.085 -0.7183  1.1749  0.2178
34441SOL     OW 5954   4.610   2.904   4.171  0.7200 -0.4356 -0.2714
34441SOL    HW1 5955   4.519   2.922   4.148  0.5368  0.4091  1.0314
34441SOL    HW2 5956   4.610   2.812   4.198 -0.1087 -0.0006  1.3242
34442SOL     OW 5957   4.658   4.495   4.900  0.5531 -0.2640 -0.0629
34442SOL    HW1 5958   4.730   4.503   4.837  0.6796  1.1643  0.2394
34442SOL    HW2 5959   4.700   4.498   4.986  0.2049 -0.3348  0.1135
34443SOL     OW 5960  10.003   9.531   5.872  0.0543  0.5160  0.7132
34443SOL    HW1 5961  10.027   9.612   5.917  0.6228 -0.1915  1.7192
34443SOL    HW2 5962  10.070   9.468   5.900 -0.7526 -0.4727  0.4516
34444SOL     OW 5963   6.161   8.559   6.516  0.2959 -0.0421 -0.0876
34444SOL    HW1 5964   6.085   8.501   6.508  0.6771 -0.4809 -0.6620
34444SOL    HW2 5965   6.140   8.616   6.589  0.3678 -1.6342  1.2484
34445SOL     OW 5966   6.821   3.064   4.202 -0.0167  0.5469  0.6015
34445SOL    HW1 5967   6.910   3.054   4.235 -0.3782  0.2332  1.5032
34445SOL    HW2 5968   6.765   3.023   4.268 -0.7185 -0.8066 -0.7478
34446SOL     OW 5969   1.552   5.553   3.467 -0.1269 -0.1621 -0.5085
34446SOL    HW1 5970   1.641   5.540   3.502 -0.2540  0.9530  0.2463
34446SOL    HW2 5971   1.507   5.471   3.488  0.4258 -0.3393  0.0406
34447SOL     OW 5972   8.721  10.208  10.236  0.1739 -0.2497  0.0010
34447SOL    HW1 5973   8.669  10.172  10.309 -1.0703 -0.3945 -0.9138
34447SOL    HW2 5974   8.801  10.156  10.236 -0.3121 -1.0303  0.5574
34448SOL     OW 5975   4.395   6.640   8.216 -0.0248  0.2196  0.3576
34448SOL    HW1 5976   4.299   6.634   8.221 -0.2102 -0.1253 -2.3127
34448SOL    HW2 5977   4.413   6.732   8.237 -1.1495  0.7866 -0.9814
34449SOL     OW 5978   8.902   4.198   6.436 -0.2585 -0.5924  0.3631
34449SOL    HW1 5979   8.814   4.176   6.406  0.7606 -0.3185 -3.2580
34449SOL    HW2 5980   8.946   4.113   6.444 -0.5680 -0.6747  1.4172
34450SOL     OW 5981   0.305   8.700   9.973 -0.1352 -0.0937  0.1722
34450SOL    HW1 5982   0.240   8.752   9.926  0.2384 -1.0553 -1.4970
34450SOL    HW2 5983   0.389   8.728   9.936  0.3068  0.1991  1.3632
34451SOL     OW 5984   7.558   3.971   6.142 -0.1259  0.0693 -0.0017
34451SOL    HW1 5985   7.648   3.949   6.118 -0.0493  0.9428 -0.5139
34451SOL    HW2 5986   7.513   3.986   6.059 -0.1871  1.7899  0.3078
34452SOL     OW 5987   8.069   8.809   6.981 -0.1206  0.3802  0.1043
34452SOL    HW1 5988   8.095   8.846   7.066 -0.5344  0.3706  0.2384
34452SOL    HW2 5989   8.121   8.856   6.917  0.6070  0.0051  0.4037
34453SOL     OW 5990   0.180   2.292   2.805 -0.9272 -0.1364  0.4497
34453SOL    HW1 5991   0.124   2.294   2.727  0.0998 -0.9594 -0.3335
34453SOL    HW2 5992   0.254   2.348   2.782 -0.7379 -0.1922  0.9317
34454SOL     OW 5993   3.392   1.968   7.836 -0.4625 -0.6504 -0.1786
34454SOL    HW1 5994   3.383   1.874   7.819 -3.3411 -0.8175  1.5845
34454SOL    HW2 5995   3.484   1.979   7.858  0.3973 -2.6635 -2.3049
34455SOL     OW 5996   1.498   9.988   2.624  0.3486  0.6318  0.0178
34455SOL    HW1 5997   1.572   9.928   2.628 -0.2615 -0.4500 -2.6786
34455SOL    HW2 5998   1.425   9.934   2.594 -0.8035  2.2625 -0.2463
34456SOL     OW 5999   4.331   6.503   8.484 -0.4958  0.3113 -0.1751
34456SOL    HW1 6000   4.407   6.548   8.447 -0.2790  0.9251  0.9669
34456SOL    HW2 6001   4.258   6.532   8.430 -0.1931  1.2422 -0.1064
34457SOL     OW 6002   7.990   8.257   7.394  0.0442 -0.4100 -0.1212
34457SOL    HW1 6003   7.968   8.165   7.382 -0.7065 -0.2364 -0.0822
34457SOL    HW2 6004   8.023   8.286   7.309  1.0803 -0.9210  0.0850
34458SOL     OW 6005   3.559   4.837   4.826  0.0455  0.2240 -0.5058
34458SOL    HW1 6006   3.645   4.866   4.856  0.6918 -3.1678  1.5350
34458SOL    HW2 6007   3.577   4.790   4.744 -0.2940  1.6392 -1.4115
34459SOL     OW 6008   3.062   4.631   1.750  0.0110 -0.1275 -0.0067
34459SOL    HW1 6009   3.085   4.724   1.747  2.3230 -0.6339  0.0041
34459SOL    HW2 6010   3.002   4.623   1.824 -0.3296  1.3670 -0.0896
34460SOL     OW 6011   2.102   4.976   3.883 -0.5605  0.3447 -0.7810
34460SOL    HW1 6012   2.070   5.059   3.919 -1.9795 -0.4740 -0.0839
34460SOL    HW2 6013   2.078   4.910   3.948  1.1225 -0.5497 -1.0180
34461SOL     OW 6014   8.218   3.945   4.493 -0.0834 -0.3291 -0.1439
34461SOL    HW1 6015   8.303   3.986   4.474  0.3927 -0.8792  0.7273
34461SOL    HW2 6016   8.187   3.914   4.408  0.5021  0.0386 -0.5004
34462SOL     OW 6017   5.115   2.779   3.822  0.5514  0.3743  0.0685
34462SOL    HW1 6018   5.048   2.755   3.758  1.1879  0.1933 -0.5419
34462SOL    HW2 6019   5.128   2.700   3.874  1.9050 -0.3401 -1.2783
34463SOL     OW 6020   4.923   9.472   8.894 -0.0623  0.1975 -0.2360
34463SOL    HW1 6021   4.901   9.492   8.803 -1.1268 -1.9618 -0.5169
34463SOL    HW2 6022   4.955   9.382   8.892  0.9010  0.4700  1.3949
34464SOL     OW 6023   3.030   6.927   0.199 -0.3123 -0.2579  0.1560
34464SOL    HW1 6024   3.092   6.997   0.179 -0.9057  0.5937  1.1833
34464SOL    HW2 6025   3.051   6.858   0.136  0.6703  0.6054 -0.5044
34465SOL     OW 6026   7.643   0.060   8.657 -0.4282 -0.3330  0.0454
34465SOL    HW1 6027   7.668   0.084   8.568 -1.1930  0.5461  0.0538
34465SOL    HW2 6028   7.557   0.099   8.669 -0.3635 -0.5039  1.1497
34466SOL     OW 6029   5.045   4.044   8.348 -0.2653  0.4199  0.4476
34466SOL    HW1 6030   4.997   4.084   8.420  0.4525 -1.1566  1.8913
34466SOL    HW2 6031   5.136   4.069   8.363  0.0030 -0.6126  0.5964
34467SOL     OW 6032   3.030   4.081   7.987 -0.0643  0.0684 -0.0132
34467SOL    HW1 6033   3.024   4.003   8.041 -1.0398  0.8978  1.1315
34467SOL    HW2 6034   3.092   4.138   8.033 -0.8743  0.7715  0.2336
34468SOL     OW 6035   9.710   6.132   2.776  0.1358 -0.4298 -0.3168
34468SOL    HW1 6036   9.795   6.156   2.739 -0.6690 -0.1442 -2.0868
34468SOL    HW2 6037   9.694   6.197   2.845  1.0082 -0.0501 -0.4595
34469SOL     OW 6038   5.504   7.795   0.471 -0.1561  0.1308  0.6401
34469SOL    HW1 6039   5.541   7.796   0.382 -0.2348 -0.4155  0.5972
34469SOL    HW2 6040   5.563   7.851   0.522  0.1282  0.1139  0.3332
34470SOL     OW 6041  10.148   7.469   4.780  0.2213  0.1588 -0.3379
34470SOL    HW1 6042  10.091   7.456   4.855  1.4198 -0.8065  0.4377
34470SOL    HW2 6043  10.090   7.459   4.704 -1.0894  1.5966  0.4314
34471SOL     OW 6044   0.668   7.478   0.062  0.6071  0.1157  0.7761
34471SOL    HW1 6045   0.605   7.549   0.065 -1.0125 -1.1476 -1.1094
34471SOL    HW2 6046   0.656   7.432   0.146 -1.1142 -0.1748  0.4008
34472SOL     OW 6047   7.950   4.727   7.603  0.0120  0.6596 -0.1570
34472SOL    HW1 6048   8.010   4.788   7.644  0.1837 -0.6527  1.6884
34472SOL    HW2 6049   7.897   4.780   7.544  0.0899  2.5983  1.4320
34473SOL     OW 6050   5.215   3.965   0.117  0.3008  0.0022  0.3381
34473SOL    HW1 6051   5.301   3.994   0.147  0.7204  1.0871 -1.7072
34473SOL    HW2 6052   5.232   3.924   0.032 -1.1066 -0.4748  0.2553
34474SOL     OW 6053   1.364   0.008   8.124  0.4228 -0.1348 -0.1248
34474SOL    HW1 6054   1.376  -0.065   8.184  1.7270 -1.3470 -1.7644
34474SOL    HW2 6055   1.450   0.052   8.121  0.2598  0.1641 -0.7511
34475SOL     OW 6056   0.188   1.116   4.979 -0.7722 -0.3791  0.2111
34475SOL    HW1 6057   0.129   1.057   5.026 -1.8592  0.0565 -0.5866
34475SOL    HW2 6058   0.155   1.118   4.890 -1.1238  1.8686  0.3342
34476SOL     OW 6059   5.502   8.416   7.723 -0.4400 -0.4912 -0.0876
34476SOL    HW1 6060   5.437   8.479   7.757 -0.1433  0.2343 -0.8262
34476SOL    HW2 6061   5.535   8.457   7.644  0.7464 -0.9790  0.1412
34477SOL     OW 6062   5.388   0.171   7.708  0.0647  0.3664  0.1160
34477SOL    HW1 6063   5.343   0.133   7.784 -0.4842  0.3765 -0.1966
34477SOL    HW2 6064   5.318   0.209   7.655  0.4746  0.6418 -0.2403
34478SOL     OW 6065   6.026   6.376   8.776  0.4974 -0.3671 -0.0322
34478SOL    HW1 6066   6.087   6.406   8.844 -0.0985  0.5784  0.1045
34478SOL    HW2 6067   6.064   6.294   8.745  2.3949  0.6613 -0.6435
34479SOL     OW 6068   9.570   0.653   8.147 -0.4548 -0.1248  0.3113
34479SOL    HW1 6069   9.568   0.649   8.051 -1.6604 -2.2204  0.3576
34479SOL    HW2 6070   9.494   0.707   8.170 -0.6708 -0.3340  0.0986
34480SOL     OW 6071   0.890  10.112   6.286 -0.3651  0.0580 -0.0038
34480SOL    HW1 6072   0.860  10.043   6.345  1.4744  2.0986  3.6895
34480SOL    HW2 6073   0.968  10.075   6.244 -2.3471 -1.8436 -2.3189
34481SOL     OW 6074   5.826   3.179   0.881  0.1277  0.0829 -0.0576
34481SOL    HW1 6075   5.776   3.244   0.930 -0.0155  0.5253 -0.7652
34481SOL    HW2 6076   5.889   3.231   0.830  0.3726 -0.3727 -0.2278
34482SOL     OW 6077   0.395   2.778   9.370  0.3902 -0.1841  0.5837
34482SOL    HW1 6078   0.393   2.683   9.360 -1.3873 -0.0759 -0.4995
34482SOL    HW2 6079   0.303   2.804   9.372  0.8335  1.6239 -0.4678
34483SOL     OW 6080   0.907   4.023   5.625 -0.6073 -0.0508 -0.1426
34483SOL    HW1 6081   0.885   4.009   5.717 -0.1952 -0.9796 -0.1766
34483SOL    HW2 6082   0.862   3.952   5.578  0.8469 -0.8348 -0.4191
34484SOL     OW 6083   5.272   5.212   2.147 -0.0271  0.3814  0.0277
34484SOL    HW1 6084   5.288   5.138   2.088  3.1292  0.2396  0.8657
34484SOL    HW2 6085   5.334   5.199   2.219 -1.8632  1.9851  2.0578
34485SOL     OW 6086   7.853   3.411   6.083 -0.5519  0.3547  0.2747
34485SOL    HW1 6087   7.859   3.460   6.165 -0.6907  1.3536 -0.3006
34485SOL    HW2 6088   7.822   3.325   6.110 -0.9687  0.7827  1.2342
34486SOL     OW 6089   9.939   7.648   7.764 -0.2198 -0.5660  0.3255
34486SOL    HW1 6090   9.942   7.617   7.854 -1.3617 -0.1054  0.5343
34486SOL    HW2 6091   9.867   7.712   7.762 -0.8294 -1.2390 -1.1087
34487SOL     OW 6092   2.197   5.857   6.252  0.1796 -0.4394  0.1775
34487SOL    HW1 6093   2.166   5.767   6.249 -0.7332 -0.1588  0.6370
34487SOL    HW2 6094   2.152   5.895   6.328  0.5028  0.4133 -0.0466
34488SOL     OW 6095   7.138   6.599   1.602  0.2828  0.0821  0.3757
34488SOL    HW1 6096   7.120   6.662   1.671 -1.0228 -1.0708  1.1331
34488SOL    HW2 6097   7.124   6.514   1.643  0.5133 -0.6542 -1.0243
34489SOL     OW 6098   2.470   8.613   3.975  0.3411 -0.0636 -0.0229
34489SOL    HW1 6099   2.423   8.602   3.893  1.5642 -0.5395 -0.6952
34489SOL    HW2 6100   2.431   8.549   4.034  0.5964 -0.9470 -0.7864
34490SOL     OW 6101   8.374   9.562   9.647  0.1108 -0.2699 -0.0950
34490SOL    HW1 6102   8.445   9.518   9.601 -0.5691 -0.2426 -1.1981
34490SOL    HW2 6103   8.393   9.655   9.636 -0.2114 -0.2623 -0.5610
34491SOL     OW 6104   2.290   0.646   2.168  0.0541 -0.8384 -0.1466
34491SOL    HW1 6105   2.328   0.563   2.196  0.3024 -0.9373 -0.7709
34491SOL    HW2 6106   2.219   0.622   2.109  1.5488 -0.6002 -2.1443
34492SOL     OW 6107   7.535   7.931   0.705 -0.1589 -0.0318 -0.0073
34492SOL    HW1 6108   7.621   7.960   0.736  0.4053 -2.3243  0.7856
34492SOL    HW2 6109   7.519   7.983   0.626  1.3810  1.3064  0.5080
34493SOL     OW 6110   9.021   9.982   9.850  0.0273 -0.0137 -0.2561
34493SOL    HW1 6111   8.950   9.920   9.835 -0.1609  0.4934 -1.5975
34493SOL    HW2 6112   9.023  10.036   9.771  0.9458  0.9365  0.3886
34494SOL     OW 6113   7.032   8.027   1.260 -0.4573 -0.3838  0.2391
34494SOL    HW1 6114   7.075   7.957   1.210  1.1983  0.2401  0.7285
34494SOL    HW2 6115   6.956   7.985   1.300 -1.0104 -1.2427 -1.6139
34495SOL     OW 6116   2.020   8.996   2.362 -0.1271 -0.0901 -0.2540
34495SOL    HW1 6117   2.071   8.993   2.443 -0.6022 -2.4301  0.0189
34495SOL    HW2 6118   2.003   9.089   2.348  3.4940  0.7941  0.0648
34496SOL     OW 6119   3.029   0.522   7.006  0.2279  0.3664 -0.0028
34496SOL    HW1 6120   3.061   0.475   7.083  0.5907  1.7328  0.7136
34496SOL    HW2 6121   3.088   0.597   6.998 -1.5547  1.8335  0.1304
34497SOL     OW 6122   5.746   7.104   3.469  0.2654 -0.0054  0.2117
34497SOL    HW1 6123   5.831   7.131   3.505  1.4690 -2.0675 -0.8933
34497SOL    HW2 6124   5.768   7.052   3.392 -2.0653  0.0829 -0.5972
34498SOL     OW 6125   0.077   9.411   1.920 -0.2441 -0.2139 -0.6964
34498SOL    HW1 6126   0.017   9.348   1.960 -0.8477  0.2740 -0.8177
34498SOL    HW2 6127   0.160   9.398   1.967 -0.3085 -1.2035 -0.8349
34499SOL     OW 6128   4.234   5.245   0.143 -0.8358  0.0078  0.1372
34499SOL    HW1 6129   4.239   5.163   0.193 -0.1824 -1.1437 -1.6967
34499SOL    HW2 6130   4.324   5.277   0.140 -0.9384  0.2894  0.0774
34500SOL     OW 6131   5.917   4.974   4.298  0.0414  0.7293 -0.2149
34500SOL    HW1 6132   5.985   4.991   4.233  0.5671 -3.5108 -1.0072
34500SOL    HW2 6133   5.845   4.935   4.248 -0.9110  0.4003  1.3384
34501SOL     OW 6134   7.685   7.820   5.440  0.2483 -0.2541  0.4232
34501SOL    HW1 6135   7.599   7.847   5.473 -0.0394 -0.4745 -0.1452
34501SOL    HW2 6136   7.696   7.870   5.359 -0.2351 -1.7253 -0.5770
34502SOL     OW 6137   1.613   1.445   5.423  0.8172  0.0409  0.0030
34502SOL    HW1 6138   1.619   1.508   5.351  1.4784 -1.0433 -0.9287
34502SOL    HW2 6139   1.689   1.465   5.478  3.1108 -2.0679 -2.1407
34503SOL     OW 6140   8.669   0.978  10.344 -0.8434 -0.0340 -0.0698
34503SOL    HW1 6141   8.717   1.060  10.345 -1.6205  0.4268  0.1339
34503SOL    HW2 6142   8.731   0.914  10.307 -0.0937  0.5399  0.1747
34504SOL     OW 6143   2.183   0.888   1.302 -1.0278 -1.0205  0.7597
34504SOL    HW1 6144   2.262   0.844   1.271 -0.8085  0.2941 -0.6177
34504SOL    HW2 6145   2.212   0.941   1.376 -0.8261 -1.3068  0.8876
34505SOL     OW 6146   6.653   1.706   7.163 -1.1096 -0.0271 -0.3757
34505SOL    HW1 6147   6.744   1.706   7.195 -0.7646  0.9996 -1.2969
34505SOL    HW2 6148   6.649   1.628   7.107 -0.9811 -0.4164  0.1447
34506SOL     OW 6149   3.396   8.310   0.604 -0.2252  0.6248 -0.1922
34506SOL    HW1 6150   3.334   8.276   0.539 -0.3243  0.1498  0.1428
34506SOL    HW2 6151   3.368   8.270   0.686 -1.3070  2.6987  0.5241
34507SOL     OW 6152   0.614   8.632  10.351 -0.4474 -0.0309  0.3418
34507SOL    HW1 6153   0.612   8.644  10.446 -0.0521  0.2398  0.3176
34507SOL    HW2 6154   0.524   8.645  10.324 -0.8008 -1.3202  0.8253
34508SOL     OW 6155   6.445   0.740   5.234 -0.1572  0.0020  0.2434
34508SOL    HW1 6156   6.487   0.739   5.149  0.8801  2.9658  0.6221
34508SOL    HW2 6157   6.394   0.821   5.235 -0.2663 -0.0343  2.3523
34509SOL     OW 6158   1.394   2.317   4.183  0.3905 -0.2612  0.1388
34509SOL    HW1 6159   1.479   2.304   4.141  1.0274  1.8371  0.6432
34509SOL    HW2 6160   1.332   2.325   4.110  0.7883 -0.7930 -0.2613
34510SOL     OW 6161  10.231   4.839   0.942 -0.5527 -0.3377 -0.0738
34510SOL    HW1 6162  10.199   4.818   1.030 -0.7012  1.5614  0.3701
34510SOL    HW2 6163  10.177   4.912   0.914  0.3074 -0.1296 -1.2551
34511SOL     OW 6164   1.102   3.011   1.150  0.2137  0.4602  0.2557
34511SOL    HW1 6165   1.088   2.943   1.084 -2.1032  1.7386 -0.6913
34511SOL    HW2 6166   1.194   3.002   1.174  0.6326 -1.3333 -1.6939
34512SOL     OW 6167   8.193   8.934   1.166 -0.3969  0.1151  0.1149
34512SOL    HW1 6168   8.121   8.963   1.223 -1.0159 -2.9079  1.0248
34512SOL    HW2 6169   8.270   8.935   1.223 -0.0466  1.5645 -0.3487
34513SOL     OW 6170   1.016   9.740   0.405  0.5736 -0.2086 -0.5334
34513SOL    HW1 6171   1.052   9.656   0.433  0.5119  0.6723  2.6150
34513SOL    HW2 6172   1.055   9.757   0.320  1.7626 -2.7092 -0.5556
34514SOL     OW 6173   8.492   0.904   2.255 -0.1075  0.5995 -0.3477
34514SOL    HW1 6174   8.402   0.904   2.222 -0.6305  2.3243  0.9601
34514SOL    HW2 6175   8.545   0.924   2.178 -0.7678 -0.9022 -1.2312
34515SOL     OW 6176   8.299   8.320   5.673 -0.2761  0.0229 -0.6268
34515SOL    HW1 6177   8.337   8.358   5.594  0.2049 -1.5871 -1.2098
34515SOL    HW2 6178   8.214   8.364   5.683  0.4388  1.5573 -0.9747
34516SOL     OW 6179   4.053   1.707   3.400 -0.0406 -0.1528  0.4083
34516SOL    HW1 6180   4.101   1.627   3.423  0.6647  0.3982  0.9123
34516SOL    HW2 6181   4.100   1.743   3.324 -0.9128 -0.6875 -0.4134
34517SOL     OW 6182   1.855   0.417   2.345 -0.4095 -0.0743 -0.8187
34517SOL    HW1 6183   1.840   0.327   2.372 -0.4087  0.1736  0.0381
34517SOL    HW2 6184   1.942   0.416   2.304  0.3643 -0.1510  0.7613
34518SOL     OW 6185   3.956   1.285   9.980  0.5227  0.5769 -0.1022
34518SOL    HW1 6186   3.997   1.267   9.895  1.7273  0.9874  0.3762
34518SOL    HW2 6187   3.922   1.374   9.972 -1.7594 -0.2886 -1.0369
34519SOL     OW 6188   0.966   6.253   8.308  0.0257  0.4329 -0.3026
34519SOL    HW1 6189   0.873   6.240   8.328 -0.3322  1.9497 -0.9101
34519SOL    HW2 6190   0.983   6.196   8.233 -0.2096 -0.4016  0.2576
34520SOL     OW 6191   3.395   6.234   5.040 -0.9384 -0.0674  0.4952
34520SOL    HW1 6192   3.454   6.162   5.019 -0.2398  0.3276  1.0391
34520SOL    HW2 6193   3.408   6.298   4.970 -1.2940 -0.3201  0.2014
34521SOL     OW 6194   6.466  10.069   7.848 -1.0602 -0.5071  0.0331
34521SOL    HW1 6195   6.422  10.035   7.926 -0.8483  0.6876  0.6927
34521SOL    HW2 6196   6.555  10.087   7.876 -1.7853  3.0706  0.5444
34522SOL     OW 6197  10.086   5.274   0.786 -0.0757  0.0654 -0.0285
34522SOL    HW1 6198  10.167   5.223   0.785 -1.6283 -2.6165 -0.9529
34522SOL    HW2 6199  10.079   5.310   0.698 -0.4235 -0.7116 -0.3319
34523SOL     OW 6200   8.401   5.631   3.643  0.5002 -0.1753  0.0162
34523SOL    HW1 6201   8.383   5.585   3.725 -1.8177  0.0594 -0.2838
34523SOL    HW2 6202   8.435   5.716   3.670  0.1642 -0.2617  0.7357
34524SOL     OW 6203   9.134   3.728   6.488 -0.7339  0.1360  0.1329
34524SOL    HW1 6204   9.087   3.650   6.519 -0.4074 -0.3411 -0.5336
34524SOL    HW2 6205   9.177   3.699   6.408  0.4128  0.6712  0.5419
34525SOL     OW 6206   5.346   3.018   2.958 -0.4058 -0.4288  0.4610
34525SOL    HW1 6207   5.406   2.971   2.899 -0.0616 -0.9019  1.1700
34525SOL    HW2 6208   5.403   3.052   3.028 -0.5374  1.6652 -0.3717
34526SOL     OW 6209   7.778   7.455   3.557  0.3546 -0.1781 -0.5991
34526SOL    HW1 6210   7.762   7.514   3.484 -1.2685 -0.8458 -0.8375
34526SOL    HW2 6211   7.694   7.454   3.605  0.7188 -1.3915  0.0448
34527SOL     OW 6212   0.794   9.230   2.640 -0.1175 -0.5764  0.2472
34527SOL    HW1 6213   0.865   9.166   2.645  0.5137 -0.0425 -1.2318
34527SOL    HW2 6214   0.751   9.225   2.726  1.2923 -1.3848  0.9465
34528SOL     OW 6215   1.643   8.355   8.468 -0.4626 -0.4616  0.1806
34528SOL    HW1 6216   1.641   8.433   8.523  0.3107 -0.4740  0.2402
34528SOL    HW2 6217   1.645   8.281   8.529 -0.1252 -0.4919  0.1343
34529SOL     OW 6218   2.760   9.472   2.430  0.5559 -0.5704 -0.4351
34529SOL    HW1 6219   2.845   9.496   2.394  0.7507 -1.7805 -0.8246
34529SOL    HW2 6220   2.770   9.483   2.524  0.9058 -0.0057 -0.5298
34530SOL     OW 6221   8.929   4.380   8.128 -0.0392  0.9513  0.2638
34530SOL    HW1 6222   9.005   4.370   8.071  0.2783  2.2695  0.4202
34530SOL    HW2 6223   8.950   4.327   8.205 -0.5654 -1.0186 -0.8827
34531SOL     OW 6224  10.008   3.842   9.529 -0.8742 -0.0219 -0.1516
34531SOL    HW1 6225   9.980   3.856   9.620  0.2479  1.0284  0.0696
34531SOL    HW2 6226  10.022   3.748   9.522 -0.0656 -0.0119  1.0585
34532SOL     OW 6227   3.936   1.850   9.396  0.3627  0.3999 -0.7561
34532SOL    HW1 6228   3.850   1.810   9.384 -0.6987  2.2114  0.3488
34532SOL    HW2 6229   3.986   1.825   9.318 -1.2498 -0.4446 -1.5608
34533SOL     OW 6230   0.904   3.920   0.109 -0.2062 -0.3481  0.1682
34533SOL    HW1 6231   0.982   3.879   0.145  0.6079  0.4915 -0.6005
34533SOL    HW2 6232   0.892   3.880   0.023 -0.1584  0.1057 -0.0498
34534SOL     OW 6233   1.674   0.964   2.632 -0.1340 -0.0866  0.0714
34534SOL    HW1 6234   1.715   1.050   2.636 -0.6633  0.2535 -1.3633
34534SOL    HW2 6235   1.746   0.903   2.617  0.0903  0.2546 -0.2297
34535SOL     OW 6236   4.584   5.656   3.704 -0.0565 -0.6389 -0.3921
34535SOL    HW1 6237   4.594   5.735   3.651  3.9374 -0.0266  0.9863
34535SOL    HW2 6238   4.543   5.687   3.785 -0.6176 -0.4394 -0.7470
34536SOL     OW 6239   2.591   6.546   2.835 -0.1727  0.4570  0.1131
34536SOL    HW1 6240   2.651   6.474   2.814  0.2013  0.8538 -0.1968
34536SOL    HW2 6241   2.582   6.543   2.930 -0.1527  0.0051  0.1024
34537SOL     OW 6242   7.661   5.045   3.185  0.2257 -0.2078  0.5002
34537SOL    HW1 6243   7.620   5.118   3.231  1.3342  1.7564 -1.4462
34537SOL    HW2 6244   7.677   4.979   3.253 -0.6696  1.3996  2.3518
34538SOL     OW 6245  10.068   3.768   3.248 -0.1007 -0.5559  0.4290
34538SOL    HW1 6246  10.135   3.720   3.297  0.4236 -1.0307 -0.6865
34538SOL    HW2 6247  10.001   3.790   3.312  1.2242  0.1246  1.6306
34539SOL     OW 6248   4.176   1.810   6.165 -0.2770  0.1741 -0.1847
34539SOL    HW1 6249   4.162   1.717   6.149 -0.5213 -0.1830  1.8317
34539SOL    HW2 6250   4.251   1.813   6.225  1.7222  1.4856 -2.5639
34540SOL     OW 6251   0.103   8.193   9.749  0.3271 -0.3205  0.0866
34540SOL    HW1 6252   0.150   8.267   9.789  0.4329 -0.9523  1.1731
34540SOL    HW2 6253   0.020   8.188   9.797  0.6710 -1.4087  0.6204
34541SOL     OW 6254   9.541   7.104   8.551 -0.1550  0.1712 -0.7983
34541SOL    HW1 6255   9.464   7.049   8.547  0.1543 -0.4064  0.6253
34541SOL    HW2 6256   9.615   7.043   8.551  0.1669  0.4550  1.7652
34542SOL     OW 6257   8.703   7.293   5.816  0.3123 -0.0001  0.2285
34542SOL    HW1 6258   8.798   7.293   5.810  0.3017 -0.5273  0.0972
34542SOL    HW2 6259   8.685   7.293   5.910  0.4402  0.7847  0.2608
34543SOL     OW 6260   9.788   0.537   7.260 -0.0724 -0.2338 -0.4602
34543SOL    HW1 6261   9.779   0.460   7.316 -2.8799  1.1842  1.2668
34543SOL    HW2 6262   9.819   0.606   7.318 -1.1021  0.7846 -1.0590
34544SOL     OW 6263   6.835   4.532   3.815  0.3026  0.0614 -0.3015
34544SOL    HW1 6264   6.781   4.532   3.735 -2.6007  0.0554  1.4940
34544SOL    HW2 6265   6.872   4.444   3.819 -2.6290 -1.2762  0.1620
34545SOL     OW 6266   8.788   2.403   2.716 -0.7620 -0.1126  0.4337
34545SOL    HW1 6267   8.753   2.450   2.792 -2.1931 -2.4036  1.3057
34545SOL    HW2 6268   8.883   2.406   2.728 -0.8797  1.2290  1.2427
34546SOL     OW 6269   2.693   6.797   6.634  0.1470 -0.2921 -0.7695
34546SOL    HW1 6270   2.635   6.817   6.708 -0.9969  0.1919 -1.7757
34546SOL    HW2 6271   2.766   6.858   6.643  0.2161 -0.4992  0.1728
34547SOL     OW 6272   0.640   8.923   8.186 -0.8571  0.2256  0.1321
34547SOL    HW1 6273   0.568   8.860   8.193 -1.3126  0.5168 -1.5467
34547SOL    HW2 6274   0.643   8.945   8.093  2.6509 -1.1874 -0.2177
34548SOL     OW 6275   5.413   4.115   3.280 -0.1878  0.0850  0.2568
34548SOL    HW1 6276   5.446   4.111   3.370 -0.9641 -0.2683  0.5314
34548SOL    HW2 6277   5.329   4.160   3.286  0.4058  1.3510 -0.4967
34549SOL     OW 6278   0.236   0.110   9.999 -0.4919  0.1658  0.0576
34549SOL    HW1 6279   0.288   0.154   9.932 -1.7915 -1.2275 -1.9904
34549SOL    HW2 6280   0.207   0.180  10.057  1.8503  1.2417  0.0502
34550SOL     OW 6281   4.441   1.009   2.395 -0.2914 -0.7311  0.5250
34550SOL    HW1 6282   4.371   1.033   2.334 -0.7545 -1.1672  0.8727
34550SOL    HW2 6283   4.397   0.955   2.461  0.4753 -1.4078  0.4855
34551SOL     OW 6284   0.375   8.149   6.852 -0.1215  0.2285  0.0723
34551SOL    HW1 6285   0.310   8.117   6.915 -0.5552 -0.5277 -0.7375
34551SOL    HW2 6286   0.379   8.081   6.785  0.3940  0.9848 -0.6845
34552SOL     OW 6287   7.290   8.089   6.735  0.2863 -0.2983 -0.6865
34552SOL    HW1 6288   7.362   8.035   6.768 -0.5894 -2.0912 -1.6033
34552SOL    HW2 6289   7.212   8.035   6.747 -0.6977  0.9725 -1.1870
34553SOL     OW 6290   3.307   8.073   6.871  0.0459 -0.8200 -0.2595
34553SOL    HW1 6291   3.362   8.121   6.933 -1.7066  1.7700 -0.5408
34553SOL    HW2 6292   3.341   8.096   6.785  0.7191 -2.1400 -0.3700
34554SOL     OW 6293   3.502   7.399   2.023  0.2986  0.0331 -0.2682
34554SOL    HW1 6294   3.585   7.376   1.981  1.4020  3.8512 -0.5457
34554SOL    HW2 6295   3.435   7.371   1.961  1.5943  0.1015 -1.7650
34555SOL     OW 6296   5.847   3.385   3.056  0.0452 -0.2330  0.5502
34555SOL    HW1 6297   5.798   3.302   3.054  0.4650 -0.4815  0.5883
34555SOL    HW2 6298   5.780   3.452   3.039 -0.3387 -0.5586  0.7420
34556SOL     OW 6299   4.352  10.277   1.193  0.3182  0.2920 -0.4040
34556SOL    HW1 6300   4.414  10.207   1.172 -0.0600 -0.1865  0.0487
34556SOL    HW2 6301   4.271  10.250   1.151  0.2464  0.6047 -0.4643
34557SOL     OW 6302   1.201   3.879   9.833 -0.6074 -0.7496 -0.4612
34557SOL    HW1 6303   1.172   3.970   9.836  0.9100 -0.2325 -1.0682
34557SOL    HW2 6304   1.281   3.877   9.885 -0.1838 -1.5664 -1.1203
34558SOL     OW 6305   6.119   6.974   6.780 -0.0771  0.0097  0.7393
34558SOL    HW1 6306   6.063   6.899   6.798  0.5938 -0.4859  0.7865
34558SOL    HW2 6307   6.074   7.022   6.710  0.1807 -1.2054 -0.2876
34559SOL     OW 6308   9.346   5.464   9.999 -0.3389  0.3927 -0.0614
34559SOL    HW1 6309   9.253   5.485   9.994 -0.7573 -1.6218 -2.8252
34559SOL    HW2 6310   9.351   5.390  10.059 -0.9866 -1.2338 -1.9061
34560SOL     OW 6311   7.780   8.702   4.981  0.4824  0.3670 -0.0017
34560SOL    HW1 6312   7.762   8.639   5.050  0.4861 -0.7636 -1.0020
34560SOL    HW2 6313   7.694   8.719   4.942  0.9035 -1.9775 -2.1889
34561SOL     OW 6314   7.810   3.714   0.652  0.0541  0.1049  0.1831
34561SOL    HW1 6315   7.879   3.756   0.601  0.5833  1.9192  2.2544
34561SOL    HW2 6316   7.857   3.652   0.708 -0.3178 -0.5318 -0.1962
34562SOL     OW 6317   4.578   6.265   4.532  0.4128  0.4909  0.2498
34562SOL    HW1 6318   4.628   6.184   4.539 -0.3857 -0.0942 -0.6524
34562SOL    HW2 6319   4.578   6.285   4.439 -2.2655 -0.3267 -0.0016
34563SOL     OW 6320   1.379   1.416   1.622 -0.2302  0.7727  0.4242
34563SOL    HW1 6321   1.297   1.380   1.655  0.0200  0.2766  0.5155
34563SOL    HW2 6322   1.446   1.351   1.646 -0.1411  0.0053 -1.6677
34564SOL     OW 6323   1.296   6.283   9.509  0.2951  0.3959  0.7581
34564SOL    HW1 6324   1.226   6.224   9.482  1.1357 -0.0922 -0.4772
34564SOL    HW2 6325   1.269   6.369   9.477  0.2180  0.2205  0.3429
34565SOL     OW 6326   7.390   5.224   6.626  0.0328  0.4422  0.0712
34565SOL    HW1 6327   7.332   5.295   6.652  0.0900  0.1349  1.0729
34565SOL    HW2 6328   7.437   5.201   6.706 -0.3798 -1.0882 -0.1050
34566SOL     OW 6329  10.153   0.176   6.217  0.2823 -0.3422 -0.0579
34566SOL    HW1 6330  10.083   0.140   6.272  1.0359 -1.9557 -0.1194
34566SOL    HW2 6331  10.232   0.132   6.246  0.9110 -0.2452 -1.5535
34567SOL     OW 6332   3.147   4.175   8.263  0.3809 -0.0714 -0.0790
34567SOL    HW1 6333   3.159   4.202   8.354  1.6731 -0.1043 -0.2313
34567SOL    HW2 6334   3.133   4.081   8.267 -0.7221  0.0867  0.1639
34568SOL     OW 6335   3.091   2.815   8.096  0.6600  0.0070  0.3780
34568SOL    HW1 6336   3.078   2.850   8.008  0.7192 -1.3194 -0.1776
34568SOL    HW2 6337   3.102   2.893   8.151  0.8286  0.8553 -0.8078
34569SOL     OW 6338   1.941   0.511   4.592 -0.2230 -0.3696 -0.2299
34569SOL    HW1 6339   1.916   0.579   4.655 -0.5542 -1.3615  0.7347
34569SOL    HW2 6340   1.861   0.496   4.541 -0.3560 -0.5302  0.0241
34570SOL     OW 6341   0.137   9.211   5.198 -0.0908 -0.1573 -0.1905
34570SOL    HW1 6342   0.072   9.175   5.138  0.3096  0.5448 -1.0667
34570SOL    HW2 6343   0.197   9.260   5.142 -0.5370  1.7794  0.9271
34571SOL     OW 6344   9.029   7.128   3.178 -0.1850 -0.2432  0.0440
34571SOL    HW1 6345   9.010   7.036   3.192 -0.4172 -0.1249  0.5208
34571SOL    HW2 6346   9.103   7.129   3.116  0.5831 -0.7616  0.9404
34572SOL     OW 6347   1.779   4.058   6.985  0.2856  0.1123  0.0781
34572SOL    HW1 6348   1.734   4.012   6.913 -0.5168  1.7711 -0.5422
34572SOL    HW2 6349   1.871   4.038   6.972  0.1728  0.4425 -1.5246
34573SOL     OW 6350   7.157   3.958   8.488 -0.1255  0.3128  0.1088
34573SOL    HW1 6351   7.151   3.901   8.566 -1.6561  0.5114  0.1717
34573SOL    HW2 6352   7.250   3.974   8.478  0.0826  0.9658  2.4185
34574SOL     OW 6353   4.998   8.577   4.064 -0.2530  0.3356 -0.2144
34574SOL    HW1 6354   4.920   8.617   4.026  0.6244  3.9704  1.4121
34574SOL    HW2 6355   5.065   8.585   3.996 -0.3603  0.6451 -0.2826
34575SOL     OW 6356  10.098   4.412   0.342  0.1287  0.0585  0.8504
34575SOL    HW1 6357  10.123   4.503   0.324 -1.0013  0.4105  1.0092
34575SOL    HW2 6358  10.124   4.364   0.264  1.8091  0.2825  1.2166
34576SOL     OW 6359  10.176   8.763   4.364  0.0484  0.0864 -0.4859
34576SOL    HW1 6360  10.132   8.732   4.285 -2.6199  2.2387  0.0116
34576SOL    HW2 6361  10.267   8.776   4.337 -0.0293 -2.2970 -2.2431
34577SOL     OW 6362   4.480   2.628   2.723 -0.4341  0.3926  0.3066
34577SOL    HW1 6363   4.476   2.723   2.717 -2.3880  0.2750 -1.1682
34577SOL    HW2 6364   4.542   2.602   2.655  1.6641  0.6452  2.0206
34578SOL     OW 6365   1.700   3.994   7.693  0.5269  0.5316 -0.0708
34578SOL    HW1 6366   1.610   4.022   7.713  0.5981  1.3005 -0.7761
34578SOL    HW2 6367   1.704   3.904   7.724 -0.1136  0.8766  1.0717
34579SOL     OW 6368   7.167   1.633   7.390 -0.0090 -0.0097 -0.0542
34579SOL    HW1 6369   7.160   1.579   7.468 -0.5101 -0.0559 -0.1263
34579SOL    HW2 6370   7.180   1.722   7.423 -2.1019  0.2697  0.1443
34580SOL     OW 6371   3.701   8.983   6.262  0.3425 -0.7856 -0.1529
34580SOL    HW1 6372   3.787   8.962   6.299  0.1609  0.2715  0.9367
34580SOL    HW2 6373   3.650   9.016   6.336 -1.1693 -1.8054 -0.6820
34581SOL     OW 6374   1.738   9.245   1.361 -0.3213  0.0497 -0.0868
34581SOL    HW1 6375   1.647   9.268   1.341 -0.1964  1.3849  0.7258
34581SOL    HW2 6376   1.791   9.305   1.308  0.0508  0.3658  0.6257
34582SOL     OW 6377   5.010   6.536   5.771 -0.6527  0.0316  0.0822
34582SOL    HW1 6378   5.015   6.617   5.720 -2.7366 -0.9086 -1.7722
34582SOL    HW2 6379   4.959   6.560   5.848  0.2398  0.8395  0.4571
34583SOL     OW 6380   3.164   1.433   5.632 -0.0812 -0.6510 -0.0602
34583SOL    HW1 6381   3.107   1.388   5.694  0.5866 -2.3879 -0.6477
34583SOL    HW2 6382   3.169   1.523   5.664 -1.6369 -0.9297  1.0427
34584SOL     OW 6383   1.664   1.941   5.483  0.1513 -0.2511  0.2949
34584SOL    HW1 6384   1.728   1.892   5.430  2.5496  0.6884  2.1446
34584SOL    HW2 6385   1.665   2.029   5.445  0.8724  0.0685  1.0240
34585SOL     OW 6386   8.709  10.205   7.110  0.8583  0.5381  0.4496
34585SOL    HW1 6387   8.682  10.123   7.069  1.3376 -0.6726  2.3893
34585SOL    HW2 6388   8.764  10.177   7.184  0.8956  2.6010  1.2553
34586SOL     OW 6389   8.510   9.636   3.170 -0.3478  0.6446 -0.2061
34586SOL    HW1 6390   8.475   9.706   3.225 -2.0705  0.4907 -1.0169
34586SOL    HW2 6391   8.572   9.679   3.111 -0.2089  1.2083  0.3523
34587SOL     OW 6392   0.958   2.160   1.887 -0.6474  0.0769  0.3176
34587SOL    HW1 6393   0.871   2.160   1.847 -0.6140 -0.5684  0.2430
34587SOL    HW2 6394   1.018   2.176   1.815 -0.5528 -1.5216  0.0186
34588SOL     OW 6395   5.869   8.983   8.126  0.4217 -0.3886  0.4060
34588SOL    HW1 6396   5.947   8.929   8.139  0.6328  0.0458  0.9362
34588SOL    HW2 6397   5.837   9.001   8.214  0.0264 -0.1217  0.2084
34589SOL     OW 6398   3.496   4.395   4.419  0.6277  0.0071  0.0922
34589SOL    HW1 6399   3.445   4.399   4.500  0.4908 -0.6043  0.0354
34589SOL    HW2 6400   3.563   4.329   4.435  1.2505  0.6193  0.0702
34590SOL     OW 6401   3.270   1.651   6.874  0.3576 -0.2479 -0.3280
34590SOL    HW1 6402   3.222   1.604   6.942  0.8726 -1.1285 -0.5604
34590SOL    HW2 6403   3.204   1.707   6.832  0.3467  1.6004  1.9609
34591SOL     OW 6404   0.044   7.025   4.268 -0.2646  0.1862 -0.0360
34591SOL    HW1 6405   0.053   6.974   4.188 -0.4964  0.7575 -0.4277
34591SOL    HW2 6406   0.121   7.081   4.270  0.4735 -0.7990  0.8667
34592SOL     OW 6407   4.256   9.379   2.600  0.0684  0.0566  0.5813
34592SOL    HW1 6408   4.280   9.318   2.670  0.9964  0.0650  0.2797
34592SOL    HW2 6409   4.235   9.323   2.525  1.1065  0.1070  0.2471
34593SOL     OW 6410   3.722   1.947   6.835  0.3838  0.7505 -0.3603
34593SOL    HW1 6411   3.796   1.996   6.799  0.6651  0.2651 -0.4503
34593SOL    HW2 6412   3.662   1.937   6.761 -1.3615  3.9721  0.4053
34594SOL     OW 6413  10.246   3.779   6.306 -0.1124 -0.8145 -0.5670
34594SOL    HW1 6414  10.318   3.825   6.349 -0.4034 -0.1225 -0.8166
34594SOL    HW2 6415  10.232   3.826   6.224 -0.8597 -0.9399 -0.5207
34595SOL     OW 6416   2.439   9.966   1.970  0.0672  0.2214 -0.5019
34595SOL    HW1 6417   2.412   9.877   1.995  2.3966 -0.1134  1.1769
34595SOL    HW2 6418   2.533   9.960   1.957  0.8527  2.9755  2.5800
34596SOL     OW 6419  10.338   0.069   9.090 -0.4757 -0.3469 -0.3893
34596SOL    HW1 6420  10.305  -0.014   9.055  0.9324  0.0894 -3.0364
34596SOL    HW2 6421  10.266   0.103   9.143 -3.6147 -0.3552 -4.1836
34597SOL     OW 6422   7.469   2.922   9.949  0.4484  0.1541  0.0780
34597SOL    HW1 6423   7.519   2.872   9.885  0.6320 -0.2135  0.4963
34597SOL    HW2 6424   7.382   2.883   9.948  0.5253 -0.0268  0.2341
34598SOL     OW 6425   6.118   2.758   9.518 -0.4941 -0.3085  0.4906
34598SOL    HW1 6426   6.049   2.804   9.471  0.1852  1.0059  0.7349
34598SOL    HW2 6427   6.075   2.722   9.596 -1.3780 -1.5309 -0.5167
34599SOL     OW 6428   7.799   8.112   6.667  0.0196  0.2593  0.4614
34599SOL    HW1 6429   7.861   8.141   6.600 -1.0074  1.3446 -0.0563
34599SOL    HW2 6430   7.738   8.054   6.620 -0.4272  0.6536  0.5449
34600SOL     OW 6431   8.705   5.095   9.085  0.3115  0.0428 -0.3257
34600SOL    HW1 6432   8.720   5.140   9.168  0.8201  1.0531 -0.9473
34600SOL    HW2 6433   8.793   5.084   9.047 -0.0190  1.0440 -1.4576
34601SOL     OW 6434   8.897   5.232  10.024 -0.6037 -0.3534  0.1210
34601SOL    HW1 6435   8.844   5.191   9.956  0.0485  0.8382 -1.1478
34601SOL    HW2 6436   8.842   5.301  10.060 -0.3641  0.0862 -0.3477
34602SOL     OW 6437   4.539   4.885   8.823 -0.1265 -0.6447 -0.2992
34602SOL    HW1 6438   4.547   4.866   8.917 -1.6218  0.3220  0.0651
34602SOL    HW2 6439   4.556   4.802   8.780 -0.1343 -1.2789  0.8774
34603SOL     OW 6440   1.516   4.692   7.068  0.6063  0.0622  0.3948
34603SOL    HW1 6441   1.464   4.748   7.126 -0.9207 -2.0454  1.2083
34603SOL    HW2 6442   1.553   4.625   7.127  2.0056 -0.0621 -0.5821
34604SOL     OW 6443   3.514   0.692   2.728 -0.2255  0.2998 -0.1308
34604SOL    HW1 6444   3.542   0.758   2.791 -0.3789 -0.5629  0.8698
34604SOL    HW2 6445   3.582   0.692   2.661  0.9200 -0.0463  0.9990
34605SOL     OW 6446   5.478   3.826   9.494 -0.6244  0.1763 -0.5097
34605SOL    HW1 6447   5.396   3.781   9.512 -0.6643  1.1264  2.1506
34605SOL    HW2 6448   5.521   3.773   9.426 -1.5897 -2.6382  0.9412
34606SOL     OW 6449   4.964   8.202   2.561 -0.3273 -0.5469  0.6039
34606SOL    HW1 6450   5.013   8.136   2.609 -1.2438 -1.0955  0.8143
34606SOL    HW2 6451   5.015   8.282   2.570  0.7298 -1.1895  0.4630
34607SOL     OW 6452   6.747   7.831   2.459  0.4224  0.0669 -0.0162
34607SOL    HW1 6453   6.720   7.889   2.531  1.3050 -0.9967  1.2176
34607SOL    HW2 6454   6.670   7.828   2.401 -0.9489 -0.3450  1.7285
34608SOL     OW 6455   4.192   2.251   0.052  1.0713 -0.3930 -0.0963
34608SOL    HW1 6456   4.217   2.341   0.073  0.7734 -0.3189 -0.0442
34608SOL    HW2 6457   4.139   2.224   0.127  1.2976 -0.6680 -0.0369
34609SOL     OW 6458   4.263   5.556   8.271 -0.0460 -0.0259  0.4556
34609SOL    HW1 6459   4.236   5.645   8.294  1.1856  0.0484  1.7908
34609SOL    HW2 6460   4.329   5.533   8.336 -0.3572 -1.9509  0.1716
34610SOL     OW 6461   0.887   5.211   9.644  0.4586  0.1083 -0.5090
34610SOL    HW1 6462   0.940   5.154   9.699  0.0024  0.4058  0.2506
34610SOL    HW2 6463   0.914   5.300   9.669 -1.6688  0.3318  1.2200
34611SOL     OW 6464   8.450   9.002   2.775  0.3071 -0.0206  1.3051
34611SOL    HW1 6465   8.479   9.010   2.684 -2.8578 -1.8364 -0.0072
34611SOL    HW2 6466   8.478   8.914   2.801  0.2562  0.0887  1.7347
34612SOL     OW 6467   8.032   0.017   0.910 -0.3242  0.2758 -0.3905
34612SOL    HW1 6468   8.067   0.011   0.999  1.0137  3.1183 -0.6256
34612SOL    HW2 6469   7.990  -0.068   0.895 -3.0490  0.5857  3.9151
34613SOL     OW 6470   8.442  10.216   4.115  0.1609 -0.2737  0.1489
34613SOL    HW1 6471   8.472  10.168   4.038 -0.5628  0.5354 -0.6623
34613SOL    HW2 6472   8.489  10.176   4.188  2.4128  0.2424 -0.9268
34614SOL     OW 6473   3.868   8.432   1.537  0.5055  0.0109 -0.1545
34614SOL    HW1 6474   3.884   8.379   1.615 -2.9049  0.0374  0.7282
34614SOL    HW2 6475   3.847   8.519   1.571 -2.8070 -0.3939 -0.7702
34615SOL     OW 6476   1.141   8.007  10.063  0.4555  0.0978  0.1773
34615SOL    HW1 6477   1.071   8.042  10.118 -0.6401  0.7839 -1.5486
34615SOL    HW2 6478   1.202   8.080  10.052  2.3408 -0.9196  2.8912
34616SOL     OW 6479   1.098   4.354   5.662  0.0463  0.0518 -0.1147
34616SOL    HW1 6480   1.076   4.305   5.741  0.6331 -1.2481 -0.7360
34616SOL    HW2 6481   1.194   4.360   5.663  0.0732 -0.1569 -0.8268
34617SOL     OW 6482   3.221   3.975   8.727  0.3942 -0.3361  0.5659
34617SOL    HW1 6483   3.215   3.887   8.765  1.8781 -0.4188  0.7006
34617SOL    HW2 6484   3.269   3.961   8.645  0.2366  0.2900  0.3654
34618SOL     OW 6485   8.137   8.127   8.603 -0.4338 -0.7129  0.6649
34618SOL    HW1 6486   8.072   8.058   8.597  0.2562 -1.5210  2.0279
34618SOL    HW2 6487   8.194   8.101   8.675  2.3243 -0.8404 -1.3690
34619SOL     OW 6488   9.016   0.282   4.028 -0.4409 -0.1247 -0.0916
34619SOL    HW1 6489   9.034   0.245   4.115 -0.4146  2.3861  1.0555
34619SOL    HW2 6490   9.091   0.257   3.975 -0.8860 -2.4848  0.2792
34620SOL     OW 6491   8.265   4.921   4.955 -0.0814  0.4473 -0.4725
34620SOL    HW1 6492   8.238   4.959   5.038 -0.9829 -0.1204 -0.4988
34620SOL    HW2 6493   8.230   4.832   4.956  0.7003  0.1146 -1.0638
34621SOL     OW 6494   9.747   9.075   0.609  0.0870 -0.0984 -0.0491
34621SOL    HW1 6495   9.702   8.999   0.646  1.8899 -0.9554  0.5108
34621SOL    HW2 6496   9.698   9.150   0.642 -1.1863 -0.9814  0.1450
34622SOL     OW 6497   4.923   5.712   5.955  0.1926 -0.0667  0.1213
34622SOL    HW1 6498   4.893   5.757   6.034  0.4408 -0.2996  0.3544
34622SOL    HW2 6499   4.843   5.680   5.914 -0.0290  1.0791 -0.3603
34623SOL     OW 6500   5.750   1.885   6.494  0.4280 -0.0584 -0.1449
34623SOL    HW1 6501   5.804   1.960   6.521 -1.1321  0.9737  0.2370
34623SOL    HW2 6502   5.811   1.826   6.450  1.7910  1.2316 -0.0613
34624SOL     OW 6503   1.458   0.226   0.126  0.5280  0.1376 -0.5658
34624SOL    HW1 6504   1.436   0.223   0.219  0.7406  2.1518 -0.4164
34624SOL    HW2 6505   1.512   0.304   0.116 -0.1226  0.4024 -2.5030
34625SOL     OW 6506   9.529   5.590   7.812  0.3888 -0.4310 -0.0576
34625SOL    HW1 6507   9.561   5.678   7.834 -1.1326 -0.1748  1.2765
34625SOL    HW2 6508   9.557   5.535   7.885 -1.3990 -0.3750  0.7019
34626SOL     OW 6509   0.872   0.628   3.238 -0.4289 -0.4108  0.0701
34626SOL    HW1 6510   0.807   0.568   3.275  0.3673 -0.2109  1.9299
34626SOL    HW2 6511   0.847   0.637   3.146 -0.7946 -3.2635 -0.2049
34627SOL     OW 6512   1.360   0.046   3.970 -0.2066  0.5846  0.4233
34627SOL    HW1 6513   1.316  -0.038   3.956  1.2943 -0.6794  2.5949
34627SOL    HW2 6514   1.437   0.024   4.023  0.5114  3.2821  0.6468
34628SOL     OW 6515   5.131   6.167  10.319 -0.2273 -0.2063 -0.0272
34628SOL    HW1 6516   5.156   6.077  10.297  1.2863  0.6454 -2.1721
34628SOL    HW2 6517   5.054   6.158  10.375 -1.0352 -2.8113 -1.3985
34629SOL     OW 6518   6.257   5.325   5.238  0.6018  0.5913 -0.4101
34629SOL    HW1 6519   6.181   5.327   5.180 -0.4736 -2.3412  0.6703
34629SOL    HW2 6520   6.235   5.385   5.309 -0.5576  0.1031 -0.3334
34630SOL     OW 6521   7.314   9.881   1.010 -0.2274  0.4074 -0.2183
34630SOL    HW1 6522   7.324   9.799   1.058 -0.9726 -0.2531 -1.1663
34630SOL    HW2 6523   7.360   9.946   1.064  1.3253 -0.8202  0.0002
34631SOL     OW 6524   1.406  10.316   9.396 -0.0081 -0.0230  0.1634
34631SOL    HW1 6525   1.414  10.286   9.486 -1.4641 -1.1112 -0.0316
34631SOL    HW2 6526   1.486  10.366   9.380  0.8356 -0.8264  1.6614
34632SOL     OW 6527   9.216   7.701   4.377 -0.0679  0.0013 -0.1682
34632SOL    HW1 6528   9.144   7.761   4.397 -0.2676 -0.3103  0.0518
34632SOL    HW2 6529   9.274   7.706   4.452 -0.4264 -0.5825  0.1610
34633SOL     OW 6530   0.597   6.351   2.994  1.0400  0.2250 -0.6841
34633SOL    HW1 6531   0.638   6.325   2.911 -2.7438  0.4349 -2.8398
34633SOL    HW2 6532   0.509   6.378   2.970 -0.3406  0.1807  3.4920
34634SOL     OW 6533   4.424   6.647   2.501 -0.3771 -0.2720 -0.5498
34634SOL    HW1 6534   4.331   6.668   2.508  0.1677  2.3517  0.1103
34634SOL    HW2 6535   4.434   6.607   2.415 -1.9338  0.6863 -1.2173
34635SOL     OW 6536   3.948   2.330   9.911  0.1314  0.6091  0.2946
34635SOL    HW1 6537   4.030   2.303   9.952  0.3054  0.8311  0.0963
34635SOL    HW2 6538   3.880   2.290   9.964  0.3923 -0.7348 -0.3426
34636SOL     OW 6539   5.986   3.188   5.766  0.3100  1.0650  0.5879
34636SOL    HW1 6540   5.906   3.194   5.714  0.9569  0.1115 -0.5833
34636SOL    HW2 6541   5.959   3.145   5.847 -0.3681  0.7468  0.2037
34637SOL     OW 6542   5.861   6.741   7.833  0.0677 -0.0425 -0.0021
34637SOL    HW1 6543   5.947   6.739   7.876  0.4055 -0.2588 -0.6801
34637SOL    HW2 6544   5.869   6.809   7.766 -1.2566  2.1169  1.8813
34638SOL     OW 6545   3.583   3.686   7.969  0.1249  0.0692  0.4749
34638SOL    HW1 6546   3.497   3.648   7.988  0.1787 -0.8163 -0.9660
34638SOL    HW2 6547   3.637   3.659   8.043 -0.0684 -1.9629 -0.0617
34639SOL     OW 6548   9.290   5.224   7.593 -0.2118  0.1104 -0.2325
34639SOL    HW1 6549   9.383   5.231   7.573 -0.2683  1.5986 -0.0649
34639SOL    HW2 6550   9.258   5.154   7.536  0.8070  0.2730 -1.0255
34640SOL     OW 6551   3.999   6.300   7.005  0.0693 -0.4262 -0.1591
34640SOL    HW1 6552   4.015   6.301   7.099  2.0319  1.5478 -0.4283
34640SOL    HW2 6553   4.069   6.246   6.969 -0.4576 -0.8740 -0.5180
34641SOL     OW 6554   2.602   3.697   2.741 -0.0159 -0.4320 -0.3313
34641SOL    HW1 6555   2.567   3.776   2.698 -0.4275  0.7151  1.9644
34641SOL    HW2 6556   2.559   3.625   2.696  0.4774  0.5911 -2.6055
34642SOL     OW 6557   5.633   6.389   5.832 -0.1032  0.0244 -0.0434
34642SOL    HW1 6558   5.580   6.389   5.752  0.8142 -0.2721 -0.6659
34642SOL    HW2 6559   5.619   6.476   5.869 -0.1141  0.3668 -0.8208
34643SOL     OW 6560   3.459   4.553   7.468  0.0399  0.2068 -0.6225
34643SOL    HW1 6561   3.533   4.554   7.407  0.1190 -0.3063 -0.5431
34643SOL    HW2 6562   3.390   4.507   7.420  0.6756 -1.8015  0.3082
34644SOL     OW 6563   2.962   0.454   9.477 -0.2365 -0.0930  0.0170
34644SOL    HW1 6564   2.882   0.502   9.454 -1.9278 -1.9287  1.6184
34644SOL    HW2 6565   2.986   0.487   9.564  0.6754  0.3327 -0.3873
34645SOL     OW 6566   6.894   3.492   2.953  0.2645  0.0546  0.2481
34645SOL    HW1 6567   6.833   3.467   3.022 -2.7308 -1.9485 -2.8256
34645SOL    HW2 6568   6.969   3.434   2.966  0.0509  0.1280  2.0870
34646SOL     OW 6569   4.658   7.275   5.358 -0.2252 -0.1980 -0.4278
34646SOL    HW1 6570   4.605   7.345   5.395  2.0958  1.5255 -0.1332
34646SOL    HW2 6571   4.723   7.255   5.426  0.4362 -1.2046 -1.3181
34647SOL     OW 6572   0.747   8.196   5.711  0.3602 -0.4018 -0.2765
34647SOL    HW1 6573   0.775   8.189   5.802 -2.1227 -0.4191  0.5528
34647SOL    HW2 6574   0.757   8.107   5.676 -1.3000 -1.0942  0.8618
34648SOL     OW 6575  10.200  10.129   3.816 -0.1084 -0.6016  0.1783
34648SOL    HW1 6576  10.163  10.202   3.765 -1.5641 -1.4670 -0.0388
34648SOL    HW2 6577  10.277  10.167   3.859 -1.5154  1.4276  1.0781
34649SOL     OW 6578   4.998   2.371   5.468 -0.3249 -0.2509  0.2182
34649SOL    HW1 6579   4.921   2.336   5.513 -1.9784  3.6257  0.8797
34649SOL    HW2 6580   5.061   2.388   5.538 -1.3805  2.1647  0.6968
34650SOL     OW 6581   5.634   8.088   1.678 -0.5306 -0.5855  0.1121
34650SOL    HW1 6582   5.632   8.073   1.584  0.8255 -0.2526  0.0134
34650SOL    HW2 6583   5.690   8.018   1.712  0.1923  0.1642  0.4797
34651SOL     OW 6584   2.757   4.244   6.989 -0.4395 -0.1449  0.0145
34651SOL    HW1 6585   2.707   4.211   7.064  0.7083  0.5770  1.1407
34651SOL    HW2 6586   2.791   4.166   6.946 -2.0416 -0.6208 -0.4540
34652SOL     OW 6587   4.172   9.662   1.677  0.1512 -0.3291  0.0029
34652SOL    HW1 6588   4.077   9.669   1.662  0.2451 -1.3239 -1.1463
34652SOL    HW2 6589   4.200   9.591   1.620  1.7385  0.4762 -0.2460
34653SOL     OW 6590   3.055   0.370   6.116 -0.3377  0.3507 -0.0873
34653SOL    HW1 6591   3.131   0.430   6.113 -1.8829  2.4637  0.5925
34653SOL    HW2 6592   3.063   0.325   6.200  0.4861  0.0862 -0.2970
34654SOL     OW 6593  10.306   6.890   1.123  0.2039 -0.0247  0.2205
34654SOL    HW1 6594  10.342   6.820   1.069  2.8679  1.1365  0.3180
34654SOL    HW2 6595  10.297   6.851   1.210  0.0570 -0.6854 -0.0841
34655SOL     OW 6596   2.344   8.453   8.509  0.2325 -0.4656  0.0609
34655SOL    HW1 6597   2.249   8.460   8.516  0.2298  1.5649 -1.1986
34655SOL    HW2 6598   2.378   8.495   8.588  0.0887 -0.4875  0.1342
34656SOL     OW 6599   0.376   7.393   7.728 -0.2343 -0.2126  0.0755
34656SOL    HW1 6600   0.433   7.427   7.659  0.1195 -1.2256 -0.1501
34656SOL    HW2 6601   0.435   7.356   7.793 -0.5657  0.7810  0.9730
34657SOL     OW 6602   3.448   5.824   9.103  0.5011 -0.4165 -0.8977
34657SOL    HW1 6603   3.535   5.784   9.098  0.0450 -1.4543 -0.6764
34657SOL    HW2 6604   3.408   5.784   9.180 -0.0567  0.3001 -0.8085
34658SOL     OW 6605   4.645   3.249   5.616 -0.7905  0.1031  0.3979
34658SOL    HW1 6606   4.713   3.311   5.640 -0.0483 -0.5418  0.0247
34658SOL    HW2 6607   4.654   3.177   5.678 -1.5334  0.2770  0.7239
34659SOL     OW 6608   0.198   5.494   9.066 -0.4257  0.5407  0.5508
34659SOL    HW1 6609   0.233   5.411   9.100 -2.4285 -1.0494 -1.0518
34659SOL    HW2 6610   0.245   5.507   8.983 -0.3393  0.8497  0.6484
34660SOL     OW 6611   5.823   0.220  10.197  0.2674  0.1202  0.4830
34660SOL    HW1 6612   5.868   0.296  10.160 -0.4137  0.2540 -0.0844
34660SOL    HW2 6613   5.798   0.248  10.285 -0.2449  0.6633  0.1681
34661SOL     OW 6614   9.377   1.292   9.711  0.6552  0.5412  0.2464
34661SOL    HW1 6615   9.422   1.364   9.754  0.5963  1.0056 -0.4575
34661SOL    HW2 6616   9.356   1.325   9.624  2.3204 -0.9617 -0.7978
34662SOL     OW 6617   6.461   8.943   2.002  0.0779 -0.3706 -0.3347
34662SOL    HW1 6618   6.541   8.993   2.015 -0.5428  0.0312  2.7594
34662SOL    HW2 6619   6.411   8.993   1.937  1.3576  0.5872 -0.6134
34663SOL     OW 6620   2.754   4.472   0.656  0.3268  0.3605  0.3068
34663SOL    HW1 6621   2.789   4.416   0.587  1.6206  0.8944  0.4989
34663SOL    HW2 6622   2.675   4.511   0.617  1.4728  1.3064 -1.2146
34664SOL     OW 6623   9.027   4.546   8.638  0.0610 -0.1311 -0.1097
34664SOL    HW1 6624   9.080   4.482   8.685 -0.1246 -0.4526 -0.3381
34664SOL    HW2 6625   9.044   4.629   8.683  1.2112 -0.1134 -0.5370
34665SOL     OW 6626   9.203   9.133   7.696  0.8005 -0.0779  0.3919
34665SOL    HW1 6627   9.228   9.150   7.605 -0.7099  2.3184  0.3329
34665SOL    HW2 6628   9.148   9.208   7.719  1.0955 -0.6650  3.2707
34666SOL     OW 6629   4.146   8.087   3.159 -0.1290 -0.6527 -0.5054
34666SOL    HW1 6630   4.237   8.114   3.150  0.5683 -2.9955 -1.3850
34666SOL    HW2 6631   4.095   8.165   3.138  1.6712  0.1985 -2.0415
34667SOL     OW 6632   9.878   0.202   3.956 -0.3873  0.5511  0.0586
34667SOL    HW1 6633   9.928   0.205   3.874  1.5280  0.4577  1.1721
34667SOL    HW2 6634   9.937   0.160   4.019 -2.5020 -1.1323  1.0578
34668SOL     OW 6635   1.392   7.311   9.529  0.0710 -0.0693 -0.1896
34668SOL    HW1 6636   1.476   7.356   9.525  0.0334 -0.0833 -1.4111
34668SOL    HW2 6637   1.337   7.368   9.582  0.6095  0.3247 -0.0434
34669SOL     OW 6638   5.536   4.644   1.916  0.3297  0.8706  0.6563
34669SOL    HW1 6639   5.550   4.736   1.893 -0.9736  0.6631 -1.1572
34669SOL    HW2 6640   5.456   4.644   1.968 -0.8226  0.5813 -1.0668
34670SOL     OW 6641   8.313   6.298   9.349 -0.1551 -0.9079  0.0263
34670SOL    HW1 6642   8.343   6.287   9.258  0.0928 -1.8021  0.2093
34670SOL    HW2 6643   8.220   6.318   9.341  0.0004 -0.3302 -0.4526
34671SOL     OW 6644   8.316   0.726   5.891 -0.2150 -0.1757  0.3852
34671SOL    HW1 6645   8.266   0.646   5.874 -0.0177 -0.0793 -0.6981
34671SOL    HW2 6646   8.250   0.794   5.900 -0.3635 -0.3793  0.8572
34672SOL     OW 6647   2.423   6.826   3.002  0.0065 -0.0519 -0.3911
34672SOL    HW1 6648   2.358   6.807   2.935  1.1067 -1.1475 -1.1890
34672SOL    HW2 6649   2.437   6.743   3.046 -0.6617  0.6407  1.2098
34673SOL     OW 6650   7.476   5.858   7.559 -0.3629  0.0332  0.0217
34673SOL    HW1 6651   7.397   5.907   7.583  0.3099  0.9213  0.5034
34673SOL    HW2 6652   7.530   5.860   7.638 -0.8611 -2.6763  0.5182
34674SOL     OW 6653   0.753   9.054   1.481  0.5155  0.0853  0.4076
34674SOL    HW1 6654   0.775   9.146   1.497  1.9748 -0.4607  1.8399
34674SOL    HW2 6655   0.796   9.034   1.398  0.4442  0.6208  0.2356
34675SOL     OW 6656   8.293   2.366   0.340  0.4382 -0.3767  0.3057
34675SOL    HW1 6657   8.321   2.333   0.425 -0.4269 -3.0336 -0.3587
34675SOL    HW2 6658   8.373   2.374   0.289  0.8059 -0.1442  0.9104
34676SOL     OW 6659   4.946   8.203   2.016 -0.0071  0.7813 -0.0252
34676SOL    HW1 6660   4.923   8.251   1.936 -0.3950  3.0584  1.3424
34676SOL    HW2 6661   5.042   8.210   2.021 -0.0086  0.9091 -0.1614
34677SOL     OW 6662   5.673   0.574   9.510  0.5971 -0.0695  0.0880
34677SOL    HW1 6663   5.632   0.629   9.577  2.3538  0.6706  0.6321
34677SOL    HW2 6664   5.646   0.613   9.427 -0.5566 -0.2141  0.3734
34678SOL     OW 6665   6.112   5.661   2.181 -0.0501 -0.4710 -0.6076
34678SOL    HW1 6666   6.019   5.644   2.169 -0.2023  0.5205 -0.9238
34678SOL    HW2 6667   6.155   5.578   2.160 -1.0701 -2.2686  3.3112
34679SOL     OW 6668   2.094   1.695   3.679  0.0262 -0.0536 -0.1783
34679SOL    HW1 6669   2.026   1.732   3.735  0.6346  1.9140 -0.6922
34679SOL    HW2 6670   2.164   1.759   3.680  0.7048 -0.7086 -1.9460
34680SOL     OW 6671   4.124   0.272   9.835 -0.1687 -0.1518  0.1440
34680SOL    HW1 6672   4.081   0.240   9.756 -1.7960 -0.4868  1.1285
34680SOL    HW2 6673   4.087   0.359   9.849  0.6331  0.1969  0.1642
34681SOL     OW 6674   7.259   3.272   8.435 -0.6006  0.3827  0.3298
34681SOL    HW1 6675   7.242   3.366   8.434 -0.7669  0.3524 -0.5997
34681SOL    HW2 6676   7.345   3.263   8.395  0.4662  0.3013  2.4901
34682SOL     OW 6677   8.747   7.881   6.517 -0.0836  0.7011 -0.1160
34682SOL    HW1 6678   8.723   7.821   6.587  1.9096 -1.5054 -1.1869
34682SOL    HW2 6679   8.741   7.828   6.437  1.5157  1.9697 -1.1419
34683SOL     OW 6680   2.068   7.339   3.720 -0.2687  0.1058 -0.3481
34683SOL    HW1 6681   2.107   7.268   3.668 -3.0853 -1.5054 -0.4824
34683SOL    HW2 6682   2.039   7.296   3.801  0.8782  1.8524  1.0533
34684SOL     OW 6683   8.945   7.140   2.218 -0.1358  0.6051  0.7842
34684SOL    HW1 6684   8.966   7.232   2.203  0.2690  0.3476 -0.3066
34684SOL    HW2 6685   8.860   7.143   2.262 -0.4207  1.4928  0.2260
34685SOL     OW 6686   3.178   0.310   8.339 -0.6624  0.0580  1.0639
34685SOL    HW1 6687   3.179   0.231   8.393 -3.6224 -0.3684  0.6335
34685SOL    HW2 6688   3.183   0.278   8.249  2.3899  0.6856  0.8808
34686SOL     OW 6689   0.611   9.141   4.410  0.6107  0.0562  0.4787
34686SOL    HW1 6690   0.582   9.213   4.466 -1.0460  0.5836 -0.9537
34686SOL    HW2 6691   0.611   9.179   4.322 -0.1992 -1.6503 -0.3025
34687SOL     OW 6692   7.055   0.066   7.447  0.6164  0.4423 -0.4466
34687SOL    HW1 6693   6.965   0.088   7.424  0.5969  0.3066 -0.5065
34687SOL    HW2 6694   7.092   0.146   7.483  0.4904  0.5157 -0.4810
34688SOL     OW 6695   5.772   6.087   0.375 -0.2954 -0.5686  0.4001
34688SOL    HW1 6696   5.737   6.143   0.444 -0.8889 -0.7503  0.2483
34688SOL    HW2 6697   5.818   6.148   0.316  2.6335 -0.6701  2.3387
34689SOL     OW 6698   5.075   8.746   1.560 -0.4469 -0.1909  0.4061
34689SOL    HW1 6699   5.075   8.778   1.470 -0.0426  0.3136  0.5812
34689SOL    HW2 6700   5.055   8.653   1.552 -0.4916 -0.1349 -0.1979
34690SOL     OW 6701   1.286   8.741   2.789  0.2264  0.5671 -0.4611
34690SOL    HW1 6702   1.273   8.834   2.809  1.4165  0.1890  2.5990
34690SOL    HW2 6703   1.371   8.737   2.747  0.6679  0.8110  0.3784
34691SOL     OW 6704   6.862   4.534   0.908 -0.0886  0.5524  0.1750
34691SOL    HW1 6705   6.769   4.529   0.887 -0.1554 -2.6930  0.7244
34691SOL    HW2 6706   6.865   4.545   1.003  0.0010 -0.8863  0.3675
34692SOL     OW 6707   5.248   7.598   3.216  0.0083 -0.2136  0.3424
34692SOL    HW1 6708   5.267   7.557   3.132  0.4033  0.7924 -0.0811
34692SOL    HW2 6709   5.154   7.617   3.213  0.0557 -0.0120  0.0361
34693SOL     OW 6710   0.068   5.427   4.248 -0.1181  0.2363  0.1616
34693SOL    HW1 6711   0.086   5.504   4.302  0.1512  1.7590 -1.9507
34693SOL    HW2 6712   0.140   5.367   4.267  1.0811  1.5829  0.0219
34694SOL     OW 6713   3.508  10.080   7.005  0.3168 -0.3147 -0.2468
34694SOL    HW1 6714   3.486   9.987   7.010  1.2553 -0.4944  1.3123
34694SOL    HW2 6715   3.427  10.123   6.977 -1.0181 -1.3000  1.8460
34695SOL     OW 6716   1.640   6.760   2.354 -0.1782  0.5136  0.0639
34695SOL    HW1 6717   1.692   6.763   2.434 -0.9875  0.0291  0.6272
34695SOL    HW2 6718   1.623   6.852   2.333 -0.0655  0.6408  0.5221
34696SOL     OW 6719   9.714   5.418   8.502  0.8592  0.0087  0.1422
34696SOL    HW1 6720   9.704   5.328   8.534 -0.2733 -0.1525 -0.5986
34696SOL    HW2 6721   9.732   5.409   8.409  0.5937  0.5592  0.0325
34697SOL     OW 6722   6.793   9.594   9.369  0.1149  0.2797  0.0022
34697SOL    HW1 6723   6.705   9.585   9.333 -1.1901  3.0618  2.1215
34697SOL    HW2 6724   6.835   9.509   9.353 -3.9815 -2.3398  1.6362
34698SOL     OW 6725   2.627   4.945   1.955 -0.1206  0.0196 -0.0105
34698SOL    HW1 6726   2.633   4.905   2.041 -1.2009 -0.0612  0.0473
34698SOL    HW2 6727   2.642   4.873   1.894  1.0982  0.1654  0.0997
34699SOL     OW 6728   6.351   1.139   7.484 -0.1428 -0.3482  0.0773
34699SOL    HW1 6729   6.279   1.150   7.545  0.9713  0.7561  1.2611
34699SOL    HW2 6730   6.375   1.229   7.460 -0.1173 -0.7449 -1.4755
34700SOL     OW 6731  10.359   0.869   5.052  0.2680  0.0655  0.4887
34700SOL    HW1 6732  10.387   0.850   5.142 -0.9793  0.4755  0.9847
34700SOL    HW2 6733  10.271   0.905   5.061 -0.0753 -0.3471 -0.9466
34701SOL     OW 6734   8.952   6.924   3.608  0.8138 -0.0027 -0.2100
34701SOL    HW1 6735   8.949   6.933   3.704 -0.1514 -1.8608 -0.0162
34701SOL    HW2 6736   9.007   6.848   3.593  1.6361  0.7676 -1.2102
34702SOL     OW 6737   5.763   3.259   4.442  0.5083 -0.2969 -0.1410
34702SOL    HW1 6738   5.736   3.201   4.513 -1.1188  0.3303 -0.2217
34702SOL    HW2 6739   5.768   3.345   4.483 -2.0135  0.3689 -1.0626
34703SOL     OW 6740   2.155   1.272   1.034 -0.3369 -0.6470 -0.4367
34703SOL    HW1 6741   2.120   1.184   1.049 -0.2342 -0.3377  2.0511
34703SOL    HW2 6742   2.245   1.258   1.007  0.3231 -1.3674  1.8546
34704SOL     OW 6743   7.454   5.316   3.552 -0.6420  0.2281 -0.3415
34704SOL    HW1 6744   7.394   5.277   3.615 -0.2321  0.3540  0.1296
34704SOL    HW2 6745   7.538   5.272   3.568 -0.1694  1.3083  0.2125
34705SOL     OW 6746  10.210   7.346   6.792  0.1364 -0.2513  0.0159
34705SOL    HW1 6747  10.289   7.323   6.841 -0.1814 -2.9551 -0.5889
34705SOL    HW2 6748  10.157   7.397   6.853  1.1984 -0.6836  1.3325
34706SOL     OW 6749   3.849   6.706   4.493 -0.1279  0.4914 -0.1402
34706SOL    HW1 6750   3.786   6.638   4.468  1.1703 -1.0404  0.5069
34706SOL    HW2 6751   3.819   6.736   4.578  0.5982 -1.0905  0.7270
34707SOL     OW 6752   2.998   8.046   4.710  0.3250  0.7559  0.4521
34707SOL    HW1 6753   2.945   8.101   4.767  0.7731  1.7474 -0.0575
34707SOL    HW2 6754   2.956   8.052   4.624  1.5993  2.1224 -0.1261
34708SOL     OW 6755   9.071   4.703   2.014 -0.2354 -0.0277  0.3513
34708SOL    HW1 6756   9.085   4.643   2.088  0.6303  1.4893  1.4598
34708SOL    HW2 6757   8.992   4.752   2.036 -1.4798 -1.3083 -0.9856
34709SOL     OW 6758   9.106   4.982   4.500 -0.0685 -0.7460  0.0884
34709SOL    HW1 6759   9.109   4.960   4.593 -0.9017 -1.4853 -0.0442
34709SOL    HW2 6760   9.191   5.024   4.482  1.2091 -2.9529  0.5931
34710SOL     OW 6761  10.195   1.199  10.019 -0.3369 -0.0239 -0.0513
34710SOL    HW1 6762  10.201   1.195   9.924 -0.9930 -1.0753 -0.0693
34710SOL    HW2 6763  10.258   1.267  10.045 -0.5892  0.6945 -1.2613
34711SOL     OW 6764   8.624   9.930   4.818  0.2902 -0.1622 -0.3286
34711SOL    HW1 6765   8.671   9.847   4.817  0.9073  0.0913  2.1215
34711SOL    HW2 6766   8.689   9.995   4.790  0.7232 -0.1183  0.7571
34712SOL     OW 6767   1.919   5.889   4.110 -0.0731 -0.0798  0.6744
34712SOL    HW1 6768   1.854   5.937   4.162 -1.0501 -2.0382  1.3794
34712SOL    HW2 6769   1.965   5.835   4.174 -0.6571 -1.8364 -0.3166
34713SOL     OW 6770   8.435   8.932   9.785 -0.2040 -0.8152 -0.2665
34713SOL    HW1 6771   8.509   8.898   9.835  1.5374  1.6358 -1.0165
34713SOL    HW2 6772   8.377   8.971   9.851  1.4071  1.1971  0.0347
34714SOL     OW 6773   9.695   8.370   1.553  0.2753 -0.0297 -0.4415
34714SOL    HW1 6774   9.742   8.287   1.565 -0.5719 -0.3375  1.0033
34714SOL    HW2 6775   9.750   8.421   1.494  1.1797 -1.3280 -0.7661
34715SOL     OW 6776   0.283   6.482   6.146  0.4317  0.4337  0.8945
34715SOL    HW1 6777   0.325   6.417   6.203 -0.5748 -1.8417 -0.7706
34715SOL    HW2 6778   0.287   6.442   6.059 -0.6849  2.4350 -0.1262
34716SOL     OW 6779   6.710   6.846   1.297 -0.8460 -0.0826  0.2822
34716SOL    HW1 6780   6.649   6.805   1.235  0.0010  0.7661 -1.1788
34716SOL    HW2 6781   6.709   6.939   1.273 -0.5184  0.2755  1.5953
34717SOL     OW 6782   5.960   8.633   2.302  0.3113 -0.4321 -0.2820
34717SOL    HW1 6783   5.881   8.594   2.265 -0.6388  0.7276  0.4799
34717SOL    HW2 6784   6.001   8.678   2.228 -0.9149  0.8008 -0.2596
34718SOL     OW 6785   4.017   6.689   9.072  0.1008 -0.2764  0.2503
34718SOL    HW1 6786   4.097   6.706   9.122 -0.0484 -2.1775  1.2246
34718SOL    HW2 6787   4.047   6.638   8.997 -0.1059 -0.2901  0.1780
34719SOL     OW 6788   1.711   2.929   0.820  0.6304 -0.2792 -0.2302
34719SOL    HW1 6789   1.766   2.870   0.871  0.1445 -1.4368 -0.9917
34719SOL    HW2 6790   1.629   2.880   0.806  0.3682  0.4009 -1.2140
34720SOL     OW 6791   3.428   6.176   8.141  0.6579 -0.5700 -0.1421
34720SOL    HW1 6792   3.412   6.113   8.071  1.2517 -0.6244 -0.2316
34720SOL    HW2 6793   3.431   6.261   8.096  2.9690 -0.7861 -0.4847
34721SOL     OW 6794   0.853   8.198   3.560 -0.6559  0.7231  0.5188
34721SOL    HW1 6795   0.873   8.122   3.615 -3.0578 -1.1255 -0.9301
34721SOL    HW2 6796   0.919   8.196   3.491 -0.3248  0.3604  0.8384
34722SOL     OW 6797   2.606   9.108   0.374  0.1207 -0.0397  0.4603
34722SOL    HW1 6798   2.545   9.107   0.448  0.0560  0.5019  0.4190
34722SOL    HW2 6799   2.596   9.195   0.336 -0.7655 -0.7257 -0.9706
34723SOL     OW 6800   7.027   5.931   4.810 -0.0580 -0.7045 -0.4470
34723SOL    HW1 6801   6.950   5.986   4.829  0.5095  0.1760 -0.6260
34723SOL    HW2 6802   7.071   5.976   4.739  0.8918 -0.9280 -0.0110
34724SOL     OW 6803   5.405   0.163   0.897 -0.6377  0.6549 -0.1283
34724SOL    HW1 6804   5.456   0.105   0.842  1.6573  3.1809 -0.9043
34724SOL    HW2 6805   5.352   0.105   0.952  1.8237 -2.1201 -0.4615
34725SOL     OW 6806   5.606   7.545   5.656 -0.2745  0.6047  0.6824
34725SOL    HW1 6807   5.517   7.573   5.635 -0.1251  1.0890  0.6627
34725SOL    HW2 6808   5.661   7.592   5.593 -0.2652 -2.9900 -2.3180
34726SOL     OW 6809   2.186   5.284   2.525  0.0934  0.7108  0.4334
34726SOL    HW1 6810   2.108   5.338   2.535  0.8126  1.7215  0.7683
34726SOL    HW2 6811   2.208   5.256   2.614 -1.1196 -1.4341  0.1345
34727SOL     OW 6812   5.350   6.759   5.895 -0.3274 -0.3372  0.6141
34727SOL    HW1 6813   5.378   6.721   5.812 -1.1428 -0.5541  0.4249
34727SOL    HW2 6814   5.412   6.830   5.912  0.0202 -0.4864 -0.0283
34728SOL     OW 6815   0.067   0.378   9.434 -0.1737 -0.0761  0.2633
34728SOL    HW1 6816   0.025   0.457   9.468 -0.0595 -0.0067  0.2457
34728SOL    HW2 6817   0.097   0.402   9.347  0.8128  0.2056  0.6650
34729SOL     OW 6818   0.152   4.148   9.588  0.0825  0.3637 -0.3586
34729SOL    HW1 6819   0.079   4.198   9.625 -0.3576 -0.1622 -0.4985
34729SOL    HW2 6820   0.146   4.063   9.631 -0.5904 -0.3485 -1.7939
34730SOL     OW 6821   9.877   7.635  10.341  0.0636  0.1055  0.6467
34730SOL    HW1 6822   9.796   7.644  10.392 -0.0832  2.7819  0.0888
34730SOL    HW2 6823   9.920   7.720  10.350  1.6050 -0.4415 -1.0809
34731SOL     OW 6824   6.125   5.813   6.582  0.1550  0.3878  0.2412
34731SOL    HW1 6825   6.142   5.731   6.629 -1.5078  0.9400  1.9459
34731SOL    HW2 6826   6.046   5.796   6.530 -1.2746  1.3242  1.9701
34732SOL     OW 6827   6.258   6.195   9.391 -0.2988  0.3288 -0.3049
34732SOL    HW1 6828   6.173   6.207   9.434 -1.6753  0.5007 -2.8692
34732SOL    HW2 6829   6.315   6.260   9.433 -1.7149  0.9149  0.8046
34733SOL     OW 6830   5.551  10.103   2.234 -0.4248  0.6206 -0.0997
34733SOL    HW1 6831   5.460  10.132   2.228 -0.8747 -0.4264  1.1885
34733SOL    HW2 6832   5.555  10.025   2.179 -0.7453 -0.2566  1.0694
34734SOL     OW 6833   2.227   3.372   0.805 -0.0413  0.2958  0.0105
34734SOL    HW1 6834   2.160   3.354   0.740 -0.9648  0.6149  0.8501
34734SOL    HW2 6835   2.237   3.290   0.854  0.0797  0.2941 -0.0152
34735SOL     OW 6836   8.778   8.951   8.504  0.1880  0.4673 -0.7808
34735SOL    HW1 6837   8.758   8.884   8.569 -2.1125  1.7700 -0.0054
34735SOL    HW2 6838   8.802   8.903   8.425  2.7345 -1.1618  0.8731
34736SOL     OW 6839   0.950   3.928   7.046  0.2850 -0.1426 -0.7208
34736SOL    HW1 6840   0.877   3.866   7.039 -0.4630  0.6083  0.1911
34736SOL    HW2 6841   1.014   3.883   7.101 -0.2767 -0.0995 -0.0189
34737SOL     OW 6842   4.087   3.265   5.418 -0.4791 -0.0697  0.2272
34737SOL    HW1 6843   4.093   3.349   5.371 -1.3740 -0.3022 -0.3256
34737SOL    HW2 6844   4.156   3.270   5.483 -1.0620  1.4909  0.7999
34738SOL     OW 6845   7.703   5.410   6.675  0.1359  0.0306 -0.2278
34738SOL    HW1 6846   7.686   5.472   6.747  0.2333  0.2449 -0.3893
34738SOL    HW2 6847   7.658   5.448   6.600 -0.1208 -0.2910 -0.2344
34739SOL     OW 6848   9.710   8.531   9.765  0.7993 -0.2133  0.4528
34739SOL    HW1 6849   9.782   8.532   9.828 -0.2749  1.0441  1.7437
34739SOL    HW2 6850   9.747   8.565   9.684  1.5906  0.7852  1.2074
34740SOL     OW 6851   4.189   7.159   4.935  0.0906 -0.6302  0.5645
34740SOL    HW1 6852   4.280   7.136   4.915  0.3230 -0.1125  1.0143
34740SOL    HW2 6853   4.195   7.237   4.989 -0.6249 -0.6310  0.6547
34741SOL     OW 6854   0.309   6.286   9.877  1.0414  0.0600 -0.0415
34741SOL    HW1 6855   0.241   6.345   9.910 -0.3867 -1.2253 -0.5571
34741SOL    HW2 6856   0.375   6.344   9.839  0.3673  1.3620  0.7256
34742SOL     OW 6857   4.309   3.477   0.816  0.3092  0.1656  0.1998
34742SOL    HW1 6858   4.359   3.530   0.754  0.5577  0.8131  0.9442
34742SOL    HW2 6859   4.219   3.482   0.784  0.4970  0.1331 -0.3510
34743SOL     OW 6860  10.222   6.305   5.453  0.2579 -0.1238  0.5784
34743SOL    HW1 6861  10.163   6.376   5.481  1.0866  1.1727 -0.8414
34743SOL    HW2 6862  10.309   6.334   5.481  0.4247 -1.3464  1.3815
34744SOL     OW 6863   6.342   8.700   9.074 -0.3397 -0.2517 -0.0369
34744SOL    HW1 6864   6.280   8.700   9.147  2.8100  1.2979  2.9638
34744SOL    HW2 6865   6.404   8.630   9.095  1.6525  1.3689 -0.1092
34745SOL     OW 6866   0.608   2.604   6.968  0.1752 -0.3385 -0.2347
34745SOL    HW1 6867   0.616   2.684   7.020  0.7975  0.6824 -1.8321
34745SOL    HW2 6868   0.585   2.634   6.880  2.7228 -1.6825 -1.4887
34746SOL     OW 6869   9.008   2.479   9.096 -0.3520 -0.2304 -0.2320
34746SOL    HW1 6870   9.089   2.445   9.132 -0.5346 -0.1127  0.2933
34746SOL    HW2 6871   9.008   2.572   9.119 -0.8342 -0.3173  0.1462
34747SOL     OW 6872   6.208   7.814   7.444 -0.3884 -0.5653 -0.1885
34747SOL    HW1 6873   6.249   7.872   7.379  0.5451 -0.7757  0.1892
34747SOL    HW2 6874   6.218   7.860   7.527 -0.4044 -0.8869 -0.0076
34748SOL     OW 6875   5.698   1.867   2.080  0.0816  0.0590 -0.2202
34748SOL    HW1 6876   5.746   1.816   2.015  3.6657  1.9733  0.6781
34748SOL    HW2 6877   5.682   1.805   2.152 -0.3962 -1.0619 -1.2610
34749SOL     OW 6878   7.866   8.537   5.208 -0.0536 -0.1986 -0.0502
34749SOL    HW1 6879   7.941   8.575   5.254  0.1606 -0.1393 -0.4490
34749SOL    HW2 6880   7.794   8.542   5.272  0.4512 -0.9169  0.5939
34750SOL     OW 6881   8.115   9.211   6.670 -0.5010  0.7977 -0.3157
34750SOL    HW1 6882   8.103   9.279   6.736 -1.0896 -1.0637  1.6320
34750SOL    HW2 6883   8.048   9.146   6.691 -0.7978  0.1708 -2.8932
34751SOL     OW 6884   0.211   8.553   2.942  0.5389  0.3402  0.0533
34751SOL    HW1 6885   0.167   8.599   2.871  3.1531  1.0007 -1.2601
34751SOL    HW2 6886   0.231   8.466   2.906  0.3327  0.0549  0.6148
34752SOL     OW 6887   3.450   2.116   4.264 -0.1092  0.3484  0.0756
34752SOL    HW1 6888   3.360   2.093   4.241 -0.4037  1.5534 -0.0705
34752SOL    HW2 6889   3.483   2.162   4.186  0.7410 -0.3286  0.0176
34753SOL     OW 6890   0.071   0.869   7.559  0.1064  0.0809 -0.2705
34753SOL    HW1 6891   0.143   0.906   7.610 -0.0274  0.4810 -0.3662
34753SOL    HW2 6892  -0.004   0.870   7.619  0.3944 -1.2090  0.1384
34754SOL     OW 6893   4.637   7.219   7.316 -0.8782 -0.0328 -0.1659
34754SOL    HW1 6894   4.559   7.191   7.269  0.2292 -1.1572 -1.4045
34754SOL    HW2 6895   4.709   7.177   7.270  0.5335  1.5534  0.4965
34755SOL     OW 6896   9.695   4.210   9.873  1.0112 -0.1628  0.4482
34755SOL    HW1 6897   9.665   4.297   9.897 -0.4132 -0.6954  0.6866
34755SOL    HW2 6898   9.743   4.179   9.950 -1.0001 -0.7083  1.5358
34756SOL     OW 6899   1.294   0.616   9.898  0.3037 -0.0480 -0.4626
34756SOL    HW1 6900   1.324   0.527   9.913  1.3851  0.1167 -1.5186
34756SOL    HW2 6901   1.374   0.669   9.895 -0.3400  1.0381  0.5934
34757SOL     OW 6902   2.836   6.166   3.927 -0.1230 -0.3421 -0.9288
34757SOL    HW1 6903   2.915   6.130   3.885 -0.0228  0.4579 -1.4450
34757SOL    HW2 6904   2.839   6.260   3.906 -0.5724 -0.0991  0.0827
34758SOL     OW 6905   5.932   5.325   9.946  0.6752 -0.1788 -0.5855
34758SOL    HW1 6906   5.932   5.238   9.905 -1.3922  0.5336 -2.2376
34758SOL    HW2 6907   5.862   5.373   9.902  0.6995  1.8383  1.3837
34759SOL     OW 6908   9.361   8.336   0.282  0.0177 -0.6708  0.0274
34759SOL    HW1 6909   9.265   8.334   0.291  0.1513 -1.8289  1.4340
34759SOL    HW2 6910   9.377   8.410   0.223 -1.7850 -0.9500 -0.9116
34760SOL     OW 6911   3.702   0.374   7.309 -0.3454 -0.0561  0.3309
34760SOL    HW1 6912   3.739   0.432   7.376 -1.1661 -0.9257  1.5850
34760SOL    HW2 6913   3.664   0.433   7.244  0.5202  0.8074  0.5777
34761SOL     OW 6914   6.056   1.336   6.625 -1.2378 -0.0341 -0.2689
34761SOL    HW1 6915   6.004   1.340   6.545 -1.3852  0.6096 -0.1433
34761SOL    HW2 6916   6.036   1.250   6.662  1.7017 -2.0369 -2.8182
34762SOL     OW 6917   3.574   8.862   0.314  0.2648  0.1822  0.0220
34762SOL    HW1 6918   3.488   8.900   0.331  0.2964  0.8092 -1.1686
34762SOL    HW2 6919   3.616   8.859   0.400 -0.9474 -0.1765  0.6262
34763SOL     OW 6920   9.148   2.571   8.033  0.3520  0.5037 -0.3857
34763SOL    HW1 6921   9.236   2.566   7.996  0.6395  0.4345  0.3040
34763SOL    HW2 6922   9.110   2.650   7.994 -0.3905 -1.0243 -3.0479
34764SOL     OW 6923   1.509   9.783   2.881  0.0650 -0.4050  0.2178
34764SOL    HW1 6924   1.537   9.736   2.959  0.2187  1.1811  1.1767
34764SOL    HW2 6925   1.429   9.829   2.908  0.6517  0.9393 -0.2242
34765SOL     OW 6926   8.377   6.249   3.980 -0.0378  0.5954  0.3273
34765SOL    HW1 6927   8.296   6.250   4.030 -0.4972  0.0223 -0.3712
34765SOL    HW2 6928   8.354   6.203   3.899  0.9177  0.6613  0.0051
34766SOL     OW 6929   2.190   9.286   2.681 -0.2680  0.0331 -0.0276
34766SOL    HW1 6930   2.096   9.293   2.702 -0.3180  0.1199 -0.2714
34766SOL    HW2 6931   2.195   9.310   2.588  0.2979  2.4334  0.5585
34767SOL     OW 6932   5.094   9.638   4.612  0.2884 -0.2338  0.2304
34767SOL    HW1 6933   5.109   9.690   4.691  0.8287 -1.0915  0.7050
34767SOL    HW2 6934   5.168   9.658   4.555  0.0712  0.1318  0.0730
34768SOL     OW 6935   1.639   4.956   1.654 -0.2900  0.7835 -0.5521
34768SOL    HW1 6936   1.708   4.909   1.701 -1.5227  0.9065  1.4937
34768SOL    HW2 6937   1.608   4.894   1.588  0.8932  0.2683 -0.6497
34769SOL     OW 6938   9.005   8.331   3.591 -0.4889  0.3961  0.1375
34769SOL    HW1 6939   9.070   8.265   3.565 -0.4811  0.3086  0.3719
34769SOL    HW2 6940   9.053   8.390   3.649 -0.4027  0.8227 -0.3653
34770SOL     OW 6941   1.762   7.661   3.806  0.7225 -0.3240 -0.1717
34770SOL    HW1 6942   1.816   7.693   3.734 -2.1147  0.9960 -1.9257
34770SOL    HW2 6943   1.693   7.610   3.764  0.1274 -1.3089  1.8354
34771SOL     OW 6944   0.293   2.291   7.902 -0.2002  0.5663  0.1581
34771SOL    HW1 6945   0.225   2.255   7.845 -2.0479  2.4785  0.9732
34771SOL    HW2 6946   0.335   2.360   7.850  0.8155 -0.2906 -0.1796
34772SOL     OW 6947   5.630   4.049   5.502  0.6502  0.0623  0.3524
34772SOL    HW1 6948   5.547   4.039   5.548  0.5399  0.5571  0.2667
34772SOL    HW2 6949   5.667   4.130   5.538  0.1322  0.9634 -1.0804
34773SOL     OW 6950   7.031   6.068   9.981 -0.3066 -0.4155 -0.1991
34773SOL    HW1 6951   6.956   6.053   9.924 -0.7294  0.3457  0.1531
34773SOL    HW2 6952   7.030   5.995  10.042 -0.6090 -0.5425 -0.3553
34774SOL     OW 6953   4.841   2.240   0.156 -0.2349 -0.0794 -0.5200
34774SOL    HW1 6954   4.901   2.167   0.171 -0.4966 -0.2870 -0.4920
34774SOL    HW2 6955   4.898   2.312   0.127  0.1649  0.0458  0.5173
34775SOL     OW 6956   8.958   8.442   5.148  0.5314  0.5484  0.1891
34775SOL    HW1 6957   8.868   8.409   5.144  0.5583  0.5521 -0.7150
34775SOL    HW2 6958   9.001   8.386   5.212  0.7732 -1.7194 -1.8016
34776SOL     OW 6959   6.568   3.669   6.690 -1.0671 -0.4066 -0.0708
34776SOL    HW1 6960   6.643   3.700   6.741 -1.0898  0.0914 -0.3346
34776SOL    HW2 6961   6.514   3.747   6.677 -0.1883 -0.0925 -2.3569
34777SOL     OW 6962   6.037   6.263   4.800  0.2981 -0.6161 -0.4094
34777SOL    HW1 6963   5.990   6.215   4.868 -2.4895  0.0751 -1.6894
34777SOL    HW2 6964   6.089   6.327   4.848 -0.4673 -1.0713  1.1195
34778SOL     OW 6965   6.796   3.706   3.751 -0.2404  0.7551 -0.4152
34778SOL    HW1 6966   6.818   3.613   3.760 -0.8667  0.3787 -2.3409
34778SOL    HW2 6967   6.879   3.748   3.727 -0.1465  0.5541 -0.4427
34779SOL     OW 6968   9.058   6.517   1.040  0.6345  0.7326  0.0563
34779SOL    HW1 6969   9.149   6.548   1.040  0.5629  0.9480  0.1699
34779SOL    HW2 6970   9.035   6.511   0.947  0.7352  0.7652  0.0289
34780SOL     OW 6971   0.053   3.192   3.731  0.0221  0.0561 -0.6601
34780SOL    HW1 6972   0.024   3.149   3.812  0.8067  1.2089  0.2706
34780SOL    HW2 6973   0.149   3.180   3.732  0.0967  0.6170 -1.1023
34781SOL     OW 6974   5.100   1.565   7.646  0.0950 -0.0221  0.2309
34781SOL    HW1 6975   5.012   1.602   7.657  0.1746  1.6062 -3.1351
34781SOL    HW2 6976   5.137   1.614   7.572  4.0649 -0.3065  1.7773
34782SOL     OW 6977   4.180   7.045   1.276 -0.6272 -0.1502 -0.1620
34782SOL    HW1 6978   4.254   7.006   1.227 -0.9921 -0.7502 -0.2483
34782SOL    HW2 6979   4.183   7.002   1.361  0.4375  1.4057  0.6288
34783SOL     OW 6980   7.302   2.548   3.313 -0.4500 -0.0801  0.5573
34783SOL    HW1 6981   7.284   2.619   3.252 -1.6118 -1.5302 -0.8924
34783SOL    HW2 6982   7.286   2.586   3.400 -0.1754  1.6415 -0.1069
34784SOL     OW 6983   4.678   0.649   7.992  0.6487 -0.2376 -0.4069
34784SOL    HW1 6984   4.658   0.717   8.056 -2.0227  0.8176 -2.1687
34784SOL    HW2 6985   4.645   0.568   8.032  1.6893 -0.1554  0.6977
34785SOL     OW 6986   8.552   4.212   0.839  0.2321  0.5126 -0.1206
34785SOL    HW1 6987   8.500   4.149   0.888  0.8134 -0.0734 -0.2500
34785SOL    HW2 6988   8.642   4.198   0.869  0.6680 -0.1701 -1.6432
34786SOL     OW 6989   1.149   5.422   2.646 -0.6139 -0.2374  0.7118
34786SOL    HW1 6990   1.116   5.507   2.615  1.0729 -0.4447 -2.0010
34786SOL    HW2 6991   1.151   5.431   2.741 -2.9667  1.7682  0.6808
34787SOL     OW 6992   3.450   2.697   2.864 -0.1906 -0.0692  0.0927
34787SOL    HW1 6993   3.521   2.744   2.821  0.0831 -0.2495  0.3383
34787SOL    HW2 6994   3.429   2.750   2.940 -0.3399 -0.0002  0.0027
34788SOL     OW 6995   9.368   4.133   4.378 -0.3509 -0.2674  0.4885
34788SOL    HW1 6996   9.311   4.063   4.346 -0.0604 -0.0751 -0.4978
34788SOL    HW2 6997   9.327   4.163   4.459 -2.3012  0.5991 -0.7475
34789SOL     OW 6998   9.112   1.657   8.160  0.1373  0.0692  0.0127
34789SOL    HW1 6999   9.166   1.734   8.142 -0.1475  0.8968  2.3061
34789SOL    HW2 7000   9.028   1.676   8.118  0.2553  0.7688  0.0816
34790SOL     OW 7001   1.749   5.538   1.471 -0.0116  0.3967  0.4928
34790SOL    HW1 7002   1.696   5.481   1.414  1.1247  0.8343 -1.0710
34790SOL    HW2 7003   1.697   5.618   1.480 -0.6495 -0.0533  0.9225
34791SOL     OW 7004   3.475   8.952   8.881 -0.2624 -0.0651  0.5526
34791SOL    HW1 7005   3.438   9.028   8.926  0.5377 -0.8198  2.6201
34791SOL    HW2 7006   3.559   8.937   8.924  0.2933 -1.2202 -0.8383
34792SOL     OW 7007   9.540   3.668   3.216  0.2991  0.1029  0.0467
34792SOL    HW1 7008   9.615   3.706   3.170 -1.7041 -0.3157 -4.0582
34792SOL    HW2 7009   9.558   3.574   3.218  0.5687  0.1631  0.5145
34793SOL     OW 7010   4.421   7.311   3.186 -0.0171  0.0854 -0.4340
34793SOL    HW1 7011   4.462   7.373   3.247  0.1719  0.2341 -0.7078
34793SOL    HW2 7012   4.490   7.249   3.165  0.2736  0.7284 -1.4204
34794SOL     OW 7013   8.523   4.225   6.603 -0.1137  0.4808 -0.0523
34794SOL    HW1 7014   8.467   4.161   6.647 -0.1995  0.0511 -0.7612
34794SOL    HW2 7015   8.471   4.305   6.600 -0.2237  0.4245  0.3499
34795SOL     OW 7016   4.006   3.964   7.471 -0.4364  0.2549  0.5716
34795SOL    HW1 7017   4.098   3.937   7.476 -0.0660  1.1620 -0.8823
34795SOL    HW2 7018   3.957   3.882   7.467  0.3086 -0.2340  1.3113
34796SOL     OW 7019   2.498   5.963   7.394 -0.4185 -0.2525 -0.5201
34796SOL    HW1 7020   2.403   5.954   7.407 -0.4086  0.1850 -0.1267
34796SOL    HW2 7021   2.534   5.878   7.419 -0.6412 -0.2012 -0.0263
34797SOL     OW 7022   6.298   3.636   0.542 -0.4590  0.0103  0.1058
34797SOL    HW1 7023   6.343   3.551   0.537  2.0863  1.3259 -0.5480
34797SOL    HW2 7024   6.269   3.653   0.453  0.3635  0.4972 -0.0742
34798SOL     OW 7025   8.828   0.247   5.424 -0.4307 -0.3842  0.5728
34798SOL    HW1 7026   8.789   0.333   5.442  0.6759  0.2581  0.0137
34798SOL    HW2 7027   8.863   0.255   5.335  2.7185 -0.2408  1.7127
34799SOL     OW 7028   2.203   1.595   0.315  0.0803  0.0332  0.5799
34799SOL    HW1 7029   2.216   1.605   0.409 -0.0124 -0.1641  0.6166
34799SOL    HW2 7030   2.113   1.562   0.307  0.1626 -0.1581  0.4368
34800SOL     OW 7031   4.735   9.677   9.940  0.0190 -0.3323 -0.0329
34800SOL    HW1 7032   4.765   9.699   9.852  0.2069 -0.1323  0.0808
34800SOL    HW2 7033   4.686   9.595   9.929  0.0470 -0.3105 -0.3213
34801SOL     OW 7034   0.244  10.321   0.480  0.2007  0.3814  0.3092
34801SOL    HW1 7035   0.178  10.348   0.544  0.7240  0.9303  0.6247
34801SOL    HW2 7036   0.227  10.375   0.403 -0.5815 -0.4445 -0.1331
34802SOL     OW 7037   9.215   9.612   3.065  0.3600  0.4799 -0.1874
34802SOL    HW1 7038   9.225   9.577   2.977  1.0265 -0.1114  0.1095
34802SOL    HW2 7039   9.210   9.535   3.121  0.1351  0.8514  0.3114
34803SOL     OW 7040   9.263   9.877   6.262 -0.2727 -0.0016  0.5485
34803SOL    HW1 7041   9.242   9.854   6.353 -1.7380  0.1114  0.2736
34803SOL    HW2 7042   9.354   9.906   6.265  0.1089 -1.2356  1.7440
34804SOL     OW 7043  10.083   5.629   6.224  0.5788 -0.1313  0.1416
34804SOL    HW1 7044  10.028   5.562   6.184  2.4758 -1.2331 -0.7558
34804SOL    HW2 7045  10.112   5.589   6.307  0.3773  0.2840  0.4167
34805SOL     OW 7046   0.856   9.532   5.645  0.3986 -0.8945 -0.8517
34805SOL    HW1 7047   0.840   9.564   5.556  0.3736 -0.8014 -0.8135
34805SOL    HW2 7048   0.794   9.460   5.656  0.6801 -1.1702 -1.0550
34806SOL     OW 7049   8.419   7.151   2.680 -0.0746 -0.3549  0.3147
34806SOL    HW1 7050   8.358   7.115   2.745 -0.7647  0.3023  0.0395
34806SOL    HW2 7051   8.363   7.185   2.611  0.5791  0.8768  0.3735
34807SOL     OW 7052   0.689   0.001  10.046  0.2191  0.2845 -0.0803
34807SOL    HW1 7053   0.655   0.051   9.972  1.1949  0.0436 -0.7006
34807SOL    HW2 7054   0.638  -0.081  10.045 -1.1516  1.0769  0.7429
34808SOL     OW 7055   8.882   4.669   2.435  0.3180 -0.3237 -1.0769
34808SOL    HW1 7056   8.787   4.664   2.443  0.1406  1.8804 -1.3540
34808SOL    HW2 7057   8.910   4.728   2.505  1.2579  0.5024 -2.1082
34809SOL     OW 7058   2.083   7.585   2.823 -0.9956 -0.1053 -0.1486
34809SOL    HW1 7059   2.000   7.537   2.817 -1.9769  1.5119 -0.0485
34809SOL    HW2 7060   2.089   7.634   2.741  0.3638 -0.9341 -0.5761
34810SOL     OW 7061  10.303   0.477   2.412 -0.3072 -0.2907 -0.0862
34810SOL    HW1 7062  10.386   0.440   2.444  0.8658  1.2811 -1.1427
34810SOL    HW2 7063  10.267   0.523   2.488 -0.4217 -1.2758  0.4785
34811SOL     OW 7064   7.893   0.993   4.082  0.2651 -0.0774 -0.3885
34811SOL    HW1 7065   7.929   1.063   4.027  0.4202  0.5149  0.4420
34811SOL    HW2 7066   7.928   0.912   4.045 -0.4282  0.2216 -1.7699
34812SOL     OW 7067   5.331   0.170   0.309  1.0584  0.5939  0.6150
34812SOL    HW1 7068   5.265   0.143   0.373  1.0697  0.6146  0.6356
34812SOL    HW2 7069   5.407   0.116   0.329  0.9347  0.3299  0.3681
34813SOL     OW 7070   8.653   9.486   1.087 -0.5145  0.4694  0.0588
34813SOL    HW1 7071   8.630   9.576   1.108 -1.5156 -0.3172  2.6499
34813SOL    HW2 7072   8.571   9.438   1.094  0.2811 -0.9093  0.2490
34814SOL     OW 7073   6.591   4.994   3.479  0.6445 -0.3314 -0.2363
34814SOL    HW1 7074   6.558   5.079   3.448  0.8884  0.2124  0.9658
34814SOL    HW2 7075   6.542   4.930   3.428 -0.2539  0.5151 -0.4689
34815SOL     OW 7076   2.672   4.267   1.671  0.1482  0.0342 -0.5815
34815SOL    HW1 7077   2.692   4.195   1.610  1.5795 -0.9299  0.9156
34815SOL    HW2 7078   2.753   4.318   1.674 -0.1862  0.5388 -0.1174
34816SOL     OW 7079   2.731   3.707   5.533 -0.1468  0.2773 -0.2128
34816SOL    HW1 7080   2.657   3.748   5.488 -0.0425  1.3584  0.5319
34816SOL    HW2 7081   2.779   3.661   5.464 -1.9533 -1.1768 -0.5756
34817SOL     OW 7082   5.165   1.833   0.204 -0.2170 -0.1185 -0.5805
34817SOL    HW1 7083   5.177   1.773   0.131 -1.2476 -0.8364 -0.1844
34817SOL    HW2 7084   5.115   1.782   0.269 -0.8163  1.0546 -0.0978
34818SOL     OW 7085   0.086   5.978   8.116  0.1077  0.5826  0.2748
34818SOL    HW1 7086   0.132   6.013   8.040 -4.3104  0.5383 -2.8259
34818SOL    HW2 7087   0.091   5.883   8.105 -0.2730  0.5693  0.2084
34819SOL     OW 7088   1.925   4.009   2.409 -0.1621 -0.1968 -0.1305
34819SOL    HW1 7089   1.992   3.945   2.385  0.1239  0.6256 -1.6695
34819SOL    HW2 7090   1.849   3.956   2.432  0.8039 -1.1325  1.0666
34820SOL     OW 7091   0.578   9.980   4.497  0.4700  0.3316  0.3372
34820SOL    HW1 7092   0.495   9.999   4.541 -0.0935  2.3336 -1.4358
34820SOL    HW2 7093   0.640  10.040   4.538  0.4941  0.4986  0.0568
34821SOL     OW 7094   5.145  10.322   4.893  0.3487  0.2429  0.4870
34821SOL    HW1 7095   5.206  10.299   4.823 -0.3618 -0.5931  0.1178
34821SOL    HW2 7096   5.154  10.416   4.904 -1.0999  0.8021 -2.2740
34822SOL     OW 7097   1.348   2.851   5.654  0.4741 -0.0167  0.5527
34822SOL    HW1 7098   1.334   2.807   5.570 -0.8293  2.6013 -0.7576
34822SOL    HW2 7099   1.437   2.885   5.649  0.0643  1.0228 -0.3204
34823SOL     OW 7100   6.454   7.714   9.246 -0.3368  0.2936  0.8290
34823SOL    HW1 7101   6.372   7.668   9.263  1.3550 -2.3013  2.7205
34823SOL    HW2 7102   6.479   7.751   9.331  1.0773 -0.1164  0.6209
34824SOL     OW 7103   9.169   9.617   7.799 -0.0036 -0.4948  0.5314
34824SOL    HW1 7104   9.150   9.600   7.707 -0.7179  0.2777  0.5176
34824SOL    HW2 7105   9.220   9.699   7.798 -1.4316  0.4294  0.9043
34825SOL     OW 7106   1.841   4.854   5.102 -0.1751  0.1857  0.1713
34825SOL    HW1 7107   1.925   4.897   5.083  0.8982 -0.6181  2.7353
34825SOL    HW2 7108   1.792   4.862   5.020  1.6054  2.4591 -0.7951
34826SOL     OW 7109   4.543   1.638   6.048  0.3095  0.2352  0.2358
34826SOL    HW1 7110   4.530   1.560   5.993  3.0403  0.0849 -0.3596
34826SOL    HW2 7111   4.533   1.711   5.987 -0.6255  0.2827  0.4373
34827SOL     OW 7112   1.933   7.600   0.442  0.4651  0.0091  1.1462
34827SOL    HW1 7113   1.939   7.626   0.534 -0.8455  1.3971  0.8954
34827SOL    HW2 7114   1.975   7.672   0.395 -0.2606  0.0899  0.6031
34828SOL     OW 7115   9.530   4.979   1.703  0.2752  0.1218  0.3339
34828SOL    HW1 7116   9.537   4.884   1.703  0.8149  0.1586  0.1493
34828SOL    HW2 7117   9.594   5.008   1.767 -1.2505  0.2799  1.8560
34829SOL     OW 7118   0.559   9.582   3.434 -0.0720 -0.2531 -0.1975
34829SOL    HW1 7119   0.628   9.519   3.456 -1.5746 -1.7712  0.3614
34829SOL    HW2 7120   0.538   9.624   3.517  0.2068  0.2605 -0.3819
34830SOL     OW 7121   7.978   3.519   6.309 -0.8651  0.4919 -0.1441
34830SOL    HW1 7122   7.942   3.593   6.356 -0.4555 -0.0290  1.0246
34830SOL    HW2 7123   8.068   3.545   6.288 -1.1595  0.8697 -1.0052
34831SOL     OW 7124   6.731   9.578   4.353 -0.3709  0.1320  0.5733
34831SOL    HW1 7125   6.688   9.624   4.281  0.5108  0.9162  0.5272
34831SOL    HW2 7126   6.818   9.556   4.319  0.2836  1.0686  1.5946
34832SOL     OW 7127   2.900   8.966   0.162  0.2432  0.3725  0.4800
34832SOL    HW1 7128   2.882   9.048   0.207  0.4654  1.2036 -0.9009
34832SOL    HW2 7129   2.991   8.946   0.184 -0.0454  0.0502  1.4609
34833SOL     OW 7130  10.142   9.707   3.342 -0.0216 -0.0188  0.5319
34833SOL    HW1 7131  10.230   9.669   3.346  0.3248  0.1757 -2.7616
34833SOL    HW2 7132  10.103   9.684   3.427  2.5390 -1.6786  1.3979
34834SOL     OW 7133   9.040   8.617   3.793  0.4253  0.2020 -0.3043
34834SOL    HW1 7134   9.085   8.701   3.798  1.1122 -0.0200 -2.1504
34834SOL    HW2 7135   9.079   8.565   3.863 -0.3510  1.5244  1.1907
34835SOL     OW 7136   8.906   0.368   1.414  0.1919  0.1262 -0.3316
34835SOL    HW1 7137   8.914   0.417   1.332  0.7491  0.5319 -0.0371
34835SOL    HW2 7138   8.932   0.430   1.482  0.7398 -0.5248  0.0639
34836SOL     OW 7139   9.200  10.107   6.089 -0.2461  0.0699 -0.0166
34836SOL    HW1 7140   9.255  10.181   6.116 -0.0868  0.4003 -1.1625
34836SOL    HW2 7141   9.209  10.043   6.160  0.3759  0.7593  0.5482
34837SOL     OW 7142   0.997   1.896   8.178  0.7132 -0.8487 -0.3127
34837SOL    HW1 7143   0.962   1.963   8.121  1.8833  0.7893  0.7825
34837SOL    HW2 7144   1.071   1.859   8.130 -0.1998 -1.6934 -1.0974
34838SOL     OW 7145   8.227   3.700   3.985  0.7540  0.3164  0.0560
34838SOL    HW1 7146   8.244   3.751   3.905  0.3097  0.1324 -0.1556
34838SOL    HW2 7147   8.312   3.662   4.007  1.3041  1.8554  0.7102
34839SOL     OW 7148   8.741   7.966   0.534  0.2038 -0.1080  0.1948
34839SOL    HW1 7149   8.677   7.947   0.466 -0.1071  0.2236  0.3916
34839SOL    HW2 7150   8.743   7.888   0.588  0.2900 -0.2881 -0.0662
34840SOL     OW 7151   2.025   2.174   8.760  0.6651 -0.0916 -0.4417
34840SOL    HW1 7152   2.037   2.192   8.667  1.3181  0.5310 -0.2420
34840SOL    HW2 7153   1.965   2.243   8.790 -1.2483 -1.5031 -0.8210
34841SOL     OW 7154   7.539   9.402  10.210  0.0128  0.5021 -0.3123
34841SOL    HW1 7155   7.570   9.400  10.119  0.9609 -0.6958  0.0163
34841SOL    HW2 7156   7.617   9.418  10.262  0.7028 -4.5631  0.6938
34842SOL     OW 7157   1.350   3.477   6.061  0.3572 -0.1916 -0.4241
34842SOL    HW1 7158   1.265   3.467   6.104  0.2593  0.8819 -0.3336
34842SOL    HW2 7159   1.367   3.571   6.064  1.1276 -0.2916 -1.2549
34843SOL     OW 7160   8.518   7.505   1.952  0.2689 -0.1844 -0.5197
34843SOL    HW1 7161   8.565   7.537   1.875 -0.4867  2.6615  0.0867
34843SOL    HW2 7162   8.425   7.507   1.927  0.0309  0.5487  0.3800
34844SOL     OW 7163   8.751   2.842   1.468  0.0981  0.1072 -0.3467
34844SOL    HW1 7164   8.800   2.878   1.542  2.2227 -1.5512 -0.8550
34844SOL    HW2 7165   8.659   2.856   1.491  0.6134 -1.2716  3.1212
34845SOL     OW 7166   1.844   0.640   8.918 -0.6565 -0.2539 -0.0101
34845SOL    HW1 7167   1.780   0.693   8.870 -0.0243 -0.8072 -1.5448
34845SOL    HW2 7168   1.852   0.683   9.003  0.0131  2.3017 -1.2488
34846SOL     OW 7169   6.709  10.128   5.753 -0.3849  0.0297  0.3551
34846SOL    HW1 7170   6.773  10.148   5.822 -1.3396  2.4588  0.6104
34846SOL    HW2 7171   6.646  10.199   5.758 -0.7701 -0.0001 -2.7268
34847SOL     OW 7172   0.042   6.463   4.919  0.2978 -0.0397  0.5656
34847SOL    HW1 7173   0.031   6.437   4.827 -0.2752  1.6293  0.1212
34847SOL    HW2 7174   0.063   6.381   4.965  0.3279 -0.9529 -0.9972
34848SOL     OW 7175   6.175   7.527   5.627 -0.0140 -0.3471 -0.7665
34848SOL    HW1 7176   6.164   7.438   5.660  0.6537  0.1467  0.9498
34848SOL    HW2 7177   6.139   7.582   5.696  1.0078  0.7566 -1.0692
34849SOL     OW 7178   1.661   3.559   1.031  0.2399  0.5504 -0.8314
34849SOL    HW1 7179   1.710   3.590   1.108  1.0461 -1.7620 -0.3351
34849SOL    HW2 7180   1.659   3.464   1.041 -0.8103  0.2935 -3.0178
34850SOL     OW 7181   5.755   3.564   2.647  0.3321  0.0983 -0.3506
34850SOL    HW1 7182   5.725   3.636   2.591 -1.7791  0.8464  1.5944
34850SOL    HW2 7183   5.807   3.606   2.714 -1.5338  0.0221  1.2406
34851SOL     OW 7184   3.416   8.832  10.185 -0.7424  0.7148 -0.3917
34851SOL    HW1 7185   3.395   8.803  10.096 -1.8257 -0.0095  0.0709
34851SOL    HW2 7186   3.360   8.778  10.241  1.5565 -0.4960  0.8903
34852SOL     OW 7187   0.520   7.148   2.836 -0.1804 -0.0530  0.3289
34852SOL    HW1 7188   0.514   7.068   2.889  0.0868  1.8465  3.4737
34852SOL    HW2 7189   0.614   7.160   2.822 -0.3164 -1.5440 -2.3817
34853SOL     OW 7190   7.592   0.928   9.330 -0.3294 -0.1332 -0.5271
34853SOL    HW1 7191   7.537   0.949   9.406 -0.7211 -1.4334 -0.4289
34853SOL    HW2 7192   7.547   0.967   9.256  0.2175  1.4281 -0.0810
34854SOL     OW 7193   3.253   8.905   6.739 -0.4543  0.4878  0.4905
34854SOL    HW1 7194   3.305   8.834   6.777 -0.8887 -0.4750 -0.6514
34854SOL    HW2 7195   3.282   8.910   6.648 -2.5136 -0.2860 -0.2733
34855SOL     OW 7196   4.253   2.333   5.347 -0.2740  0.0445 -0.3807
34855SOL    HW1 7197   4.215   2.365   5.429  0.1651 -2.8586  1.1022
34855SOL    HW2 7198   4.341   2.372   5.345 -0.7921  1.2660 -0.2527
34856SOL     OW 7199   0.655   5.495   5.109 -0.0121 -0.4334 -0.4361
34856SOL    HW1 7200   0.684   5.493   5.200 -0.1315 -1.4503 -0.4093
34856SOL    HW2 7201   0.724   5.541   5.062  0.6567 -1.0157 -0.0365
34857SOL     OW 7202   8.905   6.677  10.351 -0.2929  0.2694 -0.2553
34857SOL    HW1 7203   8.883   6.635  10.268  0.4486  0.6472 -0.6623
34857SOL    HW2 7204   8.986   6.725  10.332 -0.2873  0.6161  0.6053
34858SOL     OW 7205   4.043   3.802   4.214 -0.4330 -0.7670 -0.3680
34858SOL    HW1 7206   4.138   3.791   4.217 -0.0028  1.8564 -1.4220
34858SOL    HW2 7207   4.012   3.729   4.161  0.9752 -1.6181 -0.0908
34859SOL     OW 7208   7.597   1.474   1.399 -0.7878  0.2561 -0.2064
34859SOL    HW1 7209   7.578   1.561   1.431 -1.4365 -0.4002  1.2551
34859SOL    HW2 7210   7.614   1.486   1.305 -2.0370  1.7690 -0.2704
34860SOL     OW 7211   1.359   7.729   2.415  0.2358  0.0148 -0.0594
34860SOL    HW1 7212   1.429   7.668   2.437  0.4664 -0.6605 -2.3328
34860SOL    HW2 7213   1.279   7.675   2.416  0.3500 -0.2261 -1.4103
34861SOL     OW 7214   1.690   2.758   1.124 -0.7089  0.1102 -0.5903
34861SOL    HW1 7215   1.670   2.700   1.197  1.2746 -2.6836 -2.0880
34861SOL    HW2 7216   1.753   2.821   1.160 -1.4341  0.1821  0.6018
34862SOL     OW 7217   5.980   8.721   5.414 -0.8799 -0.0855  0.1705
34862SOL    HW1 7218   5.893   8.752   5.439 -0.6018  1.4853 -0.6972
34862SOL    HW2 7219   5.981   8.729   5.319  0.0022 -0.7098  0.1190
34863SOL     OW 7220   2.673   7.924   9.632 -0.0204  0.0797  0.4737
34863SOL    HW1 7221   2.617   7.978   9.689 -0.7414  0.8346 -0.8945
34863SOL    HW2 7222   2.612   7.872   9.580  0.6656 -2.4915  2.0701
34864SOL     OW 7223   0.313   0.091   2.818 -0.1510  0.2184 -0.9132
34864SOL    HW1 7224   0.382   0.156   2.808  1.1031 -1.1879 -1.7270
34864SOL    HW2 7225   0.356   0.015   2.858 -1.7942  0.1912  0.9714
34865SOL     OW 7226   1.853   7.677   3.363 -0.0673  0.2846 -0.0015
34865SOL    HW1 7227   1.855   7.725   3.280 -0.8106 -1.5915 -1.1596
34865SOL    HW2 7228   1.852   7.585   3.338 -0.3691 -0.3461  2.1023
34866SOL     OW 7229   8.399   7.283   5.467  0.3235  0.4856 -0.5123
34866SOL    HW1 7230   8.410   7.192   5.492  1.6424  0.8650  0.3761
34866SOL    HW2 7231   8.399   7.331   5.550  2.8257  1.5929 -1.0773
34867SOL     OW 7232   6.857   0.876   5.997  0.5362 -0.5138  0.1776
34867SOL    HW1 7233   6.783   0.906   6.049  0.4859 -0.1844 -0.0816
34867SOL    HW2 7234   6.827   0.795   5.956  1.0327 -1.5017  1.7221
34868SOL     OW 7235   4.034   4.100   9.269 -0.2246  0.3575 -0.4034
34868SOL    HW1 7236   4.008   4.040   9.199  1.4308 -2.0157  0.8609
34868SOL    HW2 7237   4.126   4.118   9.251  0.4028 -0.7993  1.4067
34869SOL     OW 7238   2.270   4.872   4.492 -0.2531 -0.0324  0.4484
34869SOL    HW1 7239   2.293   4.880   4.585 -1.2033  2.0729  0.5517
34869SOL    HW2 7240   2.269   4.777   4.476  0.5624 -0.4198  2.4022
34870SOL     OW 7241   5.240  10.311  10.068 -0.3105 -0.6575 -0.2370
34870SOL    HW1 7242   5.261  10.314   9.975 -2.0880 -1.0843 -0.6979
34870SOL    HW2 7243   5.145  10.325  10.071 -0.4226 -1.5801  1.4377
34871SOL     OW 7244   1.172   0.269   3.403  0.0243 -0.4380  0.1193
34871SOL    HW1 7245   1.234   0.232   3.341 -0.4406 -0.3776 -0.3952
34871SOL    HW2 7246   1.184   0.219   3.483  0.4744 -0.6681 -0.0936
34872SOL     OW 7247   8.461   0.744   9.414 -0.0367  0.3287 -0.1101
34872SOL    HW1 7248   8.488   0.806   9.346 -0.1022  1.0792  0.5310
34872SOL    HW2 7249   8.395   0.689   9.371  2.2273 -1.4204 -1.6579
34873SOL     OW 7250   5.048  10.050   3.989 -0.4486  0.0989 -0.2941
34873SOL    HW1 7251   5.078  10.112   4.055  2.4403  0.3309 -1.6636
34873SOL    HW2 7252   5.043   9.966   4.034 -0.4896  0.6044  0.6610
34874SOL     OW 7253   2.755   1.093   0.846 -0.2827 -0.6333 -0.0399
34874SOL    HW1 7254   2.778   1.155   0.777 -1.2612  0.9563  1.0034
34874SOL    HW2 7255   2.660   1.082   0.838 -0.5066  0.0789  1.4367
34875SOL     OW 7256   6.295   8.314   6.271 -0.2770  0.2302 -0.3695
34875SOL    HW1 7257   6.353   8.280   6.339 -1.2557  0.9382  0.8579
34875SOL    HW2 7258   6.320   8.406   6.263 -0.9187  0.4311 -0.1410
34876SOL     OW 7259   9.726   8.649   1.062 -0.0202  0.4492  0.2943
34876SOL    HW1 7260   9.633   8.663   1.080  0.2402  1.1824  1.1842
34876SOL    HW2 7261   9.767   8.733   1.085  0.9137 -0.0071  0.3148
34877SOL     OW 7262   0.505   3.935   3.149 -0.4695 -0.5497 -0.3430
34877SOL    HW1 7263   0.443   3.878   3.195 -0.2186 -1.3705 -0.9857
34877SOL    HW2 7264   0.450   3.994   3.098 -0.7503 -1.4456 -1.1160
34878SOL     OW 7265   1.443   3.729   7.111  0.2607  0.2802  0.0518
34878SOL    HW1 7266   1.437   3.796   7.179  2.0990 -0.5734  1.1420
34878SOL    HW2 7267   1.485   3.655   7.154  0.3781 -0.7391 -1.7191
34879SOL     OW 7268   0.827   6.694   6.472  0.1242 -0.0045  0.1492
34879SOL    HW1 7269   0.766   6.694   6.399 -1.2283 -0.6122  1.2353
34879SOL    HW2 7270   0.908   6.656   6.437 -0.2562  0.3802 -1.1905
34880SOL     OW 7271   3.682   5.675   0.833 -0.1698  0.4134  0.3420
34880SOL    HW1 7272   3.673   5.748   0.773  0.6196 -0.0190 -0.3296
34880SOL    HW2 7273   3.687   5.598   0.776  0.2555 -0.0365  0.9723
34881SOL     OW 7274   0.346   6.042   1.584  0.1854 -0.1452  0.4875
34881SOL    HW1 7275   0.425   5.991   1.565 -0.1705 -0.6541  0.3625
34881SOL    HW2 7276   0.273   5.983   1.562 -0.2305  0.0471  1.3239
34882SOL     OW 7277   0.955   1.854   0.712  0.0930  0.2541  0.0299
34882SOL    HW1 7278   0.907   1.929   0.676  0.2572  0.4446  0.2032
34882SOL    HW2 7279   0.961   1.792   0.639 -0.1622  0.3514 -0.0765
34883SOL     OW 7280   6.127   9.437   7.782 -0.0369 -0.1583 -0.0795
34883SOL    HW1 7281   6.133   9.507   7.848  2.3322  0.3971 -0.7838
34883SOL    HW2 7282   6.218   9.408   7.770 -0.7861 -2.4104 -0.8572
34884SOL     OW 7283   9.198   6.739   5.158 -0.1365 -0.1300  0.0075
34884SOL    HW1 7284   9.105   6.753   5.175 -0.6464  0.0882 -2.5866
34884SOL    HW2 7285   9.210   6.645   5.167 -0.7972 -0.2616 -0.4068
34885SOL     OW 7286   2.187   4.522   2.447  0.4000  0.2754  0.4942
34885SOL    HW1 7287   2.198   4.518   2.542  1.2239 -1.0150  0.3704
34885SOL    HW2 7288   2.233   4.602   2.420 -0.7613  1.2443  1.2617
34886SOL     OW 7289   5.360   4.242   3.864  0.1089 -0.1815 -0.3907
34886SOL    HW1 7290   5.349   4.337   3.859  0.3070 -0.0959  0.6750
34886SOL    HW2 7291   5.326   4.218   3.950 -2.1895 -1.4115 -1.5342
34887SOL     OW 7292   4.627   1.694   4.467  0.0930 -0.0815  0.1677
34887SOL    HW1 7293   4.554   1.745   4.504 -0.0611 -0.1613 -0.0264
34887SOL    HW2 7294   4.686   1.760   4.430  0.0717 -0.0219  0.2395
34888SOL     OW 7295   1.655   2.696   3.485 -0.0657  0.4610  0.2229
34888SOL    HW1 7296   1.617   2.658   3.406 -0.2489  0.7352  0.1766
34888SOL    HW2 7297   1.748   2.674   3.479 -0.4424 -1.5536  1.1161
34889SOL     OW 7298   6.970   1.418   7.149  0.0956  0.3921 -0.3354
34889SOL    HW1 7299   6.941   1.465   7.071  1.9135  1.3121 -0.5205
34889SOL    HW2 7300   7.060   1.392   7.130  1.1067  1.8920  1.9161
34890SOL     OW 7301   4.853   8.654   3.823 -0.2809  0.3016  0.4208
34890SOL    HW1 7302   4.777   8.712   3.828  0.8084  1.8129  0.4163
34890SOL    HW2 7303   4.910   8.695   3.758  0.8946 -0.3134  1.0217
34891SOL     OW 7304   9.915   6.551   4.492 -0.2604  0.4961 -0.2578
34891SOL    HW1 7305   9.870   6.518   4.570 -0.1791  0.3607 -0.2670
34891SOL    HW2 7306   9.848   6.596   4.442  0.0589  2.2071  0.7865
34892SOL     OW 7307   4.201   3.133   2.590  0.6266 -0.3779  0.2191
34892SOL    HW1 7308   4.208   3.196   2.662  0.6385  0.0474 -0.1505
34892SOL    HW2 7309   4.248   3.174   2.518  1.5441 -1.2789  0.2891
34893SOL     OW 7310   6.940   7.385   9.273 -0.3543  0.0483 -0.2912
34893SOL    HW1 7311   6.948   7.473   9.311 -0.5656  1.2681 -2.8037
34893SOL    HW2 7312   6.850   7.382   9.239  0.6093  0.2224 -3.1089
34894SOL     OW 7313   2.016   9.732   2.440 -0.3730  0.1880 -0.4457
34894SOL    HW1 7314   2.067   9.687   2.506  0.0263 -0.1972 -1.0052
34894SOL    HW2 7315   2.062   9.714   2.358 -0.6028  1.0293 -0.7696
34895SOL     OW 7316   4.462   9.123   9.829  0.6603  0.5998  0.2631
34895SOL    HW1 7317   4.440   9.039   9.790  0.0387 -0.1294  2.0634
34895SOL    HW2 7318   4.420   9.187   9.772 -0.2070 -0.4092 -0.2784
34896SOL     OW 7319   6.991   9.858   0.108 -0.7555  0.4697 -0.8495
34896SOL    HW1 7320   6.933   9.864   0.183  1.5828 -0.4603  1.1579
34896SOL    HW2 7321   6.957   9.922   0.046 -0.8734  3.8049  2.3426
34897SOL     OW 7322   6.992   1.516   6.337 -0.0116  0.1595  0.0922
34897SOL    HW1 7323   7.039   1.571   6.400 -1.9081  0.2567  1.5285
34897SOL    HW2 7324   7.059   1.458   6.301  1.2395  0.3320  1.9848
34898SOL     OW 7325   2.051   8.464   8.531  0.2377  0.1787 -0.5437
34898SOL    HW1 7326   2.014   8.539   8.486 -2.4613 -0.7759 -0.0895
34898SOL    HW2 7327   2.025   8.388   8.478  0.9175 -0.6254  0.2303
34899SOL     OW 7328   6.498   9.571   7.163  0.3846 -0.3163  0.2084
34899SOL    HW1 7329   6.558   9.510   7.120 -1.0027 -1.8610  0.3635
34899SOL    HW2 7330   6.500   9.545   7.255 -0.8356 -0.6944  0.1470
34900SOL     OW 7331   0.765   6.248   6.662  0.4571  0.5245  0.0741
34900SOL    HW1 7332   0.831   6.312   6.687 -0.2056  1.1570  0.2611
34900SOL    HW2 7333   0.727   6.218   6.745 -0.0606  0.7952 -0.0572
34901SOL     OW 7334   0.168   5.904   7.579 -0.1655  0.6987  0.1811
34901SOL    HW1 7335   0.262   5.900   7.596 -0.0677  0.6317 -0.3799
34901SOL    HW2 7336   0.146   5.997   7.587 -0.0666  0.7051  0.3797
34902SOL     OW 7337   9.245   2.383   4.161 -0.1389  0.1389  0.3383
34902SOL    HW1 7338   9.179   2.386   4.230  0.5779 -0.1536  1.0427
34902SOL    HW2 7339   9.240   2.469   4.119 -2.2348 -0.4536 -0.8448
34903SOL     OW 7340   3.153   9.882   6.411  0.0128  0.4626 -0.0735
34903SOL    HW1 7341   3.110   9.965   6.389 -0.1824  0.7733  1.4227
34903SOL    HW2 7342   3.143   9.873   6.505  1.6870 -0.3442  0.0698
34904SOL     OW 7343   4.384   7.803   0.948  0.4205 -0.2937  0.2178
34904SOL    HW1 7344   4.338   7.775   0.869  0.6358 -2.0514  0.6790
34904SOL    HW2 7345   4.446   7.869   0.918  0.2270 -0.6554 -1.0143
34905SOL     OW 7346   1.539   8.985   4.946 -0.2867 -0.0921 -0.1777
34905SOL    HW1 7347   1.573   8.913   5.000 -1.4934 -0.2947  0.3417
34905SOL    HW2 7348   1.595   8.985   4.868  2.0543  0.7384  1.3803
34906SOL     OW 7349   3.086   1.202   2.655 -0.5470  0.4681 -0.3383
34906SOL    HW1 7350   3.169   1.251   2.654 -0.5238  0.4808  0.7716
34906SOL    HW2 7351   3.065   1.189   2.563  0.8271  0.2387 -0.6445
34907SOL     OW 7352   8.331   6.408   6.781  0.8765 -0.2838 -0.2431
34907SOL    HW1 7353   8.366   6.348   6.847  0.2649 -0.2772  0.0944
34907SOL    HW2 7354   8.275   6.353   6.726 -2.9216  0.5159  2.3652
34908SOL     OW 7355   7.401   8.411   5.706  0.1249  0.2661  0.3362
34908SOL    HW1 7356   7.360   8.467   5.772  0.6316 -1.0603  1.8386
34908SOL    HW2 7357   7.336   8.406   5.636 -1.0363  0.6213  1.3431
34909SOL     OW 7358   8.294   6.953   7.822 -0.0575  0.5795 -0.4112
34909SOL    HW1 7359   8.317   6.975   7.912 -0.4225  0.0108 -0.1756
34909SOL    HW2 7360   8.254   6.866   7.827  0.0099  0.4955 -1.1331
34910SOL     OW 7361   6.677   5.291   8.708 -0.0515  0.0950 -0.6335
34910SOL    HW1 7362   6.626   5.211   8.723 -1.5733  1.3522  1.4327
34910SOL    HW2 7363   6.767   5.266   8.726 -0.5093 -1.1627  0.0598
34911SOL     OW 7364   3.375   5.547   9.838 -0.1369  0.0106  0.4234
34911SOL    HW1 7365   3.406   5.473   9.891 -1.0288  0.0900  1.0926
34911SOL    HW2 7366   3.356   5.508   9.752  2.0686  0.0343 -0.1171
34912SOL     OW 7367   4.012   6.048   1.277 -0.6435 -0.2773 -0.0904
34912SOL    HW1 7368   3.938   6.071   1.221 -0.7569 -0.5792 -0.0671
34912SOL    HW2 7369   4.021   6.122   1.337  0.4061  0.7434 -1.4280
34913SOL     OW 7370   7.080   6.314   6.167 -0.1664  0.1357 -0.2563
34913SOL    HW1 7371   7.007   6.312   6.229 -0.0453 -0.3997 -0.1316
34913SOL    HW2 7372   7.121   6.228   6.174  0.9410  0.6841  0.2179
34914SOL     OW 7373   4.877   8.570   2.634 -0.1753  0.1170 -0.0098
34914SOL    HW1 7374   4.877   8.642   2.571  0.0154 -1.2919 -1.6974
34914SOL    HW2 7375   4.796   8.522   2.615 -0.0241 -0.4403  0.7163
34915SOL     OW 7376   6.556   8.501   9.121  0.2456  0.1878 -0.1906
34915SOL    HW1 7377   6.634   8.543   9.084 -1.2334  0.9364 -2.7671
34915SOL    HW2 7378   6.590   8.434   9.180  2.7732  1.6628  0.1684
34916SOL     OW 7379   3.005   7.819   2.718  0.2319  0.0206  0.0503
34916SOL    HW1 7380   2.970   7.896   2.761 -1.5992  0.6671 -2.3763
34916SOL    HW2 7381   2.936   7.753   2.727  0.6826 -0.4876 -0.1391
34917SOL     OW 7382   2.471   1.061   6.491  0.5158  0.1704  0.1473
34917SOL    HW1 7383   2.515   1.031   6.412  0.3157 -0.5471  0.2990
34917SOL    HW2 7384   2.396   1.112   6.460  1.6538  1.7661 -0.1163
34918SOL     OW 7385   3.809   6.558   4.974  0.3763 -0.4690 -0.5743
34918SOL    HW1 7386   3.838   6.548   4.883  2.7247 -1.9338  0.2466
34918SOL    HW2 7387   3.735   6.497   4.982 -1.6796  1.6434 -2.1088
34919SOL     OW 7388   2.906   7.209   8.857 -0.3011 -0.1642  0.4268
34919SOL    HW1 7389   2.906   7.124   8.814 -0.0768  0.1162 -0.1311
34919SOL    HW2 7390   2.819   7.245   8.840  0.5705  0.9970 -1.9143
34920SOL     OW 7391   0.183   7.255   3.991 -0.4240 -0.0067  0.0935
34920SOL    HW1 7392   0.227   7.206   3.922 -1.0414  0.8105 -0.9215
34920SOL    HW2 7393   0.207   7.346   3.975 -2.0654  0.4047 -0.1951
34921SOL     OW 7394   8.054  10.063   2.446  0.3408 -0.5978  0.3053
34921SOL    HW1 7395   8.149  10.059   2.460  0.7723  1.3696 -1.5634
34921SOL    HW2 7396   8.024  10.134   2.503  0.2256 -0.3154 -0.1017
34922SOL     OW 7397   9.035   5.297   6.535  0.0829  0.0224 -0.1320
34922SOL    HW1 7398   9.025   5.202   6.543  0.1176  0.0480  0.2291
34922SOL    HW2 7399   9.128   5.313   6.549 -0.2241  0.3007  1.8931
34923SOL     OW 7400   0.084   2.058   0.862  0.2795  0.0550 -0.0229
34923SOL    HW1 7401   0.166   2.010   0.849 -0.7096 -1.2999 -1.6107
34923SOL    HW2 7402   0.111   2.137   0.908  2.3585 -0.7498  0.2829
34924SOL     OW 7403   1.585   7.656   9.296  0.7404  0.8270  0.2102
34924SOL    HW1 7404   1.542   7.635   9.380  1.0704  0.5623  0.3158
34924SOL    HW2 7405   1.633   7.576   9.274 -0.2608  0.4796 -0.8125
34925SOL     OW 7406   1.208   2.229   3.220  0.2418  0.1820 -0.0610
34925SOL    HW1 7407   1.200   2.298   3.154 -0.2399  0.4513  0.2748
34925SOL    HW2 7408   1.297   2.195   3.208 -0.3164 -0.8030 -1.8506
34926SOL     OW 7409   7.749   8.041   6.936 -0.1405  0.0885  0.3112
34926SOL    HW1 7410   7.758   8.110   7.001 -0.9119 -0.1515  0.6853
34926SOL    HW2 7411   7.767   8.084   6.852 -0.9803  0.8347  0.4979
34927SOL     OW 7412   0.422   4.503   6.467 -0.1495 -0.6328  0.5769
34927SOL    HW1 7413   0.465   4.570   6.521  0.7449 -1.4285  0.8680
34927SOL    HW2 7414   0.330   4.532   6.464  0.7749  2.6795 -2.4365
34928SOL     OW 7415   1.426   1.979   8.421 -0.0303  0.3732 -0.3650
34928SOL    HW1 7416   1.435   1.999   8.328 -0.5601 -2.4694 -1.1291
34928SOL    HW2 7417   1.506   1.931   8.444 -0.7145 -0.5635  0.1322
34929SOL     OW 7418   7.447   8.215   6.492 -0.0608  0.0618 -0.5656
34929SOL    HW1 7419   7.387   8.216   6.566  2.3722 -0.0268  1.5523
34929SOL    HW2 7420   7.479   8.305   6.486  0.1479 -0.0471 -1.1706
34930SOL     OW 7421   7.134   4.021   8.855 -0.1780 -0.1028  0.2345
34930SOL    HW1 7422   7.043   3.992   8.859  0.0172 -0.9775 -0.9286
34930SOL    HW2 7423   7.130   4.116   8.866 -1.3695  0.0335 -1.0491
34931SOL     OW 7424   6.516   2.233   4.475 -0.2144 -0.3199  0.2356
34931SOL    HW1 7425   6.561   2.151   4.496 -0.1951 -0.3830 -0.0451
34931SOL    HW2 7426   6.553   2.260   4.391 -0.0681  0.0897  0.4255
34932SOL     OW 7427   9.694   9.607   7.335 -0.0881 -0.4510  0.0173
34932SOL    HW1 7428   9.683   9.524   7.382  0.3987 -0.5062  0.0457
34932SOL    HW2 7429   9.775   9.643   7.370 -1.1878  0.9043  1.2877
34933SOL     OW 7430   4.846   9.764   6.957 -0.1054 -0.0426 -0.5424
34933SOL    HW1 7431   4.812   9.845   6.996  0.0423  1.1166 -2.6635
34933SOL    HW2 7432   4.902   9.726   7.025 -0.3346  1.5400  0.5816
34934SOL     OW 7433   2.330   2.205   5.242  0.2232  0.2068  0.9198
34934SOL    HW1 7434   2.306   2.275   5.303 -1.1488  0.9441 -0.3918
34934SOL    HW2 7435   2.292   2.232   5.158 -2.2555 -3.1138  0.7775
34935SOL     OW 7436   3.704   8.478   0.788  0.3011  0.0349 -0.1715
34935SOL    HW1 7437   3.622   8.522   0.812 -0.7130 -0.7343 -2.0512
34935SOL    HW2 7438   3.759   8.488   0.866 -0.9144  2.1170  0.5184
34936SOL     OW 7439   0.058   6.580   1.700 -0.1997 -0.5698  0.4749
34936SOL    HW1 7440   0.075   6.489   1.724 -2.6125 -1.1981  0.0402
34936SOL    HW2 7441  -0.036   6.584   1.685 -0.0805  1.8922 -0.0676
34937SOL     OW 7442   6.600   2.375   5.157 -0.7150  0.0755 -0.3632
34937SOL    HW1 7443   6.628   2.342   5.071 -1.5415  0.6536 -0.8635
34937SOL    HW2 7444   6.520   2.425   5.139 -0.5671  0.7078  0.6601
34938SOL     OW 7445   6.483   0.547   8.322 -0.0832 -0.1685  0.2060
34938SOL    HW1 7446   6.478   0.555   8.227 -0.2890  1.8177  0.3222
34938SOL    HW2 7447   6.392   0.531   8.349  0.3991 -4.1776 -0.0681
34939SOL     OW 7448   1.073   8.370   8.691  0.0532 -0.2376  0.1948
34939SOL    HW1 7449   1.062   8.372   8.786  0.0507 -1.7849  0.2649
34939SOL    HW2 7450   1.091   8.460   8.666 -1.0645  0.3786  1.5241
34940SOL     OW 7451   1.477   5.238   6.369  0.5169 -0.6814 -0.8283
34940SOL    HW1 7452   1.382   5.239   6.375  0.4688 -1.3777 -1.4964
34940SOL    HW2 7453   1.497   5.175   6.300  1.4393 -0.0469 -1.1617
34941SOL     OW 7454   1.442   8.330   9.673  0.2261 -0.5401 -0.7215
34941SOL    HW1 7455   1.348   8.311   9.675  0.2366 -1.0789 -3.0839
34941SOL    HW2 7456   1.484   8.244   9.673  0.7850 -0.3054  0.7604
34942SOL     OW 7457   2.120   9.880   0.900 -0.2442  0.3828 -0.3652
34942SOL    HW1 7458   2.046   9.917   0.852  0.3396  0.7971 -0.9530
34942SOL    HW2 7459   2.166   9.955   0.936 -0.4256  0.0967  0.4915
34943SOL     OW 7460   6.155   0.865  10.237 -0.5661 -0.2983  0.4006
34943SOL    HW1 7461   6.210   0.789  10.219 -0.6784 -0.1365 -0.6802
34943SOL    HW2 7462   6.180   0.892  10.326  1.7210  0.2659 -0.3324
34944SOL     OW 7463   7.381   7.901   8.994 -0.0729 -0.6843  0.1848
34944SOL    HW1 7464   7.286   7.901   9.006 -0.3557 -1.6117 -1.6081
34944SOL    HW2 7465   7.416   7.890   9.082 -1.6005  0.1175  0.9427
34945SOL     OW 7466   5.686   9.661   8.097 -0.4155  0.2376  0.8281
34945SOL    HW1 7467   5.725   9.671   8.184  0.0580 -1.0471  0.7881
34945SOL    HW2 7468   5.729   9.584   8.061 -1.0903  0.3703 -0.2915
34946SOL     OW 7469   9.686   3.652   1.327 -0.6245 -0.6334 -0.2676
34946SOL    HW1 7470   9.656   3.704   1.252  1.3194 -1.0832 -1.4310
34946SOL    HW2 7471   9.701   3.565   1.291  1.5546 -0.5381  0.3016
34947SOL     OW 7472   6.043   6.178   6.530  0.0153 -0.0447 -0.2627
34947SOL    HW1 7473   6.043   6.273   6.521 -0.0053 -0.0057  0.1480
34947SOL    HW2 7474   6.123   6.150   6.486  0.5033  0.2425  0.4321
34948SOL     OW 7475   6.099   5.746   1.845  0.2878  0.0567  0.2505
34948SOL    HW1 7476   6.104   5.657   1.878 -1.2262  0.0021  0.3794
34948SOL    HW2 7477   6.038   5.791   1.904 -0.0624  0.7933 -0.6408
34949SOL     OW 7478   9.578   3.400   4.731 -0.2740  0.2909 -0.2690
34949SOL    HW1 7479   9.645   3.393   4.799 -1.2420 -3.6771  0.5359
34949SOL    HW2 7480   9.512   3.458   4.769 -0.0911 -0.6258  1.5607
34950SOL     OW 7481  10.123   0.889   0.654  0.0753  0.0745  0.2973
34950SOL    HW1 7482  10.033   0.872   0.684  0.2271  0.0983  0.7758
34950SOL    HW2 7483  10.170   0.809   0.675  0.6421  0.8030  1.9589
34951SOL     OW 7484   7.421   7.943   3.170 -0.1467  0.0390 -0.0461
34951SOL    HW1 7485   7.401   7.956   3.077 -2.2054 -1.7847  0.0456
34951SOL    HW2 7486   7.490   7.877   3.171 -0.1929 -0.0130 -0.2748
34952SOL     OW 7487  10.136   6.423   8.435 -0.0492 -0.0133 -0.1732
34952SOL    HW1 7488  10.048   6.442   8.401 -0.3150  1.5613  1.2531
34952SOL    HW2 7489  10.194   6.480   8.385 -0.2979  1.4557  1.1518
34953SOL     OW 7490   0.375   3.055   4.738  0.5747 -0.0690  0.1614
34953SOL    HW1 7491   0.357   3.149   4.748 -0.6952 -0.3276  0.3816
34953SOL    HW2 7492   0.450   3.040   4.796 -0.5754  0.4002  1.8399
34954SOL     OW 7493   3.895   3.280  10.232 -0.1817 -0.1928 -0.0267
34954SOL    HW1 7494   3.967   3.342  10.241 -0.1260 -0.1086 -1.0409
34954SOL    HW2 7495   3.830   3.310  10.297  0.5862 -0.1393  0.7275
34955SOL     OW 7496   6.551   3.073   1.069 -0.3773  0.4364  0.2017
34955SOL    HW1 7497   6.613   3.141   1.095  1.7400 -1.5578  0.6528
34955SOL    HW2 7498   6.590   3.032   0.992 -1.7052 -0.1429 -0.1952
34956SOL     OW 7499   7.352   6.341   0.708  0.1945 -0.2420 -0.1684
34956SOL    HW1 7500   7.263   6.329   0.741  0.2181  1.4236  0.6392
34956SOL    HW2 7501   7.402   6.367   0.785  1.1561 -0.2159 -0.7925
34957SOL     OW 7502   4.608   6.980   5.034 -0.0283 -0.2654 -0.0762
34957SOL    HW1 7503   4.654   7.054   5.073  0.2368 -0.7027  0.4463
34957SOL    HW2 7504   4.649   6.903   5.073 -0.9208 -0.6685  0.0899
34958SOL     OW 7505   2.002   7.991   9.827  0.3457 -0.1470 -0.3233
34958SOL    HW1 7506   2.002   8.033   9.914  2.6795  0.2123 -0.4229
34958SOL    HW2 7507   1.944   8.045   9.775  3.6696  3.6633 -0.6207
34959SOL     OW 7508   9.058   7.992   2.277 -0.2356  0.1299  0.1800
34959SOL    HW1 7509   9.089   8.061   2.336 -0.1929  0.3763 -0.1295
34959SOL    HW2 7510   9.098   7.912   2.312  0.0471  0.3191  0.2989
34960SOL     OW 7511   2.023   3.962   6.130 -0.9708 -0.0791  0.1844
34960SOL    HW1 7512   1.997   3.966   6.223 -2.7487  0.2260 -0.2792
34960SOL    HW2 7513   1.946   3.926   6.086 -1.4042  2.7362 -1.5909
34961SOL     OW 7514   4.926   9.634   6.727 -0.2473 -0.2949 -0.1528
34961SOL    HW1 7515   4.946   9.692   6.653  3.2569  0.0539  0.9026
34961SOL    HW2 7516   4.882   9.690   6.791  0.3855  0.4533 -0.3621
34962SOL     OW 7517   0.135   1.049   7.339 -0.1518 -0.0815 -0.6199
34962SOL    HW1 7518   0.159   0.974   7.285  0.6191 -1.2285  1.2063
34962SOL    HW2 7519   0.084   1.012   7.411 -0.8910  1.3399 -0.3720
34963SOL     OW 7520   3.245   4.042   3.869 -0.4560 -0.2082 -0.0246
34963SOL    HW1 7521   3.218   3.959   3.909 -2.9553  0.5837  0.0935
34963SOL    HW2 7522   3.310   4.016   3.803  0.3229 -2.0147  1.3646
34964SOL     OW 7523   6.178   6.296   3.692 -0.0019 -0.0408  0.2325
34964SOL    HW1 7524   6.154   6.207   3.715 -0.1999  0.2901  1.3938
34964SOL    HW2 7525   6.099   6.334   3.653 -0.2125 -0.0882  0.6123
34965SOL     OW 7526   7.078   2.928   2.952 -0.2435  0.1280 -1.1059
34965SOL    HW1 7527   6.995   2.931   2.905  0.5355  0.5137 -2.5411
34965SOL    HW2 7528   7.140   2.971   2.893  0.9503 -0.0372 -0.0175
34966SOL     OW 7529   1.813   0.193   0.283  0.1357 -0.1183 -0.2519
34966SOL    HW1 7530   1.785   0.251   0.353  0.2985 -1.4003  0.9270
34966SOL    HW2 7531   1.757   0.116   0.292  1.1352 -0.9076 -0.5939
34967SOL     OW 7532   7.744  10.101   8.964 -0.3364  0.0026  0.5450
34967SOL    HW1 7533   7.659  10.067   8.991 -0.2487 -0.5276  0.1702
34967SOL    HW2 7534   7.735  10.116   8.870 -0.7399  2.1029  0.8689
34968SOL     OW 7535   7.186   4.014   6.083 -0.8011  0.1548  0.3904
34968SOL    HW1 7536   7.122   3.997   6.152  0.7354 -0.0172  1.8337
34968SOL    HW2 7537   7.222   4.100   6.104 -1.5628  0.9183 -1.2538
34969SOL     OW 7538  10.142   3.200   3.687  0.2848 -0.4626  0.0841
34969SOL    HW1 7539  10.129   3.290   3.717 -0.4928 -0.1985 -0.9869
34969SOL    HW2 7540  10.237   3.189   3.686  0.3966  0.4319  0.0027
34970SOL     OW 7541   3.351  10.087   0.444  0.1120  0.0264  0.2962
34970SOL    HW1 7542   3.260  10.111   0.427  0.0213  0.3595  1.2048
34970SOL    HW2 7543   3.398  10.114   0.366 -0.3560  1.1289  0.3825
34971SOL     OW 7544   4.581   2.107   2.839 -0.4629  0.4096  0.2028
34971SOL    HW1 7545   4.566   2.168   2.767  2.4909 -1.4855 -2.2151
34971SOL    HW2 7546   4.655   2.144   2.887 -1.0671  0.5714  1.0407
34972SOL     OW 7547   7.812   8.810   1.869 -0.2989 -0.1521  0.8283
34972SOL    HW1 7548   7.729   8.822   1.821 -0.5491 -0.3621  1.2057
34972SOL    HW2 7549   7.826   8.894   1.913  1.7703  1.3975 -2.3908
34973SOL     OW 7550   0.296   8.860   8.410 -0.4435  0.1502  0.4496
34973SOL    HW1 7551   0.366   8.896   8.465 -0.1742  0.3178  0.0027
34973SOL    HW2 7552   0.273   8.776   8.451  0.0516  0.0728  0.5692
34974SOL     OW 7553   6.506   4.227   7.864  0.2437  0.3540  0.0246
34974SOL    HW1 7554   6.453   4.292   7.909 -0.7285 -0.9398  0.8196
34974SOL    HW2 7555   6.562   4.278   7.805 -1.3453  1.8104 -0.2949
34975SOL     OW 7556   5.339   2.814   5.983 -0.0514  0.2432 -0.1075
34975SOL    HW1 7557   5.278   2.742   5.967  1.1332 -0.4529 -1.6919
34975SOL    HW2 7558   5.334   2.829   6.077 -1.3495 -0.9701  0.0511
34976SOL     OW 7559   9.805   3.267   5.281  0.2081  0.0859  0.2657
34976SOL    HW1 7560   9.841   3.309   5.202 -0.1250 -0.7771 -0.3589
34976SOL    HW2 7561   9.843   3.317   5.353  0.5183  0.8998 -0.4338
34977SOL     OW 7562   0.899   8.643   4.076 -0.5532 -0.7399  0.5345
34977SOL    HW1 7563   0.934   8.670   4.161  1.8622  0.6630 -0.8277
34977SOL    HW2 7564   0.919   8.716   4.017 -0.9943 -2.2167 -1.5418
34978SOL     OW 7565   1.794   5.620   7.250  1.0158 -0.2513  0.0862
34978SOL    HW1 7566   1.734   5.567   7.301 -1.2197  1.5753 -0.4681
34978SOL    HW2 7567   1.816   5.693   7.308 -0.1566  0.9220 -0.8919
34979SOL     OW 7568   0.902   2.058   7.958  0.8991 -0.7186 -0.3527
34979SOL    HW1 7569   0.809   2.081   7.953  0.2433 -2.4203  2.2570
34979SOL    HW2 7570   0.931   2.057   7.866 -1.0186  2.0492 -1.1037
34980SOL     OW 7571   8.043   2.147   9.610 -0.2476 -0.4266  0.2645
34980SOL    HW1 7572   7.978   2.194   9.559 -0.8593  0.1207  1.5131
34980SOL    HW2 7573   8.005   2.060   9.624 -0.0351 -0.6125 -0.2530
34981SOL     OW 7574   5.046   6.977   8.033 -0.2089  0.1526  0.1572
34981SOL    HW1 7575   5.006   7.036   8.097 -1.8668  0.1505 -0.8171
34981SOL    HW2 7576   5.065   6.897   8.082 -0.1979  0.6263  0.9396
34982SOL     OW 7577   0.214   8.518   8.958 -0.0358  0.1384 -0.4601
34982SOL    HW1 7578   0.209   8.572   9.037 -1.2555 -0.3910 -0.1518
34982SOL    HW2 7579   0.196   8.430   8.988  0.3608 -0.2110 -1.2106
34983SOL     OW 7580   8.587   0.887   4.187 -0.4525 -0.5653 -0.5352
34983SOL    HW1 7581   8.635   0.804   4.191 -0.5953 -0.5969  0.9663
34983SOL    HW2 7582   8.636   0.940   4.124  1.9467 -0.3814  1.3550
34984SOL     OW 7583   1.877   6.169   1.391 -0.3134  0.1730 -0.4238
34984SOL    HW1 7584   1.971   6.163   1.412 -0.3832 -1.1110 -0.3994
34984SOL    HW2 7585   1.875   6.198   1.299  0.0349  2.7645  0.3010
34985SOL     OW 7586   4.667   3.585  10.318 -0.0362 -0.2770 -0.2882
34985SOL    HW1 7587   4.687   3.633  10.237 -0.6002  0.9467  0.2656
34985SOL    HW2 7588   4.615   3.647  10.370 -0.3860 -1.3405  0.6672
34986SOL     OW 7589   2.095   3.154   7.522  0.1566  0.5963  0.1130
34986SOL    HW1 7590   2.061   3.083   7.466  1.6914  0.4588 -0.6952
34986SOL    HW2 7591   2.163   3.113   7.574 -0.4841  0.9954  1.2913
34987SOL     OW 7592   5.752   2.802   0.011  0.2443 -0.5869 -0.3612
34987SOL    HW1 7593   5.798   2.880   0.040 -2.9179  0.5339  2.2906
34987SOL    HW2 7594   5.695   2.832  -0.060  0.9736 -1.1887 -1.2384
34988SOL     OW 7595   8.742   5.492   0.700 -0.4031 -0.3788 -0.2024
34988SOL    HW1 7596   8.773   5.463   0.615 -0.0701  0.9123 -0.5461
34988SOL    HW2 7597   8.822   5.505   0.752 -0.5477 -0.2097 -0.0170
34989SOL     OW 7598   3.937   2.075   8.188  0.8910  0.2665 -0.6727
34989SOL    HW1 7599   3.945   2.114   8.275  0.1120  1.0406 -0.9299
34989SOL    HW2 7600   3.852   2.030   8.190  1.0093  0.0289 -0.9410
34990SOL     OW 7601  10.229   4.365   1.379 -0.3322 -0.3609  0.4595
34990SOL    HW1 7602  10.190   4.277   1.373 -2.2251  0.5151 -1.0523
34990SOL    HW2 7603  10.190   4.413   1.306 -0.5191  2.1992  2.1545
34991SOL     OW 7604   6.728   9.942   3.891  0.2059  0.2175 -0.1299
34991SOL    HW1 7605   6.765   9.854   3.886  0.6754  0.1469  2.6627
34991SOL    HW2 7606   6.798  10.000   3.863  1.0530 -0.1535  1.1387
34992SOL     OW 7607   7.058   0.963   0.238  0.1039  0.4443  0.0727
34992SOL    HW1 7608   7.122   1.015   0.287 -0.1369  1.6628 -0.8582
34992SOL    HW2 7609   6.988   0.946   0.301  1.4136 -1.1884  1.2143
34993SOL     OW 7610   4.388   0.198   7.501  0.5930 -0.0709  0.3700
34993SOL    HW1 7611   4.448   0.123   7.495  1.3336  0.4448  1.0959
34993SOL    HW2 7612   4.446   0.273   7.512 -0.1782  0.5205  0.4296
34994SOL     OW 7613   1.670   2.249   4.964  0.5473  0.1483  0.3540
34994SOL    HW1 7614   1.724   2.205   4.898 -1.7462 -0.7672 -1.0048
34994SOL    HW2 7615   1.715   2.332   4.980  1.2469  0.3694 -2.3193
34995SOL     OW 7616   1.760   5.775   2.032 -0.0664  0.5679 -0.6504
34995SOL    HW1 7617   1.706   5.844   2.071  0.4560  0.3863  0.4240
34995SOL    HW2 7618   1.831   5.761   2.095 -0.2675 -1.0877 -0.7535
34996SOL     OW 7619   7.345   4.599   8.687 -0.2781  0.0279 -1.0114
34996SOL    HW1 7620   7.420   4.632   8.736 -0.8052  1.0889 -0.8806
34996SOL    HW2 7621   7.289   4.559   8.753  0.0469 -0.5348 -1.0724
34997SOL     OW 7622   0.552   5.184   9.111  0.1011 -0.5437  0.1192
34997SOL    HW1 7623   0.644   5.168   9.091 -0.1143 -0.1601 -1.2540
34997SOL    HW2 7624   0.528   5.113   9.170  1.4131 -0.3293  0.9572
34998SOL     OW 7625   6.868   1.088   1.920  0.2497 -0.0931  0.1206
34998SOL    HW1 7626   6.946   1.062   1.969 -1.3643  0.1064  3.0235
34998SOL    HW2 7627   6.843   1.173   1.958 -0.7169  0.4434 -1.5948
34999SOL     OW 7628   6.492   0.542   4.456  0.0045 -0.2152  1.0040
34999SOL    HW1 7629   6.559   0.609   4.470  1.1514 -1.0508 -0.2647
34999SOL    HW2 7630   6.498   0.486   4.534  0.0872  0.2754  1.3580
35000SOL     OW 7631   8.037   1.905   7.183 -0.1382 -0.2253  0.0469
35000SOL    HW1 7632   8.079   1.967   7.242  1.0282  0.0681 -1.0548
35000SOL    HW2 7633   8.064   1.819   7.216 -0.1056 -0.0903  0.3745
35001SOL     OW 7634   2.150   5.633   8.133 -0.0365 -0.1425 -0.1903
35001SOL    HW1 7635   2.231   5.649   8.085  0.3312 -0.8863  0.1714
35001SOL    HW2 7636   2.120   5.720   8.158  0.2860  0.1872 -0.9104
35002SOL     OW 7637   8.947   6.123   7.923 -0.6447 -0.4383  0.2555
35002SOL    HW1 7638   8.870   6.127   7.980 -0.7041  1.6813  0.1131
35002SOL    HW2 7639   8.966   6.215   7.902  0.1089 -1.0615 -2.1468
35003SOL     OW 7640   4.953   0.645   2.141 -0.2389 -0.5637  0.1646
35003SOL    HW1 7641   5.000   0.563   2.128 -0.0017 -0.3020 -0.6354
35003SOL    HW2 7642   4.867   0.618   2.174 -1.4688 -1.4075 -3.3359
35004SOL     OW 7643   5.356   8.566   8.381  0.2393  0.4298 -0.3511
35004SOL    HW1 7644   5.332   8.501   8.447  1.9060 -0.3320 -0.4449
35004SOL    HW2 7645   5.395   8.638   8.431  1.4161 -0.1070 -0.4521
35005SOL     OW 7646   6.950   2.021   0.434 -0.3116  0.2492  0.2675
35005SOL    HW1 7647   7.011   2.044   0.504  0.5381  0.4533 -0.5175
35005SOL    HW2 7648   6.992   1.948   0.388 -0.8495  0.1269 -0.0441
35006SOL     OW 7649   5.367   5.916   1.524  0.1044  0.3098  0.1128
35006SOL    HW1 7650   5.425   5.973   1.573  0.4975  1.2870 -1.4222
35006SOL    HW2 7651   5.331   5.971   1.455 -1.2551 -0.7431 -0.0748
35007SOL     OW 7652   2.061   2.034   1.670 -0.4466  0.2242  0.1358
35007SOL    HW1 7653   2.149   1.999   1.656 -0.9167 -1.6138  1.3038
35007SOL    HW2 7654   2.055   2.045   1.765 -1.2520  0.9994  0.0095
35008SOL     OW 7655   3.677   3.557   3.943  0.7052 -0.3844 -0.1406
35008SOL    HW1 7656   3.611   3.554   4.013 -0.4126 -3.6530 -1.1646
35008SOL    HW2 7657   3.647   3.628   3.886 -0.8989 -0.5672  0.4143
35009SOL     OW 7658   7.664   9.199   9.671 -0.1832 -0.5534 -0.5406
35009SOL    HW1 7659   7.628   9.282   9.637 -1.3137 -1.3975 -1.4898
35009SOL    HW2 7660   7.598   9.133   9.647 -0.0005 -1.5282  1.4732
35010SOL     OW 7661   1.944   0.239   0.044 -0.0630  0.7558 -0.1117
35010SOL    HW1 7662   1.922   0.240   0.137 -1.0900 -0.1867 -0.3187
35010SOL    HW2 7663   1.936   0.147   0.018 -0.0054  1.0321 -1.1673
35011SOL     OW 7664   1.265   8.123   0.060  0.0317 -0.7173 -0.1464
35011SOL    HW1 7665   1.343   8.175   0.043 -0.1107 -0.7527 -0.9213
35011SOL    HW2 7666   1.279   8.042   0.011  0.2676 -1.4390  1.0693
35012SOL     OW 7667   5.924   9.754   4.422  0.0088 -0.4879  0.1847
35012SOL    HW1 7668   5.895   9.714   4.340 -0.6493 -0.9448  0.6289
35012SOL    HW2 7669   6.020   9.746   4.421  0.1487  0.8494 -1.2081
35013SOL     OW 7670   6.071   6.727   8.005  0.3367  0.1598  0.1958
35013SOL    HW1 7671   5.997   6.712   8.064  1.1830  2.6487  2.0623
35013SOL    HW2 7672   6.145   6.685   8.048  0.5306  0.0313 -0.2606
35014SOL     OW 7673   1.894   5.315  10.318  0.1253 -0.1794 -0.1679
35014SOL    HW1 7674   1.934   5.252  10.376 -1.7767 -1.2414  0.0787
35014SOL    HW2 7675   1.929   5.400  10.346  0.7228 -0.8617  1.2135
35015SOL     OW 7676   6.423   5.054   6.102  0.4808  0.3219  0.1586
35015SOL    HW1 7677   6.452   4.979   6.050 -0.8640 -0.0193 -0.1107
35015SOL    HW2 7678   6.484   5.056   6.176  1.2173 -0.3547 -0.4120
35016SOL     OW 7679   3.319   1.761   5.688  0.4183 -0.6920 -0.2761
35016SOL    HW1 7680   3.277   1.828   5.633  2.3822  1.9078  1.1516
35016SOL    HW2 7681   3.314   1.797   5.777  1.9045 -2.2767  0.5121
35017SOL     OW 7682   6.357   7.257   4.919  0.1477  0.0590  0.0113
35017SOL    HW1 7683   6.381   7.231   4.830 -1.8039  2.7772 -1.4293
35017SOL    HW2 7684   6.322   7.177   4.958 -1.8749 -0.5531 -2.7680
35018SOL     OW 7685   4.473   1.001   6.115 -0.4253 -0.1298 -0.2180
35018SOL    HW1 7686   4.565   0.987   6.093 -0.3575  2.9527 -2.3450
35018SOL    HW2 7687   4.426   0.931   6.068  0.7453 -2.3862  1.7162
35019SOL     OW 7688   4.953   1.975   3.708  0.3855 -0.5702  1.0656
35019SOL    HW1 7689   4.912   1.931   3.634  1.9801  0.8967 -0.8045
35019SOL    HW2 7690   4.992   1.905   3.760  1.4968 -1.5313 -0.9546
35020SOL     OW 7691   8.975   0.032  10.139 -0.1854 -0.5486  0.3254
35020SOL    HW1 7692   9.067   0.008  10.153 -0.0221  0.7648  1.8046
35020SOL    HW2 7693   8.931  -0.050  10.121  1.3741 -1.1372 -0.9989
35021SOL     OW 7694   8.249   9.257  10.136 -0.0993 -0.2660 -0.3236
35021SOL    HW1 7695   8.339   9.233  10.157  0.2903  0.2941 -1.2637
35021SOL    HW2 7696   8.202   9.252  10.220  0.5653 -1.5398 -0.0090
35022SOL     OW 7697   0.787  10.183   8.555  0.2091 -0.6779  0.7232
35022SOL    HW1 7698   0.820  10.093   8.560 -1.2027 -1.2007  1.1593
35022SOL    HW2 7699   0.863  10.235   8.530  0.9816 -2.0345  0.1309
35023SOL     OW 7700   9.967   9.804   8.174 -0.3125 -0.8774  0.8515
35023SOL    HW1 7701  10.059   9.820   8.194 -0.4461 -0.1553  0.9293
35023SOL    HW2 7702   9.920   9.840   8.250 -0.6536 -1.4278  0.9105
35024SOL     OW 7703   1.481   1.367   8.498 -0.0511  0.6206  0.1109
35024SOL    HW1 7704   1.416   1.344   8.432 -1.8636  0.9265  1.7278
35024SOL    HW2 7705   1.509   1.455   8.474 -0.4366  0.6073 -0.4262
35025SOL     OW 7706   6.994   0.797   5.478 -0.3901  0.0173 -0.4091
35025SOL    HW1 7707   7.075   0.849   5.473 -0.7268  0.6105  0.1280
35025SOL    HW2 7708   7.009   0.737   5.551 -0.0208 -0.6254 -0.9979
35026SOL     OW 7709   6.695   1.539   5.541  0.1301  0.2529  0.0509
35026SOL    HW1 7710   6.668   1.491   5.619  0.3383 -2.4766 -1.4502
35026SOL    HW2 7711   6.790   1.532   5.540  0.1870  0.9481 -0.0777
35027SOL     OW 7712   3.528   6.024   4.937 -1.0206 -0.4733 -0.0028
35027SOL    HW1 7713   3.555   5.980   4.856 -2.0431 -0.0135 -0.6213
35027SOL    HW2 7714   3.506   5.953   4.997  0.1032 -0.8228  0.0147
35028SOL     OW 7715   6.987   0.906   6.238 -0.3114  0.4624  0.0283
35028SOL    HW1 7716   7.026   0.821   6.260  1.7178  1.2105 -0.4500
35028SOL    HW2 7717   6.954   0.895   6.149 -1.7182 -0.3315  0.6169
35029SOL     OW 7718   0.181   9.034   4.533 -0.0478  0.1219 -0.6954
35029SOL    HW1 7719   0.271   9.000   4.533  0.0820  0.4673 -1.0037
35029SOL    HW2 7720   0.169   9.072   4.446 -0.5183  0.0182 -0.6804
35030SOL     OW 7721   6.687   7.631   4.400 -0.5139  0.3098  0.2640
35030SOL    HW1 7722   6.608   7.578   4.410  0.6340 -1.6249 -0.4999
35030SOL    HW2 7723   6.698   7.640   4.305  0.2888  0.3885  0.3601
35031SOL     OW 7724   7.090   4.688   4.613  0.3584  0.0563  0.3739
35031SOL    HW1 7725   7.072   4.742   4.535  0.8156 -0.3687 -0.0346
35031SOL    HW2 7726   7.181   4.662   4.602  0.1915 -0.6556  0.6586
35032SOL     OW 7727   4.645   1.578   1.042 -0.3547  0.5848 -0.3028
35032SOL    HW1 7728   4.714   1.555   1.104 -1.7743 -0.5859  0.9625
35032SOL    HW2 7729   4.681   1.557   0.956 -0.5490 -4.3853  0.5209
35033SOL     OW 7730   7.423   2.652   1.949  0.0536  0.2947 -0.2372
35033SOL    HW1 7731   7.412   2.560   1.924  1.6947 -0.8500  2.6668
35033SOL    HW2 7732   7.506   2.653   1.997 -0.2135  3.2030  0.3205
35034SOL     OW 7733   5.168   2.789   4.421  0.6116 -0.3223  0.4889
35034SOL    HW1 7734   5.219   2.869   4.428  4.1890 -2.5128  2.1986
35034SOL    HW2 7735   5.131   2.776   4.509  1.0173 -1.0999  0.5523
35035SOL     OW 7736   5.804   7.562   5.068 -0.4797  0.3446 -0.0373
35035SOL    HW1 7737   5.721   7.514   5.058  0.0075 -0.2421 -1.6781
35035SOL    HW2 7738   5.848   7.518   5.140 -1.0308 -0.2079 -0.0205
35036SOL     OW 7739  10.123   5.351   4.578 -0.8002 -0.0241 -0.1927
35036SOL    HW1 7740  10.162   5.434   4.605  1.3089 -1.1634  0.5178
35036SOL    HW2 7741  10.121   5.355   4.483  1.0201  0.1359 -0.2501
35037SOL     OW 7742   6.773   1.978   6.400  0.1200 -0.0802 -0.1666
35037SOL    HW1 7743   6.726   2.043   6.347 -1.4969 -1.8131 -0.9684
35037SOL    HW2 7744   6.705   1.920   6.433  1.3441 -0.4647  1.9007
35038SOL     OW 7745   7.762   2.864   4.476  0.1930 -0.1026 -0.2477
35038SOL    HW1 7746   7.709   2.837   4.551 -0.9753  2.7564  0.1100
35038SOL    HW2 7747   7.698   2.887   4.409  1.0287  1.3011 -0.5998
35039SOL     OW 7748   8.012   0.518   6.864 -0.1240  0.1417 -0.0031
35039SOL    HW1 7749   8.093   0.566   6.851  0.1690 -0.9505 -2.7664
35039SOL    HW2 7750   7.946   0.568   6.815 -0.2694 -1.0441 -1.0539
35040SOL     OW 7751   3.793   7.915   9.753 -0.3311  0.5508  0.4423
35040SOL    HW1 7752   3.859   7.855   9.787 -0.9735  1.2687  3.1801
35040SOL    HW2 7753   3.715   7.861   9.743 -0.0689  0.2800 -0.2318
35041SOL     OW 7754   1.297   6.479   3.922  0.5265  0.1272 -0.5988
35041SOL    HW1 7755   1.252   6.400   3.895 -0.4024  0.7836 -1.0193
35041SOL    HW2 7756   1.331   6.459   4.009  0.6693 -0.8682 -0.8737
35042SOL     OW 7757   3.317   1.549   4.215 -0.0493  0.0492 -0.0379
35042SOL    HW1 7758   3.339   1.639   4.189 -0.1053  0.4881  1.3585
35042SOL    HW2 7759   3.233   1.558   4.261 -0.8096 -0.9443 -1.1719
35043SOL     OW 7760   2.053   3.363   8.977  0.0452 -0.8254  0.2357
35043SOL    HW1 7761   2.099   3.331   9.055  1.8355 -0.4891 -0.6315
35043SOL    HW2 7762   2.120   3.366   8.909 -1.5569 -1.4236 -1.4324
35044SOL     OW 7763   1.902   5.226  10.058 -0.1326  0.0660 -0.1240
35044SOL    HW1 7764   1.995   5.237  10.040 -0.1092  1.5942  0.7883
35044SOL    HW2 7765   1.891   5.255  10.149 -1.5310  0.0970 -0.2757
35045SOL     OW 7766   0.022   6.010   3.008 -0.0088 -0.5639 -0.1995
35045SOL    HW1 7767   0.039   5.973   3.095 -0.9216 -0.1718  0.1540
35045SOL    HW2 7768   0.082   5.963   2.950  0.4657 -0.9748  0.6064
35046SOL     OW 7769   7.928   3.429   2.332  0.0171  0.1753  0.3550
35046SOL    HW1 7770   7.877   3.501   2.368  0.1801  0.3476  0.2402
35046SOL    HW2 7771   7.935   3.449   2.239 -0.7030 -0.4451  0.1569
35047SOL     OW 7772   0.941  10.180   2.101  0.0471 -0.5438 -0.1086
35047SOL    HW1 7773   0.947  10.177   2.005 -0.3399  0.1775 -0.1638
35047SOL    HW2 7774   1.027  10.212   2.129 -0.2962  0.6103 -0.3125
35048SOL     OW 7775   7.667   6.488   7.788 -0.0077  0.5444  0.4865
35048SOL    HW1 7776   7.753   6.522   7.762 -0.9127  1.2425 -1.8318
35048SOL    HW2 7777   7.613   6.566   7.802 -1.0968  0.1654 -1.2638
35049SOL     OW 7778   6.742   3.974   8.224  0.0022 -0.1454 -0.7399
35049SOL    HW1 7779   6.774   4.025   8.150 -0.3844  0.4810 -0.4800
35049SOL    HW2 7780   6.655   4.009   8.243  0.6074  0.6374  0.8391
35050SOL     OW 7781   3.253   3.605   1.903 -0.5949  0.5495 -0.1269
35050SOL    HW1 7782   3.166   3.590   1.940 -0.8403 -0.6898 -1.1535
35050SOL    HW2 7783   3.309   3.540   1.947 -0.9268 -1.0721 -1.9712
35051SOL     OW 7784  10.017   1.833   3.709 -0.2813 -0.2567  0.4908
35051SOL    HW1 7785  10.063   1.913   3.733  0.2547 -1.0764  2.3416
35051SOL    HW2 7786   9.926   1.850   3.733 -0.1488 -0.2345  0.9864
35052SOL     OW 7787   2.948   8.600   0.867  0.8913 -0.2220  0.1249
35052SOL    HW1 7788   2.898   8.585   0.786 -0.3981  0.7757  0.6974
35052SOL    HW2 7789   2.899   8.551   0.933  2.2514 -1.4937  0.2448
35053SOL     OW 7790   8.172   1.959   7.758  0.3483  0.3237 -0.1738
35053SOL    HW1 7791   8.175   2.055   7.754  0.4535  0.4011  1.2230
35053SOL    HW2 7792   8.209   1.938   7.844  2.3825 -1.1126 -1.3256
35054SOL     OW 7793   9.232   7.264   6.153 -0.3539 -0.8619 -0.3315
35054SOL    HW1 7794   9.251   7.348   6.113  0.1237 -1.2355 -0.8932
35054SOL    HW2 7795   9.165   7.225   6.097 -0.8915 -0.6722  0.1725
35055SOL     OW 7796   4.614   0.757   5.895  0.4934 -0.1116 -0.4279
35055SOL    HW1 7797   4.654   0.810   5.963  0.8750 -1.8574  0.7656
35055SOL    HW2 7798   4.688   0.719   5.847  0.2354 -0.0632 -0.8722
35056SOL     OW 7799   7.768   4.866   3.374  0.3096 -0.0797 -0.1370
35056SOL    HW1 7800   7.673   4.862   3.380  0.3003  0.8713  0.6405
35056SOL    HW2 7801   7.798   4.780   3.403 -0.2869 -0.0551  0.5670
35057SOL     OW 7802   6.821   3.439   4.941 -0.0416 -0.2191 -0.1164
35057SOL    HW1 7803   6.800   3.523   4.899 -0.8062 -1.2093 -1.8451
35057SOL    HW2 7804   6.910   3.419   4.911  0.2831  0.1346  0.5957
35058SOL     OW 7805   5.407   5.265   3.296  0.5089  0.2775 -0.0211
35058SOL    HW1 7806   5.476   5.217   3.250 -0.9337 -0.5134 -1.4752
35058SOL    HW2 7807   5.332   5.261   3.236 -0.5543  1.8121  1.1435
35059SOL     OW 7808   7.387   9.083   3.856  0.0453  0.0838  0.0086
35059SOL    HW1 7809   7.451   9.115   3.792  0.2143  1.7463  0.9360
35059SOL    HW2 7810   7.337   9.016   3.809  1.1368  0.1938 -1.3716
35060SOL     OW 7811   0.549   0.673   8.685  0.2410  0.3279 -0.6083
35060SOL    HW1 7812   0.569   0.634   8.771 -0.7141 -1.5292 -1.1723
35060SOL    HW2 7813   0.454   0.670   8.679  0.2420  1.3848 -1.3452
35061SOL     OW 7814  10.323   9.132   4.320  0.3363 -0.1929  0.3821
35061SOL    HW1 7815  10.256   9.084   4.270 -0.4462  2.7818 -1.7479
35061SOL    HW2 7816  10.405   9.112   4.275  0.0840  0.1412 -0.2338
35062SOL     OW 7817   4.833   7.084   2.392 -0.1279  0.3826  0.0874
35062SOL    HW1 7818   4.872   7.141   2.327 -0.4683 -1.4527 -1.8315
35062SOL    HW2 7819   4.899   7.016   2.407  0.0259  0.8707  1.8633
35063SOL     OW 7820   5.845   0.325   0.829 -0.4536 -0.5042 -1.0910
35063SOL    HW1 7821   5.881   0.239   0.850  0.0391  0.3113  1.7966
35063SOL    HW2 7822   5.770   0.335   0.888 -1.6207  0.3859 -2.6310
35064SOL     OW 7823   8.483   8.972   8.660  0.2957  0.5960  0.1439
35064SOL    HW1 7824   8.394   8.968   8.694 -0.6548  0.9326 -2.1070
35064SOL    HW2 7825   8.509   8.881   8.649 -0.1199  0.4898  0.0018
35065SOL     OW 7826   1.850   6.480   8.588 -0.2129  0.2298 -0.1754
35065SOL    HW1 7827   1.824   6.534   8.513 -1.0982 -1.1185 -0.8776
35065SOL    HW2 7828   1.827   6.391   8.562  4.8418 -1.2026 -0.8280
35066SOL     OW 7829   5.110   5.089   7.040  0.1506 -0.8161  1.1105
35066SOL    HW1 7830   5.190   5.125   7.078  0.2726  1.2231 -0.8555
35066SOL    HW2 7831   5.096   5.007   7.087  2.9071 -0.8225  2.1184
35067SOL     OW 7832   2.178   2.894   2.998  0.1069  0.1565  0.0902
35067SOL    HW1 7833   2.123   2.829   2.955 -1.1069  0.0840  1.6715
35067SOL    HW2 7834   2.139   2.978   2.973  0.6190  0.2105 -0.5460
35068SOL     OW 7835   5.403   3.690   9.066 -0.2602  0.0568 -0.0841
35068SOL    HW1 7836   5.338   3.758   9.047  0.1871  0.2453 -0.9740
35068SOL    HW2 7837   5.379   3.617   9.008  0.1984  0.0525 -0.2711
35069SOL     OW 7838   9.213   0.913   7.609  0.5601  0.4301 -0.0311
35069SOL    HW1 7839   9.278   0.982   7.600  1.0289  0.1171  0.8967
35069SOL    HW2 7840   9.175   0.925   7.696  2.7440 -2.2085  1.4329
35070SOL     OW 7841   4.079   7.486   3.256  0.2517  0.0233  0.5445
35070SOL    HW1 7842   4.068   7.511   3.164  0.0274 -0.7444  0.3554
35070SOL    HW2 7843   3.991   7.464   3.286  0.4183 -0.3831  0.7433
35071SOL     OW 7844   8.630   1.361   2.814 -0.5310 -0.1763  0.1008
35071SOL    HW1 7845   8.579   1.306   2.755  0.1526 -0.8112  0.1000
35071SOL    HW2 7846   8.579   1.442   2.820 -1.2644 -0.5941 -0.3255
35072SOL     OW 7847   6.934   3.596   5.297  0.2254  0.4818  0.2747
35072SOL    HW1 7848   6.966   3.522   5.246  1.4528 -0.2626  2.0515
35072SOL    HW2 7849   6.876   3.557   5.362 -0.4101  1.2818  0.2028
35073SOL     OW 7850   1.644   8.450  10.082 -0.1892  0.1401  0.2604
35073SOL    HW1 7851   1.707   8.392  10.123 -0.0396 -0.0558 -0.2413
35073SOL    HW2 7852   1.588   8.480  10.154 -0.3598 -0.7410  0.4987
35074SOL     OW 7853   3.641   6.956   5.839  0.5783 -0.2754 -0.4791
35074SOL    HW1 7854   3.598   6.879   5.800  0.5714  0.7229 -2.5303
35074SOL    HW2 7855   3.621   6.948   5.933  0.1100 -2.4669 -0.6934
35075SOL     OW 7856   9.275   3.451  10.070  0.5287 -0.3884 -0.5032
35075SOL    HW1 7857   9.348   3.450  10.131  2.7879  1.5388 -2.9625
35075SOL    HW2 7858   9.275   3.363  10.031  0.3225 -0.9692  0.7437
35076SOL     OW 7859   9.885   8.584   9.971  0.2297 -0.9673 -0.4407
35076SOL    HW1 7860   9.941   8.662   9.963 -0.8151  0.0152  1.2540
35076SOL    HW2 7861   9.925   8.534  10.042 -0.5223 -0.7085  0.1697
35077SOL     OW 7862   2.248   2.831   3.817 -0.0521  0.0592  0.5445
35077SOL    HW1 7863   2.205   2.754   3.779 -0.4689  0.3239  0.4742
35077SOL    HW2 7864   2.306   2.863   3.748 -0.7965  0.5326  0.1230
35078SOL     OW 7865   6.439   1.034   2.007 -0.2144  0.4579 -0.1560
35078SOL    HW1 7866   6.447   1.067   2.097 -1.8321 -0.6290  0.4352
35078SOL    HW2 7867   6.523   0.991   1.990  0.0738  0.5841  0.8816
35079SOL     OW 7868   0.466   1.710   2.349 -0.2449 -0.0171 -0.0335
35079SOL    HW1 7869   0.532   1.720   2.281 -0.4024 -0.0386 -0.1906
35079SOL    HW2 7870   0.416   1.632   2.324  1.5040 -1.7706  1.6320
35080SOL     OW 7871   3.243   3.023   9.255  0.8364 -0.0939  0.2615
35080SOL    HW1 7872   3.248   2.993   9.345 -0.1293 -0.2700  0.2750
35080SOL    HW2 7873   3.305   2.968   9.207  2.0730  0.6542  0.9659
35081SOL     OW 7874   5.297   9.379   9.120 -0.0255 -0.0208 -0.1771
35081SOL    HW1 7875   5.219   9.325   9.114  0.6614 -1.2147  1.1195
35081SOL    HW2 7876   5.350   9.339   9.189 -0.1141  3.0989  1.9185
35082SOL     OW 7877   3.800   5.194   2.560  0.0464  0.2194 -0.6104
35082SOL    HW1 7878   3.824   5.104   2.539 -1.4228 -0.4016  0.2647
35082SOL    HW2 7879   3.771   5.191   2.652 -2.8386  0.9519 -1.3929
35083SOL     OW 7880   0.871   0.433   1.933  0.0824 -0.4397  0.2590
35083SOL    HW1 7881   0.951   0.486   1.943 -0.7493  0.6275  1.6162
35083SOL    HW2 7882   0.840   0.420   2.023 -1.5202 -0.4358 -0.2681
35084SOL     OW 7883   0.547   8.567   2.717  0.2150 -0.9019 -0.6982
35084SOL    HW1 7884   0.506   8.481   2.713 -4.3546  1.0303 -2.4931
35084SOL    HW2 7885   0.501   8.611   2.789  1.1079  0.6261 -1.0241
35085SOL     OW 7886   2.553   7.961   0.309  0.1001  0.8735  0.2635
35085SOL    HW1 7887   2.461   7.985   0.321 -0.1539  0.5802 -1.0178
35085SOL    HW2 7888   2.596   7.994   0.388 -0.9023  2.0757  0.3500
35086SOL     OW 7889   2.852   6.526   7.307  0.4756 -0.2145  0.1768
35086SOL    HW1 7890   2.814   6.466   7.372 -0.6760  0.2435 -0.0351
35086SOL    HW2 7891   2.933   6.557   7.347  0.2314 -0.6278  1.0221
35087SOL     OW 7892   4.950   3.573   3.193  0.4391 -0.0282  0.1091
35087SOL    HW1 7893   4.913   3.571   3.104 -1.0623 -0.3558  0.7207
35087SOL    HW2 7894   5.043   3.593   3.179  0.4643 -1.1109 -1.6022
35088SOL     OW 7895   1.120   0.613   9.594  0.0837  0.3870  0.1174
35088SOL    HW1 7896   1.188   0.594   9.658  1.7607 -0.4722 -1.8066
35088SOL    HW2 7897   1.072   0.687   9.631 -0.0308 -1.0011  3.0370
35089SOL     OW 7898   3.009   3.394   1.995 -0.6356  0.4011 -0.2482
35089SOL    HW1 7899   2.991   3.301   2.006  0.7060  0.3180  1.8224
35089SOL    HW2 7900   3.073   3.414   2.063  1.3586  2.2220 -2.5024
35090SOL     OW 7901   4.976   3.362   4.727  0.0073  0.0702  0.4042
35090SOL    HW1 7902   4.892   3.337   4.766 -0.2125  1.1381  0.6337
35090SOL    HW2 7903   4.983   3.456   4.742  1.8925 -0.2042  1.6513
35091SOL     OW 7904   2.945   6.525   8.015  0.0235 -0.0807 -0.1353
35091SOL    HW1 7905   3.022   6.526   7.958 -0.3579  0.3197 -0.6610
35091SOL    HW2 7906   2.968   6.465   8.085  0.7468 -0.1049 -0.3794
35092SOL     OW 7907   2.869   6.974   9.087  0.3458 -0.6407 -0.1980
35092SOL    HW1 7908   2.928   7.043   9.119  1.0161 -1.7451  1.0354
35092SOL    HW2 7909   2.902   6.894   9.126 -0.7016 -1.6150 -1.2422
35093SOL     OW 7910  10.163   7.879   9.475  0.1505  0.4535  0.5171
35093SOL    HW1 7911  10.224   7.950   9.456 -0.7806  1.1898  0.2119
35093SOL    HW2 7912  10.219   7.802   9.489  1.0807  0.7347 -1.3731
35094SOL     OW 7913  10.151   3.663   2.313  0.3998  0.0345 -0.3289
35094SOL    HW1 7914  10.237   3.703   2.302 -0.6322  1.8831 -2.8247
35094SOL    HW2 7915  10.146   3.596   2.244 -0.4355  0.5856 -0.8316
35095SOL     OW 7916   0.798   0.798   8.784 -0.5869  0.4228 -1.2371
35095SOL    HW1 7917   0.818   0.760   8.698  0.5784  0.7035 -1.0975
35095SOL    HW2 7918   0.864   0.866   8.796 -0.7245  0.3618 -0.1004
35096SOL     OW 7919   8.877   1.774   1.910  0.2582 -0.4056  0.1772
35096SOL    HW1 7920   8.833   1.836   1.852  2.4992  2.8920  1.6669
35096SOL    HW2 7921   8.807   1.718   1.943 -1.7413  0.5370 -2.1727
35097SOL     OW 7922   0.471   3.453   1.918 -0.2909  0.2614 -0.3361
35097SOL    HW1 7923   0.552   3.403   1.918  1.0251  2.3007  0.0226
35097SOL    HW2 7924   0.446   3.459   2.011 -0.2006  0.6241 -0.3331
35098SOL     OW 7925   3.423   6.710   6.830 -0.4845  0.1540 -0.5767
35098SOL    HW1 7926   3.384   6.622   6.835  1.2244 -0.6859 -1.2395
35098SOL    HW2 7927   3.403   6.740   6.742  0.3611 -0.2988 -0.9349
35099SOL     OW 7928   7.093   1.822   8.511 -0.0754  0.2137 -0.1924
35099SOL    HW1 7929   7.117   1.773   8.433 -0.0761  0.9873 -0.6771
35099SOL    HW2 7930   7.011   1.780   8.541 -0.6015  0.5394 -1.1563
35100SOL     OW 7931   4.920   4.213   1.092  0.3157 -0.4851 -0.1179
35100SOL    HW1 7932   4.907   4.242   1.001  1.2663 -2.0283 -0.7799
35100SOL    HW2 7933   4.984   4.143   1.086 -0.1329 -1.0996  1.6840
35101SOL     OW 7934  10.258   7.799   5.489  0.0454  0.1887 -0.3361
35101SOL    HW1 7935  10.332   7.806   5.550 -1.4372  0.4634  1.5223
35101SOL    HW2 7936  10.244   7.889   5.458  0.3610  0.1699 -0.5365
35102SOL     OW 7937   5.356   2.376   2.438 -0.3787  0.0728 -0.0682
35102SOL    HW1 7938   5.263   2.368   2.417 -0.2261  0.9095 -1.1016
35102SOL    HW2 7939   5.370   2.470   2.451  0.1487 -0.1281  0.9836
35103SOL     OW 7940   0.696   7.155   1.375  0.4489 -0.2827 -0.3413
35103SOL    HW1 7941   0.618   7.163   1.320 -0.4834  1.5005  1.1126
35103SOL    HW2 7942   0.672   7.200   1.456  2.8255 -0.1401  0.3467
35104SOL     OW 7943   0.723   8.109   8.838 -0.2296  0.6142  0.0443
35104SOL    HW1 7944   0.693   8.159   8.762  0.4659  1.8125  0.5340
35104SOL    HW2 7945   0.658   8.038   8.847 -0.4941  0.6381 -1.4530
35105SOL     OW 7946   7.474   9.037  10.072 -0.1242  0.0222 -0.0937
35105SOL    HW1 7947   7.502   8.946  10.084  1.7932  0.6569  0.6092
35105SOL    HW2 7948   7.525   9.087  10.137  0.1982  1.8220 -1.6458
35106SOL     OW 7949   5.310   3.750   8.089 -0.0850 -0.4732 -0.0868
35106SOL    HW1 7950   5.329   3.718   8.001 -1.4855  2.8428 -1.7795
35106SOL    HW2 7951   5.391   3.792   8.118  0.2862 -1.3100  0.1247
35107SOL     OW 7952   0.914   4.210   0.810  0.0420 -0.0152  0.3062
35107SOL    HW1 7953   0.956   4.154   0.875 -0.6685 -0.0023  0.7897
35107SOL    HW2 7954   0.963   4.292   0.815  0.2153 -0.1335  0.5816
35108SOL     OW 7955   3.875   8.087   1.186 -0.5246 -0.4733  0.0480
35108SOL    HW1 7956   3.780   8.081   1.186 -0.5010 -0.8511  0.2003
35108SOL    HW2 7957   3.894   8.178   1.211 -0.8351 -0.4899  0.3388
35109SOL     OW 7958   2.291   4.019   6.579  0.0497 -0.3258  0.4255
35109SOL    HW1 7959   2.323   4.024   6.489 -0.3935 -1.4317  0.1905
35109SOL    HW2 7960   2.295   4.109   6.611  0.9001 -0.0328 -0.4581
35110SOL     OW 7961   6.569   2.155   3.256 -0.0869 -0.1203  0.2077
35110SOL    HW1 7962   6.596   2.128   3.344  0.2689  0.9363  0.4318
35110SOL    HW2 7963   6.535   2.075   3.216  1.0199 -0.9128  0.8122
35111SOL     OW 7964   2.920   6.546   8.615 -0.2106 -0.5826 -0.7645
35111SOL    HW1 7965   2.918   6.635   8.580  1.4829  0.0776  0.7005
35111SOL    HW2 7966   2.886   6.554   8.704 -1.4624 -1.7063 -1.0895
35112SOL     OW 7967   8.903   5.285   2.776 -0.1003 -0.4704 -0.1933
35112SOL    HW1 7968   8.851   5.362   2.800 -0.0927 -0.8759  1.2121
35112SOL    HW2 7969   8.839   5.223   2.741 -0.1333  0.0876 -1.1526
35113SOL     OW 7970   2.357   4.234   3.198  0.2956  0.4831 -0.0817
35113SOL    HW1 7971   2.306   4.153   3.201 -0.2040  0.5559 -3.2201
35113SOL    HW2 7972   2.409   4.232   3.278 -1.0817 -1.9834  0.8782
35114SOL     OW 7973   7.370   7.676   6.957 -0.3265 -0.1744  0.1223
35114SOL    HW1 7974   7.304   7.652   7.021 -0.4800  0.1672  0.0951
35114SOL    HW2 7975   7.443   7.709   7.009  0.0387 -1.0425  0.1810
35115SOL     OW 7976   8.782   0.125   7.207 -0.1419  0.1310 -0.6722
35115SOL    HW1 7977   8.714   0.192   7.205 -0.8388 -0.5807 -1.3477
35115SOL    HW2 7978   8.740   0.046   7.173  0.6408 -0.6872  0.2066
35116SOL     OW 7979   4.637   5.577   4.342 -0.5048 -0.0114  0.1862
35116SOL    HW1 7980   4.670   5.638   4.408 -1.0210  0.9533 -0.4362
35116SOL    HW2 7981   4.677   5.493   4.366 -0.4352  0.3825  1.5325
35117SOL     OW 7982   5.438   4.595   6.587 -0.3361 -0.8390  0.2045
35117SOL    HW1 7983   5.421   4.620   6.496 -0.5224  0.0122  0.4635
35117SOL    HW2 7984   5.364   4.631   6.636  0.5665  0.1559  0.9109
35118SOL     OW 7985   9.277   3.733   8.863  0.0508  0.1941 -0.0417
35118SOL    HW1 7986   9.227   3.660   8.826  0.4259  0.7620 -1.7971
35118SOL    HW2 7987   9.214   3.781   8.917 -0.9540  0.1447 -1.1347
35119SOL     OW 7988   2.208   4.385   7.382  0.0277  0.2244 -0.2596
35119SOL    HW1 7989   2.295   4.404   7.415 -0.2489  0.2996  0.4537
35119SOL    HW2 7990   2.212   4.403   7.288  0.8432 -0.0221 -0.2734
35120SOL     OW 7991   2.692   2.658  10.199 -0.2536  0.1311  0.0759
35120SOL    HW1 7992   2.738   2.579  10.171  0.9866  1.0472 -0.5623
35120SOL    HW2 7993   2.673   2.643  10.292  1.6619 -0.1508  0.4629
35121SOL     OW 7994   5.394   1.950   0.245  0.1230 -0.3804 -0.5130
35121SOL    HW1 7995   5.303   1.924   0.231 -0.2239  1.3446 -1.8080
35121SOL    HW2 7996   5.417   1.914   0.331 -2.1055 -0.0096  0.2964
35122SOL     OW 7997   0.078   2.644  10.134 -0.3897 -0.0354 -0.2764
35122SOL    HW1 7998   0.102   2.613  10.047 -1.3899 -0.4841 -0.4156
35122SOL    HW2 7999   0.112   2.733  10.138 -1.8356  0.6477 -1.8190
35123SOL     OW 8000   8.717   6.195   2.590 -0.2695 -0.3714  0.7773
35123SOL    HW1 8001   8.747   6.246   2.665  0.0395 -1.1687  1.2100
35123SOL    HW2 8002   8.789   6.136   2.570 -0.4109 -0.2723 -0.0592
35124SOL     OW 8003   2.916   6.497   5.740 -0.1571  0.0520  0.2195
35124SOL    HW1 8004   2.881   6.412   5.715  1.6562 -0.6024 -0.2589
35124SOL    HW2 8005   2.955   6.483   5.826 -0.0329  0.4602  0.2318
35125SOL     OW 8006   5.126   9.764   7.586 -0.8234 -0.2754  0.3803
35125SOL    HW1 8007   5.174   9.765   7.503  0.9297 -2.3480  1.2905
35125SOL    HW2 8008   5.161   9.839   7.634 -0.2239 -0.3701  0.1020
35126SOL     OW 8009   2.204   9.445   6.896  0.1692 -0.2289  0.2699
35126SOL    HW1 8010   2.220   9.457   6.803 -2.6156  0.4525 -0.2102
35126SOL    HW2 8011   2.205   9.534   6.932 -1.1328 -0.2637  0.4201
35127SOL     OW 8012   6.871   6.155   0.445 -0.1345  0.2446 -0.1765
35127SOL    HW1 8013   6.793   6.210   0.440  1.0719  1.9589 -1.2506
35127SOL    HW2 8014   6.837   6.065   0.442 -2.0954  0.9161  0.3710
35128SOL     OW 8015   2.845   2.329   4.249  0.1961 -0.2430  0.1011
35128SOL    HW1 8016   2.885   2.378   4.321 -1.9347 -0.3955  1.4888
35128SOL    HW2 8017   2.818   2.246   4.288 -2.3887  0.2708 -0.3744
35129SOL     OW 8018   6.274   7.095   4.148  0.3499 -0.2330  0.1438
35129SOL    HW1 8019   6.323   7.068   4.226 -0.8188  0.3267  1.1168
35129SOL    HW2 8020   6.330   7.159   4.105  0.9790 -0.4871  0.5659
35130SOL     OW 8021   5.588   3.245   1.549 -0.9250 -0.0503 -0.2517
35130SOL    HW1 8022   5.656   3.297   1.590 -1.7290  1.0532 -0.2698
35130SOL    HW2 8023   5.537   3.210   1.622 -0.4625 -0.7284 -0.2433
35131SOL     OW 8024   6.544   0.878   1.125  0.0293 -0.5359  0.5612
35131SOL    HW1 8025   6.633   0.869   1.090 -0.3657 -2.5010 -0.0530
35131SOL    HW2 8026   6.514   0.963   1.093  1.5069 -0.0470  0.3950
35132SOL     OW 8027   2.543  10.296   3.552 -0.3406  0.2780  0.5154
35132SOL    HW1 8028   2.637  10.310   3.564 -0.2069 -0.1130  0.0047
35132SOL    HW2 8029   2.527  10.321   3.461 -0.8812  1.0638  0.8196
35133SOL     OW 8030   4.840   1.255   2.414  0.0234 -0.0619  0.0603
35133SOL    HW1 8031   4.745   1.256   2.405 -0.1438  0.6227  1.5278
35133SOL    HW2 8032   4.860   1.171   2.455  0.0600 -0.2323 -0.3057
35134SOL     OW 8033   2.305   9.677   5.972  0.1097 -0.0828  0.4099
35134SOL    HW1 8034   2.313   9.753   6.030 -1.9413  0.0431  0.6007
35134SOL    HW2 8035   2.358   9.699   5.896  0.2713  1.1513  0.8590
35135SOL     OW 8036   2.864   7.579   0.322  0.1647 -0.3348  0.0900
35135SOL    HW1 8037   2.779   7.599   0.361 -0.0646 -0.5931 -0.2703
35135SOL    HW2 8038   2.904   7.515   0.382  0.5879  0.6305  0.8542
35136SOL     OW 8039   8.131   7.273   0.053 -0.1383 -0.3251  0.4841
35136SOL    HW1 8040   8.179   7.288  -0.029 -1.3814  0.9120 -0.0656
35136SOL    HW2 8041   8.188   7.215   0.104  2.9171  2.5694  0.7370
35137SOL     OW 8042   1.578   2.701  10.090  0.0514  0.5909 -0.1581
35137SOL    HW1 8043   1.582   2.768  10.022  1.4884 -0.6392 -1.3646
35137SOL    HW2 8044   1.628   2.737  10.163  0.4482  0.9930 -0.6257
35138SOL     OW 8045   5.550  10.231   9.676 -0.4031 -0.0493 -0.4846
35138SOL    HW1 8046   5.625  10.178   9.702 -0.8469 -0.1032  0.7530
35138SOL    HW2 8047   5.589  10.312   9.643  0.2320 -0.5862 -1.0767
35139SOL     OW 8048   4.575   8.577   2.015 -0.1094  0.2811  0.3678
35139SOL    HW1 8049   4.561   8.640   2.085  2.0054 -0.3719  1.4414
35139SOL    HW2 8050   4.546   8.493   2.052  2.4996 -0.3561  1.1357
35140SOL     OW 8051   8.809   0.240   8.191 -0.1772 -0.0031 -0.3611
35140SOL    HW1 8052   8.763   0.275   8.114 -0.2340  1.9750  0.5212
35140SOL    HW2 8053   8.888   0.293   8.197  0.7510 -1.3943 -0.1126
35141SOL     OW 8054   8.868   0.216   8.525 -0.2685  0.6218  0.1735
35141SOL    HW1 8055   8.813   0.273   8.471 -0.8895  0.3908  0.5405
35141SOL    HW2 8056   8.924   0.169   8.463 -1.3173 -0.0093 -0.3288
35142SOL     OW 8057   5.026  10.193   9.622 -0.1865 -0.5362 -0.0505
35142SOL    HW1 8058   5.052  10.223   9.709 -0.4555 -1.1767  0.2532
35142SOL    HW2 8059   4.957  10.254   9.595 -1.4429 -1.4607  0.9865
35143SOL     OW 8060   8.959   7.352   8.554  0.6680 -0.2017  1.0328
35143SOL    HW1 8061   8.971   7.436   8.599 -1.2825  0.7607 -0.1277
35143SOL    HW2 8062   9.036   7.344   8.497  1.3278  0.3296  1.8164
35144SOL     OW 8063   0.986   8.910   1.027 -0.0024  0.5270  0.4219
35144SOL    HW1 8064   0.942   8.830   0.998  1.1804  0.1583 -0.4325
35144SOL    HW2 8065   0.961   8.976   0.962 -0.0822  0.5815  0.5059
35145SOL     OW 8066   5.339   7.098   5.225  0.6469  0.5269 -0.3259
35145SOL    HW1 8067   5.309   7.141   5.145  0.8445  2.4372  0.5688
35145SOL    HW2 8068   5.264   7.106   5.285 -0.0711 -2.2242 -0.7322
35146SOL     OW 8069   7.972   9.472   4.982 -0.3701 -0.2470  0.3828
35146SOL    HW1 8070   8.062   9.442   4.993 -0.0945  0.7262  0.8987
35146SOL    HW2 8071   7.918   9.395   4.998  0.3207 -0.5307  1.4123
35147SOL     OW 8072   1.737   6.415   6.496  0.0893  0.3507 -0.0402
35147SOL    HW1 8073   1.717   6.433   6.588  0.7217  0.3917  0.0969
35147SOL    HW2 8074   1.698   6.329   6.480 -2.0149  1.3293 -0.4005
35148SOL     OW 8075   5.822   0.198   5.506 -0.2161 -0.3400  0.4081
35148SOL    HW1 8076   5.878   0.276   5.505  0.9678 -1.1556 -0.1014
35148SOL    HW2 8077   5.811   0.175   5.413 -0.6723 -0.6960  0.5469
35149SOL     OW 8078  10.162   5.665   6.908 -0.1861 -0.3494 -0.9333
35149SOL    HW1 8079  10.119   5.721   6.973 -1.2058 -0.2336 -1.6859
35149SOL    HW2 8080  10.248   5.706   6.895 -0.0738 -0.2212  0.1307
35150SOL     OW 8081   0.578   8.429   8.458 -0.5460  0.0568  0.7678
35150SOL    HW1 8082   0.659   8.397   8.497  0.0322 -2.1087 -1.8725
35150SOL    HW2 8083   0.512   8.419   8.527  1.0883  0.3058  2.4317
35151SOL     OW 8084   7.652   2.956   7.506  0.3962  0.1149 -0.3690
35151SOL    HW1 8085   7.620   2.867   7.518  1.1653 -0.2589 -0.9992
35151SOL    HW2 8086   7.580   3.012   7.535  0.6166 -0.6933  1.9926
35152SOL     OW 8087   4.266   6.382   9.250  0.6061  0.3088 -0.3260
35152SOL    HW1 8088   4.298   6.469   9.275  2.0238  0.1096 -1.3133
35152SOL    HW2 8089   4.339   6.323   9.271 -0.5997 -0.7962  1.0263
35153SOL     OW 8090   1.651   7.437   9.539 -0.6939  0.2284 -0.3653
35153SOL    HW1 8091   1.679   7.493   9.611  0.9163 -0.4534 -0.4136
35153SOL    HW2 8092   1.731   7.424   9.487 -1.5522 -0.2878 -1.5844
35154SOL     OW 8093   7.826   9.121   2.977  0.0500 -0.1607 -0.2199
35154SOL    HW1 8094   7.802   9.155   2.891 -0.8709 -1.7411 -0.6086
35154SOL    HW2 8095   7.922   9.123   2.978  0.0567  0.1651 -1.1528
35155SOL     OW 8096   9.694   7.243   6.042 -0.1942 -0.4464  0.6459
35155SOL    HW1 8097   9.617   7.243   5.985 -0.9724 -0.5084  1.6641
35155SOL    HW2 8098   9.696   7.155   6.079  0.3725 -0.4430  0.6275
35156SOL     OW 8099   5.824   2.514   5.038  0.1069 -0.0566  0.5009
35156SOL    HW1 8100   5.739   2.525   4.994 -0.1545 -0.1679  0.9640
35156SOL    HW2 8101   5.888   2.520   4.968 -0.0873  2.8453  0.4657
35157SOL     OW 8102   6.585   2.843   9.281 -0.5311 -0.2989  0.5319
35157SOL    HW1 8103   6.523   2.774   9.256 -0.1074  0.2956 -2.5010
35157SOL    HW2 8104   6.669   2.798   9.290 -0.3777 -0.3299 -0.8306
35158SOL     OW 8105   1.859   0.415   1.327  0.2907  0.0070 -0.4269
35158SOL    HW1 8106   1.792   0.482   1.340  0.3144  0.2051 -1.3031
35158SOL    HW2 8107   1.890   0.429   1.237  1.8959  0.2933  0.1292
35159SOL     OW 8108   2.255   1.791   5.465 -0.2756  0.1554 -0.0304
35159SOL    HW1 8109   2.308   1.860   5.425 -1.4720  1.4574  0.5434
35159SOL    HW2 8110   2.171   1.833   5.483 -0.6946 -1.1727  1.2814
35160SOL     OW 8111   6.930   2.862   0.180  0.2182 -0.1665 -0.0846
35160SOL    HW1 8112   6.925   2.946   0.135 -0.3178 -0.8733 -1.3706
35160SOL    HW2 8113   6.893   2.880   0.267 -0.4436  0.7751 -0.5434
35161SOL     OW 8114   0.816   6.723   5.761  0.4500 -0.1619 -0.0143
35161SOL    HW1 8115   0.745   6.748   5.703 -0.3954 -0.7208  0.7514
35161SOL    HW2 8116   0.773   6.687   5.838  1.5178  1.4360  1.3914
35162SOL     OW 8117   3.067   5.849   1.471  0.0266 -0.2135 -0.3355
35162SOL    HW1 8118   3.087   5.942   1.465  0.4336 -0.3820 -2.6611
35162SOL    HW2 8119   3.025   5.838   1.556 -0.3987  2.1599 -0.1908
35163SOL     OW 8120   1.396   7.533   9.760 -0.2777  0.2246 -0.0819
35163SOL    HW1 8121   1.456   7.593   9.806 -0.1136 -0.1047  0.1453
35163SOL    HW2 8122   1.394   7.455   9.816  0.9481 -0.7072 -1.2838
35164SOL     OW 8123   1.866   4.270  10.087  0.1677 -0.4913  0.0612
35164SOL    HW1 8124   1.951   4.227  10.073  0.7579  1.0035 -1.1715
35164SOL    HW2 8125   1.834   4.290   9.999 -0.7560  0.3378  0.5692
35165SOL     OW 8126   1.962   5.173   4.551  0.6908  0.1287 -0.0037
35165SOL    HW1 8127   2.006   5.258   4.548  1.2550 -0.1710 -0.4679
35165SOL    HW2 8128   1.930   5.166   4.641  1.1305  0.5901  0.1956
35166SOL     OW 8129  10.080   0.858   7.166 -0.3048 -0.1897 -0.4807
35166SOL    HW1 8130  10.163   0.810   7.156 -0.8340 -1.1356 -0.4937
35166SOL    HW2 8131  10.057   0.845   7.258 -0.0934  0.6676 -0.3022
35167SOL     OW 8132   1.682   5.593   5.120 -0.0520 -0.0147  0.2772
35167SOL    HW1 8133   1.778   5.597   5.117  0.0248 -1.6953 -0.7631
35167SOL    HW2 8134   1.662   5.565   5.209  0.4395 -0.0776  0.3687
35168SOL     OW 8135   4.566   3.747   3.317  0.4103  0.3544  0.5243
35168SOL    HW1 8136   4.502   3.676   3.317 -0.8585  1.4521  1.5268
35168SOL    HW2 8137   4.554   3.790   3.232  2.0551 -1.3095 -0.6378
35169SOL     OW 8138   6.017   2.078   8.606  0.7410  0.4248 -0.5602
35169SOL    HW1 8139   6.066   2.146   8.651  1.1397  0.4779 -1.0733
35169SOL    HW2 8140   5.929   2.114   8.595  0.5003  0.2324  0.5833
35170SOL     OW 8141   6.990   7.924   5.918  0.3278  0.2196  0.3868
35170SOL    HW1 8142   7.016   7.833   5.927 -0.8231 -0.1032  0.7028
35170SOL    HW2 8143   7.041   7.957   5.844  0.4775 -0.7964  0.0245
35171SOL     OW 8144   6.722   6.245   2.399  0.1919  0.0843  0.6590
35171SOL    HW1 8145   6.814   6.221   2.413  0.2452 -0.7183 -0.8598
35171SOL    HW2 8146   6.680   6.164   2.371 -0.5434  0.8790 -0.5984
35172SOL     OW 8147   0.541   6.297   0.333  0.3437  0.1886 -0.1028
35172SOL    HW1 8148   0.488   6.257   0.263 -0.0291  3.0164 -1.5970
35172SOL    HW2 8149   0.476   6.336   0.392  0.7187  0.1381  0.3434
35173SOL     OW 8150   2.438   2.445   8.138 -0.1948 -0.2697  0.1175
35173SOL    HW1 8151   2.425   2.539   8.134  0.8245 -0.1489 -0.5777
35173SOL    HW2 8152   2.385   2.410   8.066 -0.5808 -0.2364  0.3827
35174SOL     OW 8153   3.567   4.655   8.055 -0.7228  0.1914  0.0454
35174SOL    HW1 8154   3.575   4.560   8.049  1.3518  0.3475 -0.6150
35174SOL    HW2 8155   3.646   4.688   8.011 -0.5930  2.1820  1.6271
35175SOL     OW 8156   1.799   4.118   0.978 -0.1777 -0.1608  0.2183
35175SOL    HW1 8157   1.853   4.166   1.041  0.0235 -0.8364  0.5747
35175SOL    HW2 8158   1.731   4.180   0.953 -0.0176  0.2606  0.7919
35176SOL     OW 8159   3.872   7.694   2.872 -0.2387 -0.2915 -0.5853
35176SOL    HW1 8160   3.891   7.729   2.785 -1.6756 -0.1134 -0.8586
35176SOL    HW2 8161   3.776   7.699   2.879 -0.1884 -0.8545  0.7751
35177SOL     OW 8162   6.975   3.775   3.308  0.1940 -0.0233  0.7171
35177SOL    HW1 8163   6.988   3.792   3.401  2.0532  1.1186  0.3080
35177SOL    HW2 8164   6.922   3.848   3.277  0.9265  0.4695  0.5981
35178SOL     OW 8165   9.721   3.759  10.077  0.5274  0.4649  0.0274
35178SOL    HW1 8166   9.719   3.782   9.984  1.8348  0.4922 -0.0139
35178SOL    HW2 8167   9.728   3.842  10.122 -0.8505  0.5066  0.2180
35179SOL     OW 8168  10.343   6.959   0.529 -0.1088 -0.0225  0.0547
35179SOL    HW1 8169  10.388   6.979   0.611 -0.3408 -0.7224  0.3603
35179SOL    HW2 8170  10.332   7.044   0.486 -0.7275  0.4684  1.1292
35180SOL     OW 8171   6.924   1.115   7.020  0.2095  0.0204  0.2243
35180SOL    HW1 8172   6.867   1.115   7.097 -1.7413  1.1655 -1.1430
35180SOL    HW2 8173   6.923   1.206   6.989  3.1048  0.1705  0.3184
35181SOL     OW 8174   6.293   0.099   6.940 -0.2825 -0.0775  0.0762
35181SOL    HW1 8175   6.297   0.137   6.853  0.6251  0.1157  0.1832
35181SOL    HW2 8176   6.219   0.142   6.983 -1.6140 -1.1864 -1.0420
35182SOL     OW 8177   9.141  10.178   2.939 -0.3971  0.0161 -0.6373
35182SOL    HW1 8178   9.178  10.110   2.995  1.0883 -0.6494 -2.3222
35182SOL    HW2 8179   9.215  10.211   2.889 -1.4594  1.4260 -1.3482
35183SOL     OW 8180   9.804   0.194   6.820 -0.2056 -0.2182  0.5182
35183SOL    HW1 8181   9.898   0.178   6.831 -0.1877 -0.7922 -0.3994
35183SOL    HW2 8182   9.769   0.193   6.909  0.5060 -0.9407  0.7975
35184SOL     OW 8183   5.231   6.091   4.108  1.0135  0.3090  0.3424
35184SOL    HW1 8184   5.186   6.058   4.186 -0.5960  0.7660 -0.3496
35184SOL    HW2 8185   5.210   6.028   4.040  1.5357  0.4684  0.0297
35185SOL     OW 8186   1.174   1.013   7.474  0.0291  0.1374  0.7583
35185SOL    HW1 8187   1.090   1.060   7.477  0.9435  2.2337 -2.1016
35185SOL    HW2 8188   1.153   0.930   7.430 -0.6372  0.3701  0.6248
35186SOL     OW 8189   9.786   4.708   5.400 -0.3901 -0.2014  0.7084
35186SOL    HW1 8190   9.829   4.755   5.472  0.6644 -0.0651  0.0110
35186SOL    HW2 8191   9.850   4.642   5.372 -1.0240 -0.6541  0.2833
35187SOL     OW 8192   5.119   3.877   9.506  0.1465  0.6109  0.3006
35187SOL    HW1 8193   5.048   3.939   9.488  0.4628  1.2169  1.0536
35187SOL    HW2 8194   5.087   3.793   9.475 -1.1868  0.7455  1.2190
35188SOL     OW 8195   9.001   0.514   9.735  0.4616  0.0043 -0.5316
35188SOL    HW1 8196   9.035   0.436   9.779  1.7686  2.1167  2.5438
35188SOL    HW2 8197   8.936   0.549   9.796 -0.3034  1.2075 -1.9748
35189SOL     OW 8198   6.931   2.610   8.848  0.5330  0.1231  0.9651
35189SOL    HW1 8199   6.961   2.658   8.771  1.2431 -1.1563  0.4212
35189SOL    HW2 8200   6.842   2.643   8.863 -0.2289 -0.6244 -1.3301
35190SOL     OW 8201   0.951   1.812   3.016  0.6902 -0.1356 -0.7245
35190SOL    HW1 8202   0.997   1.814   3.100  0.4760 -0.0363 -0.6102
35190SOL    HW2 8203   0.877   1.871   3.027  0.7655  0.0234 -1.0438
35191SOL     OW 8204   6.765   9.976   8.849 -0.1015 -0.0474  0.2956
35191SOL    HW1 8205   6.856   9.983   8.876 -0.5071  0.4427  1.5996
35191SOL    HW2 8206   6.716   9.963   8.930 -0.9600 -3.0627 -0.5866
35192SOL     OW 8207   0.305   9.472   5.902  0.3956  0.1417  0.0291
35192SOL    HW1 8208   0.345   9.507   5.982 -1.5741 -1.7096  1.9767
35192SOL    HW2 8209   0.216   9.508   5.902  0.3179  0.0148 -1.2905
35193SOL     OW 8210   5.735   5.990   3.132  0.1559  0.5250  0.1107
35193SOL    HW1 8211   5.773   6.027   3.052 -0.7430  3.8891  1.0996
35193SOL    HW2 8212   5.645   5.966   3.107  0.2304  0.5144 -0.1504
35194SOL     OW 8213   0.197   9.709   2.096  0.4397 -0.0860  0.1112
35194SOL    HW1 8214   0.240   9.624   2.092  1.1487  0.2809 -0.1188
35194SOL    HW2 8215   0.201   9.742   2.006  0.2067  0.2135  0.2091
35195SOL     OW 8216   4.784   9.439   4.509  0.8738  0.2653 -0.1106
35195SOL    HW1 8217   4.843   9.405   4.577  1.3221 -0.0992 -0.6741
35195SOL    HW2 8218   4.713   9.375   4.506  1.5566 -0.4819 -0.9464
35196SOL     OW 8219   8.883   9.808   6.723 -0.0833 -0.1428 -0.2625
35196SOL    HW1 8220   8.976   9.806   6.744  0.1302 -1.3965 -1.2113
35196SOL    HW2 8221   8.843   9.742   6.781 -0.1598 -0.5428 -0.7593
35197SOL     OW 8222   0.731   3.417   5.843  0.2917 -0.6378 -0.3850
35197SOL    HW1 8223   0.798   3.354   5.868  0.7635  0.5587  1.5903
35197SOL    HW2 8224   0.777   3.481   5.788  0.4164 -0.6221 -0.2608
35198SOL     OW 8225   6.189   1.542   5.215 -0.0990  0.3722  0.0106
35198SOL    HW1 8226   6.138   1.622   5.203  0.2274  0.6748  0.6142
35198SOL    HW2 8227   6.253   1.563   5.283 -0.8292 -0.8009  1.1038
35199SOL     OW 8228   0.046   1.274   2.073  0.3903  0.4500  0.3055
35199SOL    HW1 8229   0.126   1.224   2.055 -1.7024 -2.7607 -1.0019
35199SOL    HW2 8230   0.018   1.245   2.159 -0.0236  0.5447  0.2056
35200SOL     OW 8231   3.118   3.613   2.697 -0.7590  0.8524  0.2515
35200SOL    HW1 8232   3.115   3.546   2.766  2.2820 -0.4537 -0.7133
35200SOL    HW2 8233   3.144   3.565   2.618  0.7262  3.0108 -0.6594
35201SOL     OW 8234   8.712   0.204   0.348 -0.6210  0.0464 -0.5925
35201SOL    HW1 8235   8.705   0.261   0.272 -2.2277 -0.3426 -0.7590
35201SOL    HW2 8236   8.653   0.243   0.413 -0.3635 -0.4305 -0.0626
35202SOL     OW 8237   2.369   9.257   3.364 -0.2271  0.1395 -0.6513
35202SOL    HW1 8238   2.317   9.207   3.302 -0.3743 -0.5170 -0.0175
35202SOL    HW2 8239   2.320   9.253   3.446  0.8438 -0.5587 -0.0153
35203SOL     OW 8240   2.709   0.065   1.620 -0.2687  0.3327  0.1104
35203SOL    HW1 8241   2.782   0.127   1.609 -0.6198  1.1114  1.9355
35203SOL    HW2 8242   2.744  -0.004   1.675 -0.6672  0.2640  0.2789
35204SOL     OW 8243   8.712   4.501   7.594  0.0230 -0.3950 -0.0372
35204SOL    HW1 8244   8.626   4.533   7.564  0.6305 -0.7646 -2.4241
35204SOL    HW2 8245   8.743   4.445   7.522  2.5642  0.3020  0.4049
35205SOL     OW 8246   8.732   6.433   3.043 -0.6039 -0.3047  0.0671
35205SOL    HW1 8247   8.814   6.447   3.090  0.5474 -1.2097 -1.5469
35205SOL    HW2 8248   8.698   6.350   3.077  0.5007 -1.2324 -1.0016
35206SOL     OW 8249   3.230   8.624   1.830 -0.3958  0.4579  0.5643
35206SOL    HW1 8250   3.290   8.614   1.904  1.3465 -1.6693 -0.9858
35206SOL    HW2 8251   3.150   8.578   1.857  0.6155 -1.2712  0.8012
35207SOL     OW 8252   2.003   9.369   0.904  0.1511  0.5914  0.0653
35207SOL    HW1 8253   2.000   9.274   0.900  0.5518  0.5847 -0.2300
35207SOL    HW2 8254   2.081   9.389   0.956  0.6572  0.7509 -0.7211
35208SOL     OW 8255   4.961   0.192   6.214 -0.0325  0.0433  0.1330
35208SOL    HW1 8256   4.913   0.274   6.207 -0.2156 -0.0251  0.5553
35208SOL    HW2 8257   5.052   0.218   6.224  0.6613  0.1944 -4.3954
35209SOL     OW 8258   2.260   9.254   0.199 -0.3872 -0.5748  0.0102
35209SOL    HW1 8259   2.184   9.215   0.243 -0.2647 -1.5577 -0.6008
35209SOL    HW2 8260   2.227   9.335   0.161 -0.9413 -0.6134  0.3885
35210SOL     OW 8261   4.600   3.633   0.799 -0.1301  0.0025  0.2101
35210SOL    HW1 8262   4.540   3.627   0.724  1.7706 -1.2223 -1.3346
35210SOL    HW2 8263   4.677   3.678   0.764  0.0972  1.0943  1.9959
35211SOL     OW 8264   3.983   8.558   1.176  0.5286  0.0008 -0.4933
35211SOL    HW1 8265   3.984   8.652   1.155 -2.0841  0.4534  0.9895
35211SOL    HW2 8266   4.071   8.541   1.210  1.2276  1.7725 -1.2340
35212SOL     OW 8267   1.138   3.313   2.727  0.3953 -0.4431 -0.4593
35212SOL    HW1 8268   1.116   3.303   2.820  2.1544  0.4407  0.1043
35212SOL    HW2 8269   1.193   3.391   2.724 -0.1453 -0.0844 -2.3588
35213SOL     OW 8270   8.852   8.771   2.560 -0.4089 -0.2888 -0.3848
35213SOL    HW1 8271   8.931   8.787   2.509 -1.0970  0.0562 -1.3633
35213SOL    HW2 8272   8.863   8.683   2.595  0.3830 -0.2612 -0.5520
35214SOL     OW 8273   0.612   2.405   5.438 -0.2025  0.3948 -0.2561
35214SOL    HW1 8274   0.533   2.437   5.481 -1.0037  1.1364 -2.1773
35214SOL    HW2 8275   0.588   2.320   5.403 -0.4624  0.9945 -1.5920
35215SOL     OW 8276   7.903   6.584   9.569 -0.0617 -0.0375  0.7664
35215SOL    HW1 8277   7.869   6.569   9.657 -0.0293  2.0008  1.1767
35215SOL    HW2 8278   7.916   6.678   9.564  2.8665 -0.4008 -0.3698
35216SOL     OW 8279   3.897   3.175   2.993  0.0594 -0.0874  0.0016
35216SOL    HW1 8280   3.880   3.132   2.909 -1.0788 -1.7530  1.0295
35216SOL    HW2 8281   3.980   3.137   3.022 -0.3363 -0.7248  0.3367
35217SOL     OW 8282   6.690   6.093   4.125  0.0562 -1.0368  0.6447
35217SOL    HW1 8283   6.604   6.052   4.131 -0.8745  0.6671 -0.3977
35217SOL    HW2 8284   6.690   6.160   4.193  0.2740 -0.5427  0.1646
35218SOL     OW 8285   7.447   0.195   7.565 -0.5909 -0.0131 -0.1457
35218SOL    HW1 8286   7.466   0.202   7.658  2.2016  0.8360 -0.6855
35218SOL    HW2 8287   7.436   0.101   7.549 -2.5423 -0.0846  1.1929
35219SOL     OW 8288   4.300   7.219   5.640 -0.1210 -0.1766 -0.0859
35219SOL    HW1 8289   4.336   7.186   5.722  0.6126  1.5055  0.3212
35219SOL    HW2 8290   4.267   7.306   5.663  1.0098  0.7328 -1.7789
35220SOL     OW 8291   1.326   0.399   2.699 -0.3057 -0.8593 -0.2676
35220SOL    HW1 8292   1.241   0.420   2.737 -0.5993 -0.6069 -1.0627
35220SOL    HW2 8293   1.307   0.367   2.611  0.4026 -1.0178 -0.3703
35221SOL     OW 8294   9.361   6.637  10.059  0.1561 -0.1752  0.2670
35221SOL    HW1 8295   9.354   6.589   9.976  0.5845 -0.0980  0.1838
35221SOL    HW2 8296   9.443   6.684  10.053  0.4881 -0.6367  0.9797
35222SOL     OW 8297   8.289   3.558   7.029  0.0680  0.0075 -0.6629
35222SOL    HW1 8298   8.211   3.504   7.028 -0.0477  0.1690 -0.4459
35222SOL    HW2 8299   8.349   3.515   6.968  0.0617 -0.4888 -0.3221
35223SOL     OW 8300   8.210   9.189   7.232  0.0400 -0.1660  0.0267
35223SOL    HW1 8301   8.217   9.253   7.302 -0.8466  0.3266 -0.3088
35223SOL    HW2 8302   8.235   9.106   7.272  1.2708  0.3905  0.4497
35224SOL     OW 8303   6.617   2.708   2.506 -0.1453 -0.0599 -1.0608
35224SOL    HW1 8304   6.663   2.767   2.447  3.4903 -0.1536  1.3433
35224SOL    HW2 8305   6.566   2.765   2.563  0.8899  0.5597 -0.7196
35225SOL     OW 8306   0.355   1.768   5.536 -0.0713  0.6785  0.0644
35225SOL    HW1 8307   0.332   1.769   5.443 -0.2813 -0.2971  0.0923
35225SOL    HW2 8308   0.307   1.842   5.574 -0.3016  0.8412 -0.5332
35226SOL     OW 8309   7.565   7.343   4.574 -0.0319  0.0952  0.1363
35226SOL    HW1 8310   7.506   7.296   4.633  0.9277 -0.3253  0.7730
35226SOL    HW2 8311   7.582   7.427   4.617 -0.4347  0.3642 -0.2173
35227SOL     OW 8312  10.141   7.235   3.227  0.0721 -0.7694  0.1426
35227SOL    HW1 8313  10.078   7.166   3.208 -0.7298 -0.8066  2.5547
35227SOL    HW2 8314  10.103   7.314   3.187 -0.2129 -1.2608 -0.5764
35228SOL     OW 8315   1.346   3.231   9.866 -0.1362 -0.0186  0.0426
35228SOL    HW1 8316   1.270   3.239   9.808 -0.5656 -0.2292  0.5778
35228SOL    HW2 8317   1.372   3.139   9.859  1.3887  0.4719 -1.7789
35229SOL     OW 8318   6.140   1.884   7.562 -0.0543  0.4743  0.1963
35229SOL    HW1 8319   6.161   1.811   7.504  1.3175  0.9955 -0.0065
35229SOL    HW2 8320   6.044   1.888   7.563 -0.1744 -1.6123  0.6051
35230SOL     OW 8321   4.058   3.740   0.622  0.1619  0.8234  0.3168
35230SOL    HW1 8322   4.103   3.776   0.699  1.5140  2.1297 -1.0293
35230SOL    HW2 8323   3.997   3.808   0.595 -0.2617  0.3941  0.1781
35231SOL     OW 8324   6.564   1.581   4.430 -0.1170 -0.1531  0.0813
35231SOL    HW1 8325   6.588   1.519   4.361 -0.3809 -1.4429  1.1111
35231SOL    HW2 8326   6.610   1.549   4.507  1.9146  2.4889  0.1076
35232SOL     OW 8327  10.020   8.131   4.113 -0.0623  0.4709 -0.2477
35232SOL    HW1 8328  10.094   8.106   4.168 -0.2839 -0.6676 -0.4479
35232SOL    HW2 8329  10.052   8.121   4.023 -0.4993 -0.2180 -0.3366
35233SOL     OW 8330   0.478   0.397   4.925  0.1221 -0.3954 -0.4698
35233SOL    HW1 8331   0.472   0.425   4.833  0.3890  1.8838  0.1529
35233SOL    HW2 8332   0.524   0.468   4.969 -2.2028 -0.2147  1.9213
35234SOL     OW 8333   7.490   3.450   3.877 -0.4959 -0.0094 -0.1446
35234SOL    HW1 8334   7.399   3.468   3.852 -0.2026 -0.1502 -1.3640
35234SOL    HW2 8335   7.541   3.471   3.799  0.3504 -1.5121 -0.0233
35235SOL     OW 8336   3.706   7.375   6.698 -0.0765  0.2077  0.2981
35235SOL    HW1 8337   3.688   7.382   6.792 -0.7124  0.1120  0.1812
35235SOL    HW2 8338   3.695   7.463   6.665 -0.6394  0.0935  0.1736
35236SOL     OW 8339  10.014   4.406   4.803  0.5343 -0.5929  0.4825
35236SOL    HW1 8340   9.930   4.450   4.791  0.3748 -1.0769 -0.1926
35236SOL    HW2 8341  10.070   4.442   4.734  0.0187 -2.3778 -0.9482
35237SOL     OW 8342   5.397   5.117   2.978 -0.4514 -0.8179  0.2778
35237SOL    HW1 8343   5.356   5.031   2.968 -1.4229 -0.2607 -0.8308
35237SOL    HW2 8344   5.328   5.171   3.017 -0.7142  0.0574 -1.3223
35238SOL     OW 8345   5.680  10.049   4.951  0.2835  0.4813 -0.2124
35238SOL    HW1 8346   5.731  10.011   4.879 -0.7693  0.2724 -0.8583
35238SOL    HW2 8347   5.743  10.104   4.998  0.9560  0.7307 -1.3733
35239SOL     OW 8348   1.401   8.446   7.494 -0.3658  0.5019  0.6583
35239SOL    HW1 8349   1.457   8.452   7.572 -0.1102  3.6606  0.3679
35239SOL    HW2 8350   1.314   8.473   7.524 -0.6560  0.1258  0.1756
35240SOL     OW 8351   4.198   0.728   5.094  0.0560 -0.6561 -0.8877
35240SOL    HW1 8352   4.272   0.670   5.075  0.7997 -0.6063  1.4953
35240SOL    HW2 8353   4.207   0.747   5.188 -2.1546  0.5431 -0.8697
35241SOL     OW 8354   5.007   3.569   1.098  0.0268 -0.0639  0.0896
35241SOL    HW1 8355   5.081   3.513   1.124  0.7008  0.5779 -0.3996
35241SOL    HW2 8356   4.965   3.521   1.027  0.7709  0.1632 -0.5168
35242SOL     OW 8357   5.746   6.485   0.149 -0.0349 -0.1635  0.3380
35242SOL    HW1 8358   5.707   6.531   0.075 -2.8087 -0.8804  1.2564
35242SOL    HW2 8359   5.759   6.553   0.216  1.2993  0.2434 -0.2809
35243SOL     OW 8360   9.709   4.008   1.173  0.0944 -0.4803  0.3091
35243SOL    HW1 8361   9.776   4.024   1.240 -0.3563  1.5517  0.3316
35243SOL    HW2 8362   9.627   4.012   1.221 -0.3087  2.0716 -0.4495
35244SOL     OW 8363   8.117   5.105   2.307  0.3359  0.0771  0.4389
35244SOL    HW1 8364   8.200   5.126   2.349  0.6525  0.0825 -0.1742
35244SOL    HW2 8365   8.126   5.138   2.217 -0.4373  0.3422  0.4476
35245SOL     OW 8366   4.690   0.987   4.053  0.1288  0.3413 -0.0455
35245SOL    HW1 8367   4.735   0.940   3.983 -2.6794 -1.7450 -0.6422
35245SOL    HW2 8368   4.713   1.078   4.039  0.8994 -0.1717 -2.7759
35246SOL     OW 8369   9.862   1.991  10.107 -0.1961 -0.0225  0.3990
35246SOL    HW1 8370   9.912   1.945  10.039 -0.3490  0.9980 -0.4288
35246SOL    HW2 8371   9.775   1.952  10.103 -0.2462  0.1350 -0.1059
35247SOL     OW 8372   4.619   5.488   9.946 -0.9949 -0.0068 -0.4807
35247SOL    HW1 8373   4.671   5.479  10.026 -0.6747  0.3855 -0.6345
35247SOL    HW2 8374   4.684   5.490   9.876 -1.0974  1.9073 -0.5740
35248SOL     OW 8375   4.036   6.370   2.116 -0.4435 -0.1199  0.3543
35248SOL    HW1 8376   3.992   6.358   2.200 -1.2433  0.4890  0.0403
35248SOL    HW2 8377   4.011   6.459   2.089  1.8653  0.6792  0.6701
35249SOL     OW 8378   7.318   9.580   2.813  0.7187  0.1060  0.2050
35249SOL    HW1 8379   7.338   9.613   2.901  0.6724  5.1025 -1.3195
35249SOL    HW2 8380   7.397   9.532   2.787  1.1211 -0.6362  2.5452
35250SOL     OW 8381   4.561   5.208   8.043 -0.2675 -0.1644  0.5226
35250SOL    HW1 8382   4.526   5.120   8.059 -0.6190 -0.0948  0.1529
35250SOL    HW2 8383   4.623   5.195   7.971  0.0438 -0.1921  0.7968
35251SOL     OW 8384   3.869   7.924   9.304  0.1339 -0.4687 -0.2292
35251SOL    HW1 8385   3.936   7.948   9.240  1.0110 -1.7444  0.1529
35251SOL    HW2 8386   3.871   7.995   9.368  0.7546 -0.2208 -0.5111
35252SOL     OW 8387   1.879   3.717   6.873 -0.1152  0.9792 -0.0266
35252SOL    HW1 8388   1.796   3.763   6.860 -0.5016  0.5760  0.9049
35252SOL    HW2 8389   1.921   3.762   6.946  0.4508  1.1152 -0.4232
35253SOL     OW 8390   3.894   8.391  10.277 -0.3564 -0.1881  0.5138
35253SOL    HW1 8391   3.918   8.404  10.185  1.5958 -1.5124  0.7804
35253SOL    HW2 8392   3.907   8.298  10.292 -3.9168 -0.6860  1.3265
35254SOL     OW 8393   7.223   3.104   4.704  1.0369  0.6662 -0.0328
35254SOL    HW1 8394   7.312   3.127   4.730  1.2422 -0.2138  0.0731
35254SOL    HW2 8395   7.229   3.014   4.673 -0.1301 -0.0078  1.5994
35255SOL     OW 8396   4.919   7.034   6.785  0.1572 -0.4677 -0.3492
35255SOL    HW1 8397   4.855   7.105   6.788  0.6919  0.0537 -1.0005
35255SOL    HW2 8398   5.001   7.074   6.814  0.7044 -0.5270 -1.7470
35256SOL     OW 8399   1.954  10.092   2.307  0.0501  0.2150  0.4972
35256SOL    HW1 8400   1.954  10.061   2.398  0.7806 -0.3196  0.3312
35256SOL    HW2 8401   1.912  10.022   2.258 -0.1071  0.3864  0.3883
35257SOL     OW 8402   1.505   4.253   1.648 -0.1184 -0.2146 -0.5584
35257SOL    HW1 8403   1.418   4.253   1.608 -0.4844  0.7358  0.1841
35257SOL    HW2 8404   1.510   4.169   1.694  0.2475 -1.2463 -2.4077
35258SOL     OW 8405   9.489   0.179   3.700  0.0366 -0.9702  0.0893
35258SOL    HW1 8406   9.578   0.193   3.668  0.0357 -1.7573 -0.2671
35258SOL    HW2 8407   9.454   0.108   3.646 -1.0776 -0.1646 -0.2999
35259SOL     OW 8408   9.899   7.953  10.334 -0.5403 -0.3866  0.0286
35259SOL    HW1 8409   9.809   7.981  10.319 -0.7954 -0.4604  1.2628
35259SOL    HW2 8410   9.919   7.984  10.422  0.4505 -0.8535 -0.0187
35260SOL     OW 8411   3.275  10.196   6.889 -0.3706 -0.1757 -0.0622
35260SOL    HW1 8412   3.201  10.136   6.876  0.2337 -0.9967  0.2392
35260SOL    HW2 8413   3.288  10.235   6.803  0.6710 -2.1937 -0.9046
35261SOL     OW 8414   8.473   8.549   4.013  0.4218  0.5542  0.1928
35261SOL    HW1 8415   8.424   8.477   3.974  2.0738 -1.1537  1.0899
35261SOL    HW2 8416   8.550   8.507   4.052  2.3314  3.0106 -0.6608
35262SOL     OW 8417   3.248   7.907   1.445 -0.0844  0.1704  0.2553
35262SOL    HW1 8418   3.159   7.874   1.441  0.0329 -0.0517 -0.9011
35262SOL    HW2 8419   3.261   7.933   1.536 -1.0190 -0.6451  0.6245
35263SOL     OW 8420   4.282   3.772  10.031 -0.1076  0.3334 -0.3601
35263SOL    HW1 8421   4.353   3.835  10.036 -0.6134  0.9031 -0.3294
35263SOL    HW2 8422   4.267   3.746  10.122 -0.1418  0.4363 -0.3369
35264SOL     OW 8423   2.567   5.231   4.666  0.2193  0.2348 -0.1618
35264SOL    HW1 8424   2.475   5.255   4.681  0.5231  0.7828  0.9214
35264SOL    HW2 8425   2.617   5.301   4.707  1.1403 -1.6319  2.1159
35265SOL     OW 8426   9.875   3.827   0.352  0.2426  0.3417 -0.4841
35265SOL    HW1 8427   9.967   3.821   0.325  0.1808  1.5429 -1.0347
35265SOL    HW2 8428   9.829   3.768   0.292  0.8648 -1.8713  1.1011
35266SOL     OW 8429  10.354   6.191   7.791  0.8819 -0.2406 -0.2602
35266SOL    HW1 8430  10.278   6.193   7.733  0.4651 -1.3748  0.2152
35266SOL    HW2 8431  10.420   6.244   7.746  0.3530 -0.5534 -1.4507
35267SOL     OW 8432   2.910   8.126   7.630 -0.0132  0.0126 -0.0426
35267SOL    HW1 8433   2.990   8.154   7.675 -0.3745  1.7906 -0.4124
35267SOL    HW2 8434   2.845   8.121   7.700  0.2241 -0.6923  0.1400
35268SOL     OW 8435   4.726   6.833   2.311 -0.2026 -0.1036 -0.2701
35268SOL    HW1 8436   4.747   6.926   2.315  0.1634 -0.2410  1.6165
35268SOL    HW2 8437   4.631   6.830   2.303 -0.2109  0.4335 -0.3934
35269SOL     OW 8438   1.554  10.222   2.498 -0.4961 -0.4055 -0.2384
35269SOL    HW1 8439   1.602  10.291   2.543  0.0983 -0.3628 -0.9095
35269SOL    HW2 8440   1.545  10.152   2.563  1.4047 -0.8416 -0.3828
35270SOL     OW 8441   5.375   7.737   2.596 -0.1119  0.2420  0.2100
35270SOL    HW1 8442   5.284   7.718   2.575  0.0869 -0.8100  0.2314
35270SOL    HW2 8443   5.407   7.788   2.522 -0.4895 -0.1027 -0.1971
35271SOL     OW 8444   3.776  10.275   6.412  0.0827 -0.3161 -0.0244
35271SOL    HW1 8445   3.863  10.303   6.386 -0.6472  2.1394 -0.0064
35271SOL    HW2 8446   3.775  10.284   6.508 -0.4330  0.4559 -0.0963
35272SOL     OW 8447   6.433   6.123   8.870 -0.3453  0.3012  0.1690
35272SOL    HW1 8448   6.388   6.045   8.837 -0.9156 -0.0234  1.6272
35272SOL    HW2 8449   6.495   6.089   8.934 -0.2807  1.0046  0.4856
35273SOL     OW 8450   7.763   7.284   7.041 -0.1762 -0.3268  0.1548
35273SOL    HW1 8451   7.829   7.245   6.984 -1.4182 -0.1156 -1.4740
35273SOL    HW2 8452   7.682   7.283   6.990 -1.3565 -0.1367  1.9155
35274SOL     OW 8453   9.342   8.200   8.086  0.3134 -0.0830  0.0272
35274SOL    HW1 8454   9.307   8.212   8.175 -1.6024  0.8713 -0.7974
35274SOL    HW2 8455   9.305   8.116   8.057 -1.6704  1.0750 -0.9616
35275SOL     OW 8456   2.265   1.058  10.195  0.0522 -0.4356 -0.4528
35275SOL    HW1 8457   2.212   1.135  10.216  1.0281  0.0894  0.1595
35275SOL    HW2 8458   2.335   1.058  10.261  0.2571 -1.6714 -0.6352
35276SOL     OW 8459   2.511   6.096   9.552 -0.2079 -0.1571 -0.1017
35276SOL    HW1 8460   2.487   6.186   9.528  1.1954 -0.1472 -1.7011
35276SOL    HW2 8461   2.483   6.043   9.478  0.9899 -0.6898 -0.2014
35277SOL     OW 8462   2.611   1.026   0.067 -0.6534  0.1139  0.2641
35277SOL    HW1 8463   2.672   1.064   0.004 -0.8589 -0.1890 -0.1183
35277SOL    HW2 8464   2.536   1.086   0.068 -1.5908 -0.9456 -1.3524
35278SOL     OW 8465   5.185   6.188   1.933  0.1437  0.1544 -0.0310
35278SOL    HW1 8466   5.118   6.249   1.964 -0.0949  0.5766 -1.3106
35278SOL    HW2 8467   5.268   6.231   1.950  0.0254  0.2615  0.2657
35279SOL     OW 8468   6.320   8.030   7.663 -0.1599 -0.5041 -0.5446
35279SOL    HW1 8469   6.295   8.045   7.755  3.4255  0.2521  0.4626
35279SOL    HW2 8470   6.278   8.102   7.616 -0.9976 -0.1303  0.6932
35280SOL     OW 8471   8.841   5.775   2.864 -0.1143 -0.7508  1.0420
35280SOL    HW1 8472   8.924   5.766   2.911  0.0903  0.7330  1.0057
35280SOL    HW2 8473   8.797   5.849   2.905  0.3019  0.9578 -1.3938
35281SOL     OW 8474   8.288   1.402   2.555  0.1304  0.1601 -0.4499
35281SOL    HW1 8475   8.196   1.382   2.574 -0.1339  0.0573 -1.7618
35281SOL    HW2 8476   8.299   1.492   2.584 -0.9355  0.8363 -2.0111
35282SOL     OW 8477   8.414   6.878   3.625 -0.0534 -0.3430  0.1869
35282SOL    HW1 8478   8.496   6.915   3.594 -0.4120  0.2063 -0.1096
35282SOL    HW2 8479   8.441   6.813   3.690  0.5151  1.7797  2.1807
35283SOL     OW 8480   7.499   6.867   4.511 -0.6742 -0.2675  0.5609
35283SOL    HW1 8481   7.538   6.929   4.448 -1.6084 -0.8574 -0.6397
35283SOL    HW2 8482   7.437   6.816   4.459  0.3154 -2.4772  1.4226
35284SOL     OW 8483   6.335   0.648  10.211  0.7367 -0.0736 -0.0821
35284SOL    HW1 8484   6.408   0.689  10.256 -0.5153  1.3646  0.7272
35284SOL    HW2 8485   6.375   0.598  10.140  2.4570  1.0860  0.0247
35285SOL     OW 8486   6.573   4.404   0.480 -0.3970  0.0793  0.1347
35285SOL    HW1 8487   6.654   4.455   0.475  0.0059 -0.5574  0.1619
35285SOL    HW2 8488   6.587   4.342   0.551  0.7536 -2.8497 -2.3931
35286SOL     OW 8489   2.245   5.672   3.954  0.0644 -0.5241  0.8521
35286SOL    HW1 8490   2.155   5.684   3.983 -1.0109 -0.6044 -2.0718
35286SOL    HW2 8491   2.289   5.754   3.979 -0.7233 -0.5595  2.4796
35287SOL     OW 8492   5.793   4.442   0.743  0.1714 -0.0776 -0.2070
35287SOL    HW1 8493   5.708   4.415   0.777  0.7009 -1.7048 -0.1142
35287SOL    HW2 8494   5.778   4.462   0.651 -0.9957  3.0505  0.5327
35288SOL     OW 8495   1.871   7.130   5.438 -0.6880  0.2845  0.0229
35288SOL    HW1 8496   1.935   7.059   5.450 -0.1727  0.6584 -0.4709
35288SOL    HW2 8497   1.851   7.160   5.526  0.0927  0.4011  0.1688
35289SOL     OW 8498   3.361   9.705   2.372 -0.6559  0.3230 -0.1242
35289SOL    HW1 8499   3.412   9.775   2.412  0.0455  1.1115 -2.2470
35289SOL    HW2 8500   3.272   9.740   2.367 -0.5131  0.6739 -0.2514
35290SOL     OW 8501   9.353   7.084   4.404 -0.2163 -0.7602 -0.4037
35290SOL    HW1 8502   9.270   7.040   4.387  0.6661 -2.3267 -0.8781
35290SOL    HW2 8503   9.414   7.045   4.342  0.6979  0.9896 -0.6635
35291SOL     OW 8504   9.499   8.075   0.979 -0.2185 -0.3027 -0.4306
35291SOL    HW1 8505   9.584   8.030   0.976  0.1737  0.4473 -0.8268
35291SOL    HW2 8506   9.441   8.013   1.022  1.1097  0.0650  2.1590
35292SOL     OW 8507   7.183   6.377   3.393  0.3566 -0.3409 -0.1730
35292SOL    HW1 8508   7.156   6.469   3.388 -0.7395 -0.7137 -2.4861
35292SOL    HW2 8509   7.278   6.381   3.405  0.7348  1.1974 -2.8207
35293SOL     OW 8510   6.933   4.566   9.213  0.3840  0.2884 -0.1780
35293SOL    HW1 8511   6.971   4.537   9.296 -0.1130 -0.7829 -0.3086
35293SOL    HW2 8512   6.952   4.495   9.151 -0.7111  0.2987 -0.5543
35294SOL     OW 8513   6.212   4.710   9.661 -0.3155 -0.5311 -0.1086
35294SOL    HW1 8514   6.262   4.753   9.731 -0.2437 -0.1107 -0.4095
35294SOL    HW2 8515   6.132   4.680   9.703 -1.9716  2.8259 -0.4649
35295SOL     OW 8516   1.601   3.634   3.696  0.2960  0.9807  0.6161
35295SOL    HW1 8517   1.613   3.539   3.705  1.1821  1.0058 -0.1655
35295SOL    HW2 8518   1.509   3.644   3.672  0.3612  0.2568  0.0108
35296SOL     OW 8519   7.966  10.290   8.514 -0.5545 -0.2919  0.3990
35296SOL    HW1 8520   7.930  10.203   8.531 -0.9154 -0.0493  0.9164
35296SOL    HW2 8521   7.895  10.350   8.540 -1.1402  0.1165 -1.8964
35297SOL     OW 8522   1.715   0.450   4.435 -0.0744 -0.1527 -0.9702
35297SOL    HW1 8523   1.714   0.466   4.341 -0.5253  1.9469 -0.6548
35297SOL    HW2 8524   1.664   0.522   4.473 -0.9698 -1.6281  0.8035
35298SOL     OW 8525   7.334   5.013   7.028  0.1411  0.3631 -0.2851
35298SOL    HW1 8526   7.287   4.980   6.951 -1.2043 -0.9530  1.0280
35298SOL    HW2 8527   7.327   5.108   7.022  0.1815  0.2994 -1.8354
35299SOL     OW 8528   6.106   2.029   5.374  0.8159 -0.7214 -0.4579
35299SOL    HW1 8529   6.047   1.953   5.378  1.9889 -1.6256  1.3773
35299SOL    HW2 8530   6.098   2.061   5.285 -1.0093 -1.9615 -0.8066
35300SOL     OW 8531   9.803   0.306   1.964 -0.7382  0.1957 -0.6036
35300SOL    HW1 8532   9.746   0.349   1.900 -0.6769  1.3419  0.0919
35300SOL    HW2 8533   9.835   0.376   2.020 -1.2718 -0.8410  1.0880
35301SOL     OW 8534   0.653   4.208   7.827  0.1812  0.7914 -0.2111
35301SOL    HW1 8535   0.715   4.280   7.823 -0.5639  1.6308  1.8706
35301SOL    HW2 8536   0.567   4.251   7.829 -0.3307 -0.2052 -0.1310
35302SOL     OW 8537   6.484   9.888   8.456  0.8138 -0.1098  0.5749
35302SOL    HW1 8538   6.437   9.813   8.418 -2.3216  1.1755  1.5791
35302SOL    HW2 8539   6.507   9.859   8.544  3.3358 -1.2134 -0.3392
35303SOL     OW 8540   0.881   4.523   1.212  0.1495 -0.1916 -0.2786
35303SOL    HW1 8541   0.796   4.562   1.194  0.6335  0.7047 -0.6663
35303SOL    HW2 8542   0.942   4.569   1.154  1.0702 -0.1193  0.7108
35304SOL     OW 8543   1.934   6.469   3.692 -0.0827  0.6445  0.2965
35304SOL    HW1 8544   2.004   6.443   3.753 -0.6467  1.8009  1.4925
35304SOL    HW2 8545   1.975   6.536   3.637  0.2564  0.0397 -0.1897
35305SOL     OW 8546   3.054   4.203   7.495  0.6104 -0.2676 -0.1222
35305SOL    HW1 8547   3.149   4.191   7.502  0.5762 -0.2889  0.3839
35305SOL    HW2 8548   3.017   4.118   7.518  0.4801 -0.5066 -1.1590
35306SOL     OW 8549   4.538   2.566   8.189 -0.0590 -0.5813 -0.3569
35306SOL    HW1 8550   4.601   2.498   8.216 -0.0531 -0.9355 -1.2199
35306SOL    HW2 8551   4.463   2.553   8.247 -0.9055 -2.6842 -1.8090
35307SOL     OW 8552   8.247   6.172   5.953  0.4998  0.3218  0.0398
35307SOL    HW1 8553   8.237   6.199   5.862  0.6623 -3.1007 -1.1169
35307SOL    HW2 8554   8.159   6.149   5.981  0.8487 -1.8912 -0.4785
35308SOL     OW 8555   0.917   0.769   1.389 -0.3675  0.5566 -0.1738
35308SOL    HW1 8556   0.837   0.760   1.441 -0.4788 -0.4470 -0.4926
35308SOL    HW2 8557   0.908   0.703   1.321  0.2042  1.2285 -0.9202
35309SOL     OW 8558   4.155   2.052   6.802  0.4370  0.3403  0.1840
35309SOL    HW1 8559   4.184   2.103   6.726  1.4371  0.9710  0.9676
35309SOL    HW2 8560   4.226   1.990   6.818  0.9957  1.3212  1.6087
35310SOL     OW 8561   9.548   3.383   3.225  0.4412 -0.3195 -0.5448
35310SOL    HW1 8562   9.540   3.399   3.319  2.3272 -1.3962 -0.1565
35310SOL    HW2 8563   9.467   3.338   3.201  0.2976 -0.7983  0.7519
35311SOL     OW 8564   8.968   7.428   9.846 -0.2898 -0.1013 -0.1177
35311SOL    HW1 8565   9.007   7.391   9.925 -0.5936  0.3325  0.2421
35311SOL    HW2 8566   8.969   7.522   9.861 -1.4941 -0.0802 -0.0852
35312SOL     OW 8567   0.561   9.460   4.926 -0.1972 -0.5015 -0.1596
35312SOL    HW1 8568   0.597   9.513   4.997 -0.6996 -1.3452  0.7452
35312SOL    HW2 8569   0.605   9.493   4.847  0.2483  0.5648  0.5052
35313SOL     OW 8570   3.136   1.962   9.816 -0.7550 -0.1760  0.2966
35313SOL    HW1 8571   3.142   1.877   9.772  1.7380  0.3562 -0.5542
35313SOL    HW2 8572   3.211   1.963   9.877 -0.4018  1.5985 -0.1124
35314SOL     OW 8573   8.027   1.311   0.491 -0.1420  0.1221  0.3161
35314SOL    HW1 8574   8.024   1.380   0.557  0.1397  1.3281 -0.8918
35314SOL    HW2 8575   7.949   1.325   0.438  0.0020 -0.4055 -0.0423
35315SOL     OW 8576   2.376   7.283   0.747  0.6694  0.3250 -0.5807
35315SOL    HW1 8577   2.281   7.294   0.740 -0.0069 -3.6089  0.0629
35315SOL    HW2 8578   2.402   7.345   0.815 -1.4742  1.2661 -0.5354
35316SOL     OW 8579   2.670   0.906   3.672  0.4259  0.4056 -0.0988
35316SOL    HW1 8580   2.620   0.967   3.725  2.9740  2.1086  0.4915
35316SOL    HW2 8581   2.605   0.869   3.611 -2.1933 -0.0935  2.7227
35317SOL     OW 8582   4.080   9.619   3.269 -0.1728  1.1535  0.2027
35317SOL    HW1 8583   4.171   9.600   3.247 -0.1516  0.9586  0.4482
35317SOL    HW2 8584   4.063   9.705   3.231  0.2776  1.4347  0.6308
35318SOL     OW 8585   5.694   1.156   1.868 -0.1664  0.1012  0.4454
35318SOL    HW1 8586   5.736   1.130   1.950 -0.4565 -0.0601  0.5436
35318SOL    HW2 8587   5.647   1.078   1.839  0.4014 -0.0192 -0.1719
35319SOL     OW 8588   9.064   3.100  10.041 -0.2536 -0.1772 -0.0723
35319SOL    HW1 8589   8.997   3.032  10.041 -2.1491  1.6070 -0.8187
35319SOL    HW2 8590   9.057   3.140  10.128 -0.6355  0.4448 -0.3857
35320SOL     OW 8591   7.086   9.238   6.476 -0.6845 -0.2084  0.2156
35320SOL    HW1 8592   7.112   9.280   6.394 -1.2127 -0.1860  0.0573
35320SOL    HW2 8593   7.066   9.148   6.451 -0.9876 -0.1635  0.2988
35321SOL     OW 8594   1.637   4.991   2.805  0.0853 -0.0084  0.6087
35321SOL    HW1 8595   1.568   4.972   2.741  0.4067 -0.9637  0.5218
35321SOL    HW2 8596   1.658   4.905   2.842  0.9289  0.3373  0.9374
35322SOL     OW 8597   1.390   5.255   2.578  0.0686  0.3694  0.4698
35322SOL    HW1 8598   1.297   5.274   2.585  0.1320  0.7919  0.1955
35322SOL    HW2 8599   1.426   5.329   2.529  0.5454  0.2072  0.5700
35323SOL     OW 8600   6.804   2.143   2.571  0.2189  0.1036  0.1504
35323SOL    HW1 8601   6.762   2.145   2.658 -3.3588  1.0761 -1.4089
35323SOL    HW2 8602   6.770   2.221   2.527  0.9738 -0.9966 -2.5163
35324SOL     OW 8603   5.245   0.076   2.780  0.1626 -0.0789 -0.7395
35324SOL    HW1 8604   5.285  -0.010   2.794 -0.5561 -0.7839 -2.6972
35324SOL    HW2 8605   5.239   0.114   2.868  1.3859 -1.6043  0.0640
35325SOL     OW 8606   5.904   3.616   8.350  0.2762  0.1835  0.1920
35325SOL    HW1 8607   5.995   3.599   8.324  0.6103  1.2699  0.5722
35325SOL    HW2 8608   5.911   3.690   8.410 -0.7670 -0.3817  1.0285
35326SOL     OW 8609   3.247   4.239   5.260 -0.8964  0.2881 -0.4090
35326SOL    HW1 8610   3.190   4.190   5.202 -0.2818 -0.8956 -0.0502
35326SOL    HW2 8611   3.308   4.284   5.202 -2.8992  2.6133 -0.8802
35327SOL     OW 8612   0.658   6.463  10.357  0.7658  0.7822 -0.0547
35327SOL    HW1 8613   0.751   6.453  10.338  1.0174  2.3163  0.2276
35327SOL    HW2 8614   0.655   6.522  10.432 -0.4348  0.5615  0.0930
35328SOL     OW 8615   3.997   6.612   8.761  0.4268  0.4072 -0.3342
35328SOL    HW1 8616   3.935   6.684   8.770  0.1665  0.0276  1.1920
35328SOL    HW2 8617   3.952   6.536   8.798  1.8735  0.1790  1.1022
35329SOL     OW 8618   3.786   8.468   3.753  0.4356  0.3574 -0.2613
35329SOL    HW1 8619   3.838   8.457   3.833 -1.0548 -2.1468  0.4755
35329SOL    HW2 8620   3.837   8.425   3.685 -1.0832 -3.4966  0.7514
35330SOL     OW 8621   5.728   6.458   9.824 -0.1439 -0.2651 -0.0605
35330SOL    HW1 8622   5.653   6.415   9.782 -1.4560  0.2438  1.6604
35330SOL    HW2 8623   5.701   6.549   9.835  0.5900 -0.1441  0.8778
35331SOL     OW 8624   2.898   1.907   4.055  0.3346  0.2813  0.8502
35331SOL    HW1 8625   2.933   1.919   3.966  0.1947 -0.2809  0.7164
35331SOL    HW2 8626   2.857   1.991   4.076 -0.5568  0.0892 -0.0338
35332SOL     OW 8627   7.775  10.011   0.644  0.1174  0.4048 -0.4398
35332SOL    HW1 8628   7.766  10.015   0.549 -0.6349 -0.1115 -0.4020
35332SOL    HW2 8629   7.709   9.948   0.671  0.3620  0.5115  0.4242
35333SOL     OW 8630   8.650   4.071   2.857  0.2155  0.1236  0.2769
35333SOL    HW1 8631   8.591   4.131   2.901  0.7251  0.4119  0.5795
35333SOL    HW2 8632   8.730   4.122   2.843  0.6182 -0.4561  0.4484
35334SOL     OW 8633   2.602   2.283   8.475 -0.2367  0.5234  0.4002
35334SOL    HW1 8634   2.534   2.333   8.430  0.0174  1.5260  1.0782
35334SOL    HW2 8635   2.624   2.211   8.415 -1.2152  0.7411 -0.2288
35335SOL     OW 8636   4.786   1.886   7.470 -0.1012  0.3041 -0.1673
35335SOL    HW1 8637   4.744   1.958   7.516  1.0114  0.4865  0.6014
35335SOL    HW2 8638   4.839   1.929   7.403 -0.8232  0.0944 -0.8892
35336SOL     OW 8639   0.301   6.122   5.721 -0.7628 -0.2140 -0.2776
35336SOL    HW1 8640   0.300   6.056   5.652 -1.2177  0.2044 -0.6740
35336SOL    HW2 8641   0.344   6.078   5.795 -2.2627 -1.4171 -0.0784
35337SOL     OW 8642   3.855   1.982   3.799 -0.6221 -0.2665 -0.0302
35337SOL    HW1 8643   3.891   1.935   3.723  0.6125  0.0964  0.3041
35337SOL    HW2 8644   3.802   1.917   3.844 -0.3436 -0.8503 -0.5166
35338SOL     OW 8645   0.180   6.643   1.333  0.2196 -0.0882 -0.4372
35338SOL    HW1 8646   0.124   6.609   1.263 -1.8793  0.7700  0.7358
35338SOL    HW2 8647   0.212   6.565   1.379 -0.9443 -0.5788 -0.4370
35339SOL     OW 8648   0.368   6.264   4.105  0.0518  0.8771 -0.1364
35339SOL    HW1 8649   0.443   6.228   4.153 -0.6856 -0.1427  0.2819
35339SOL    HW2 8650   0.298   6.200   4.118  0.3370 -0.5301 -4.2039
35340SOL     OW 8651   3.842   0.870   3.965  0.0259  0.5108 -0.4129
35340SOL    HW1 8652   3.754   0.895   3.937  0.5161  1.3320 -1.2824
35340SOL    HW2 8653   3.897   0.944   3.940  0.9254  0.1218  0.3603
35341SOL     OW 8654   9.328   1.403   4.560 -0.0485 -0.2490  0.2199
35341SOL    HW1 8655   9.354   1.438   4.475  0.7946  2.1447  1.3748
35341SOL    HW2 8656   9.391   1.334   4.578  0.3446 -0.1348 -0.6591
35342SOL     OW 8657   3.818   7.312   2.511 -0.0647 -0.3301 -0.0124
35342SOL    HW1 8658   3.791   7.402   2.529  0.5470 -0.0271 -0.5858
35342SOL    HW2 8659   3.825   7.272   2.598  1.1577  0.6212  0.3681
35343SOL     OW 8660   2.895   4.660   0.165 -0.0077  0.8290  0.2224
35343SOL    HW1 8661   2.875   4.734   0.108 -0.2714  0.5910  0.0035
35343SOL    HW2 8662   2.990   4.655   0.167  0.0102  1.2028  0.2747
35344SOL     OW 8663   8.175   2.068   1.663  0.0225 -0.0972 -0.7311
35344SOL    HW1 8664   8.146   2.137   1.604  0.5364 -0.7018 -1.7191
35344SOL    HW2 8665   8.165   1.987   1.613 -0.3668 -0.7248  0.3277
35345SOL     OW 8666   3.487   7.635   8.017  0.6185 -0.2489  0.0011
35345SOL    HW1 8667   3.456   7.555   7.974  0.8343  0.4042 -1.4366
35345SOL    HW2 8668   3.572   7.652   7.976  0.3865  0.9421 -0.0129
35346SOL     OW 8669  10.086   5.956   4.274 -0.1236 -0.2926  0.6419
35346SOL    HW1 8670  10.044   6.041   4.256  0.0768 -0.5829 -1.4575
35346SOL    HW2 8671  10.143   5.973   4.349 -0.3728  1.3329  0.5080
35347SOL     OW 8672   3.085   3.895   7.782  0.4779 -0.3655  0.2857
35347SOL    HW1 8673   3.031   3.949   7.840 -0.1266 -0.0758 -0.5326
35347SOL    HW2 8674   3.089   3.944   7.700  1.0817 -0.9103 -0.0245
35348SOL     OW 8675   2.805   8.319   6.559  0.3501  0.3100 -0.1940
35348SOL    HW1 8676   2.745   8.287   6.626  1.3727 -0.2906  0.4600
35348SOL    HW2 8677   2.846   8.240   6.524  0.1410  0.6493 -1.2527
35349SOL     OW 8678   8.589   1.694   9.746 -0.1582  0.5815 -0.4749
35349SOL    HW1 8679   8.534   1.629   9.792 -0.0644  1.1086  0.4083
35349SOL    HW2 8680   8.557   1.779   9.777  2.4940  0.9152  1.7737
35350SOL     OW 8681   4.771   4.699   8.406 -0.3931  0.2340  0.1382
35350SOL    HW1 8682   4.743   4.750   8.331  0.7650  0.6487 -0.0337
35350SOL    HW2 8683   4.795   4.763   8.472 -1.4641 -0.1284  0.8960
35351SOL     OW 8684   6.272   6.902   8.939 -0.4114  0.6596 -0.7458
35351SOL    HW1 8685   6.309   6.819   8.907  1.7365  1.3230 -0.1146
35351SOL    HW2 8686   6.342   6.966   8.928 -0.9570  1.7643  1.5593
35352SOL     OW 8687   0.164   8.428   2.100  0.5142  0.3259 -0.3742
35352SOL    HW1 8688   0.144   8.334   2.108  0.8162  0.2037 -0.9819
35352SOL    HW2 8689   0.194   8.453   2.188 -2.4451  0.5944  0.6758
35353SOL     OW 8690   2.985   6.106   2.548 -0.4538 -0.6457  0.4557
35353SOL    HW1 8691   3.041   6.158   2.605 -0.4982 -1.2048  1.0162
35353SOL    HW2 8692   3.004   6.138   2.460 -1.1077  0.9149  0.8456
35354SOL     OW 8693   5.449   5.383   5.757 -1.0323 -0.4403 -0.2231
35354SOL    HW1 8694   5.355   5.369   5.763 -1.3619  1.4843 -0.5192
35354SOL    HW2 8695   5.463   5.472   5.788  1.0444 -1.5259  2.3136
35355SOL     OW 8696   8.511   4.065   8.233  0.5254  0.1193  0.5517
35355SOL    HW1 8697   8.565   4.142   8.213 -0.1029  0.5026  0.3194
35355SOL    HW2 8698   8.553   3.994   8.184  2.4966 -0.2251  2.5774
35356SOL     OW 8699   0.549   3.529   4.597  0.7486  0.1648  0.1250
35356SOL    HW1 8700   0.542   3.461   4.529 -0.7738  0.2913  0.1166
35356SOL    HW2 8701   0.507   3.606   4.557  0.7109  0.5244  0.8531
35357SOL     OW 8702   1.216   8.409   2.400 -0.3346 -0.5048 -0.4890
35357SOL    HW1 8703   1.297   8.459   2.394 -0.2787 -0.6007 -0.5517
35357SOL    HW2 8704   1.164   8.438   2.325  0.3464 -1.6753 -1.4586
35358SOL     OW 8705   0.343   5.740   3.246  0.5282  0.3003 -0.4131
35358SOL    HW1 8706   0.355   5.834   3.241 -0.1345  0.4238  0.2208
35358SOL    HW2 8707   0.249   5.727   3.251  0.6446 -0.2689  1.3721
35359SOL     OW 8708   0.148   2.110   2.211 -0.5407  0.3832 -0.1973
35359SOL    HW1 8709   0.209   2.037   2.198  0.7803  1.5449 -0.7072
35359SOL    HW2 8710   0.072   2.086   2.158 -0.7745 -1.3307  0.8479
35360SOL     OW 8711   7.036   9.985   8.306  0.0154 -0.0956  0.1211
35360SOL    HW1 8712   7.114   9.940   8.273 -0.8658 -1.3616 -0.3244
35360SOL    HW2 8713   7.026   9.953   8.396 -0.2484 -0.2921  0.0228
35361SOL     OW 8714   5.029  10.357   0.655  0.5067 -0.0054  0.6805
35361SOL    HW1 8715   5.080  10.297   0.601  2.7185  1.8480  0.5571
35361SOL    HW2 8716   5.018  10.310   0.738 -2.1015 -2.4874 -0.8918
35362SOL     OW 8717  10.019   6.127   3.855 -0.2717 -0.5452  0.5396
35362SOL    HW1 8718  10.048   6.043   3.889  2.1254  0.0211  0.0695
35362SOL    HW2 8719  10.089   6.155   3.797 -1.2122  1.5712  0.3286
35363SOL     OW 8720   8.404   6.199   6.551 -0.1723 -0.3358 -0.0881
35363SOL    HW1 8721   8.472   6.196   6.619 -0.5472  1.0970  0.3875
35363SOL    HW2 8722   8.445   6.158   6.475  1.5343  1.1674 -0.0633
35364SOL     OW 8723   4.539   5.461   7.780 -0.3094  0.1348 -0.4399
35364SOL    HW1 8724   4.625   5.468   7.740  0.1456 -1.1717  0.2714
35364SOL    HW2 8725   4.555   5.426   7.867 -1.5830 -0.3781 -0.3849
35365SOL     OW 8726   3.194   5.315   5.143  0.8105 -0.2534  0.3646
35365SOL    HW1 8727   3.184   5.225   5.176  1.0417 -0.2477  0.4557
35365SOL    HW2 8728   3.233   5.363   5.216 -2.3794  0.7479  1.5520
35366SOL     OW 8729   3.091   8.305   5.025  0.0737  0.0271 -0.1932
35366SOL    HW1 8730   2.997   8.299   5.014 -0.2332  3.0138  0.0052
35366SOL    HW2 8731   3.128   8.278   4.941 -1.1437  1.7664 -1.3394
35367SOL     OW 8732   9.384   4.776   7.611  0.3557  0.0297  0.6195
35367SOL    HW1 8733   9.461   4.833   7.615  0.0894  0.3955  0.6508
35367SOL    HW2 8734   9.324   4.813   7.677 -0.7657  1.1336 -0.9320
35368SOL     OW 8735   8.105   6.324   5.242 -0.2182  0.1867 -0.3294
35368SOL    HW1 8736   8.161   6.253   5.210 -0.2352 -0.2068  0.4888
35368SOL    HW2 8737   8.154   6.404   5.223  0.7556 -0.1656  0.6031
35369SOL     OW 8738   4.403   0.867   0.510  0.0188 -0.2808 -0.4076
35369SOL    HW1 8739   4.376   0.949   0.551  1.3492 -0.5723  1.1804
35369SOL    HW2 8740   4.399   0.885   0.416  0.1493  1.5661 -0.1029
35370SOL     OW 8741   5.261   2.600   8.060  0.1253  0.3193  0.7727
35370SOL    HW1 8742   5.286   2.687   8.029  1.7892 -0.6931 -0.9022
35370SOL    HW2 8743   5.170   2.590   8.031  1.3198 -0.2263 -3.3105
35371SOL     OW 8744   0.240   9.114   8.355 -0.2165 -0.3003  0.1800
35371SOL    HW1 8745   0.330   9.143   8.369 -0.5370  1.2987 -0.7580
35371SOL    HW2 8746   0.242   9.020   8.372  1.6646 -0.3346  0.0084
35372SOL     OW 8747   8.555   7.140   7.147  1.1806  0.0572  0.4087
35372SOL    HW1 8748   8.547   7.123   7.053  1.5354  1.0232  0.1946
35372SOL    HW2 8749   8.480   7.096   7.186 -0.2328  1.4806 -0.5773
35373SOL     OW 8750   8.439   1.179   9.936 -0.1534  0.2654 -0.1195
35373SOL    HW1 8751   8.497   1.203  10.008  0.9253 -0.1060 -0.8359
35373SOL    HW2 8752   8.436   1.083   9.937  0.0654  0.2450 -0.7005
35374SOL     OW 8753   2.443   5.397   7.087 -0.0227  0.2310 -0.2066
35374SOL    HW1 8754   2.441   5.302   7.070  0.4330 -0.2857  2.2840
35374SOL    HW2 8755   2.510   5.430   7.027  1.0802 -1.3356  0.0927
35375SOL     OW 8756   2.755   5.514   9.366 -0.1354 -0.4303 -0.8443
35375SOL    HW1 8757   2.832   5.535   9.313  0.9748  1.4198  1.3232
35375SOL    HW2 8758   2.780   5.435   9.414  1.0092  0.8727  0.8055
35376SOL     OW 8759   3.469   3.064   5.236 -0.0559  0.3592  0.0384
35376SOL    HW1 8760   3.491   3.146   5.281  0.4933  0.0160  0.3960
35376SOL    HW2 8761   3.470   2.998   5.304  0.1835 -0.0647 -0.3696
35377SOL     OW 8762   4.566   9.274   7.272 -0.0141 -0.5191 -0.0989
35377SOL    HW1 8763   4.510   9.206   7.310 -0.1288 -2.0708 -2.8099
35377SOL    HW2 8764   4.520   9.302   7.193  1.5740  0.3948 -0.7486
35378SOL     OW 8765   4.297   8.393   8.555  0.5625 -0.9202  0.3171
35378SOL    HW1 8766   4.213   8.348   8.551  0.6520 -1.3219  2.0318
35378SOL    HW2 8767   4.278   8.481   8.523 -0.4074 -1.1578  0.2015
35379SOL     OW 8768  10.023   8.663   9.297 -0.1345 -0.1092  0.6896
35379SOL    HW1 8769  10.003   8.580   9.253 -2.6224  1.0995 -0.6549
35379SOL    HW2 8770   9.982   8.730   9.243  3.7447  2.3510  0.4122
35380SOL     OW 8771   1.528   5.073   7.942 -0.3241  0.2701  0.2711
35380SOL    HW1 8772   1.617   5.109   7.937 -0.4633  0.5097 -0.6671
35380SOL    HW2 8773   1.522   5.014   7.867 -1.3915  1.3096 -0.5064
35381SOL     OW 8774   0.933   4.115   7.360  0.2923 -0.0578  0.5860
35381SOL    HW1 8775   0.915   4.195   7.410 -3.4341 -0.3725 -0.0121
35381SOL    HW2 8776   0.932   4.045   7.425 -0.8747 -0.0603  0.5840
35382SOL     OW 8777   8.127   1.739   0.786  0.0784 -0.0061 -0.0390
35382SOL    HW1 8778   8.084   1.720   0.869  1.0824  0.2670  0.5669
35382SOL    HW2 8779   8.067   1.799   0.741 -1.4800 -1.8228 -0.4726
35383SOL     OW 8780   0.750   4.256   5.027 -0.4158 -0.1842  0.0939
35383SOL    HW1 8781   0.823   4.296   4.979 -0.3687 -0.0513  0.2754
35383SOL    HW2 8782   0.769   4.163   5.026  0.6007 -0.0377  1.5029
35384SOL     OW 8783   9.508   0.772   7.235 -0.7673  0.1120 -0.0847
35384SOL    HW1 8784   9.562   0.840   7.275 -0.4090 -0.4920  0.4829
35384SOL    HW2 8785   9.482   0.715   7.308  1.9066 -2.4370 -0.9274
35385SOL     OW 8786   7.379   8.670   1.337  0.0004 -0.1450 -0.1504
35385SOL    HW1 8787   7.469   8.684   1.367  0.0129  2.1333 -0.9702
35385SOL    HW2 8788   7.388   8.654   1.243 -0.3450 -2.0611  0.1195
35386SOL     OW 8789   1.863   9.665   8.381  0.0375 -0.1678  0.5564
35386SOL    HW1 8790   1.834   9.705   8.299  1.0841 -0.7091 -0.1063
35386SOL    HW2 8791   1.832   9.724   8.449 -0.2755  0.6431 -0.2691
35387SOL     OW 8792   8.691   8.800   7.323 -0.2545  0.1703 -0.3896
35387SOL    HW1 8793   8.607   8.796   7.279 -1.2968  0.2644  1.4906
35387SOL    HW2 8794   8.736   8.720   7.297 -1.9615 -1.1477  0.5082
35388SOL     OW 8795   5.989   5.937   6.782 -0.3342 -0.3085 -0.4148
35388SOL    HW1 8796   6.038   5.889   6.848  0.2934  0.2339 -0.4734
35388SOL    HW2 8797   6.038   5.923   6.701 -0.1661  0.3842 -0.4406
35389SOL     OW 8798  10.354   8.840  10.290  0.2630 -0.6436 -0.6548
35389SOL    HW1 8799  10.297   8.887  10.352  0.8296 -2.4534  1.3419
35389SOL    HW2 8800  10.332   8.748  10.303  0.4352 -1.0973 -3.1900
35390SOL     OW 8801   4.979   1.487   4.106 -0.1200  0.0959 -0.4495
35390SOL    HW1 8802   5.068   1.521   4.100  0.3019 -1.0254 -0.6492
35390SOL    HW2 8803   4.923   1.565   4.097  0.8324  0.9459  0.7375
35391SOL     OW 8804   7.699   0.567   7.912 -0.4548  0.1205  0.2609
35391SOL    HW1 8805   7.703   0.558   8.007  0.3491  0.4051  0.2635
35391SOL    HW2 8806   7.768   0.630   7.891 -1.7852  1.4332 -0.3424
35392SOL     OW 8807   0.687   1.572   2.712 -0.1751 -0.3681 -0.0071
35392SOL    HW1 8808   0.709   1.560   2.804 -0.9716  0.6127  0.3435
35392SOL    HW2 8809   0.716   1.661   2.692 -1.7517  0.1552 -0.1238
35393SOL     OW 8810   0.213   3.720   3.715  0.2319  0.3255 -0.0482
35393SOL    HW1 8811   0.228   3.751   3.804 -2.1865  0.9581  0.2116
35393SOL    HW2 8812   0.148   3.651   3.724 -2.1301  2.2119 -1.4619
35394SOL     OW 8813   3.511   4.459   0.791  0.0858  0.6989  0.0574
35394SOL    HW1 8814   3.482   4.546   0.763 -1.0018  0.7567  1.2499
35394SOL    HW2 8815   3.436   4.423   0.839  0.2715 -1.1805 -0.9576
35395SOL     OW 8816   4.047   8.509   9.392  0.4671 -0.3453 -0.1030
35395SOL    HW1 8817   3.996   8.565   9.451 -1.6670 -1.7730 -0.4907
35395SOL    HW2 8818   4.126   8.560   9.373 -0.6325  1.8287  0.8054
35396SOL     OW 8819   3.543   9.929   2.454  0.0325  0.1830  0.4465
35396SOL    HW1 8820   3.561   9.978   2.373  1.2937  0.8909  1.1163
35396SOL    HW2 8821   3.530   9.996   2.521 -0.3747 -0.3975  0.9622
35397SOL     OW 8822   6.067   3.808   5.449 -0.7346  0.3570 -0.3904
35397SOL    HW1 8823   6.004   3.819   5.520 -0.1368  0.9028  0.0657
35397SOL    HW2 8824   6.145   3.770   5.490 -0.9020 -0.7165 -1.0269
35398SOL     OW 8825   1.514   5.873   4.567  0.3696 -0.4415  0.0995
35398SOL    HW1 8826   1.444   5.915   4.517  0.0588  0.2887  1.1269
35398SOL    HW2 8827   1.590   5.930   4.555  0.6210 -0.8844 -0.4741
35399SOL     OW 8828   0.077   2.638   0.974 -0.6722  0.1229 -0.2926
35399SOL    HW1 8829  -0.013   2.668   0.987 -1.7246 -1.9970 -2.0193
35399SOL    HW2 8830   0.116   2.705   0.918 -1.6336  0.3918 -0.6711
35400SOL     OW 8831   4.904   2.050   0.896  0.2158 -0.6938  0.1764
35400SOL    HW1 8832   4.989   2.043   0.940 -0.7427 -0.6232  2.1596
35400SOL    HW2 8833   4.911   1.990   0.821  2.4689  0.3815 -0.5552
35401SOL     OW 8834   4.030   4.968   5.079  0.5384  0.3427  0.5796
35401SOL    HW1 8835   4.109   4.941   5.032  0.3196 -1.8178  1.3414
35401SOL    HW2 8836   4.047   4.943   5.170 -0.4827  1.1396  1.0093
35402SOL     OW 8837   9.063   5.013   6.563 -0.2147  0.3863 -0.3219
35402SOL    HW1 8838   9.109   4.995   6.481  0.1001  0.5302 -0.1769
35402SOL    HW2 8839   9.124   4.986   6.631 -0.3302  0.6123 -0.1291
35403SOL     OW 8840   1.957   1.987   9.527 -0.0997 -0.3729 -0.1478
35403SOL    HW1 8841   1.941   2.078   9.505  1.6468  0.1701  0.6423
35403SOL    HW2 8842   1.878   1.959   9.574 -0.2971  0.9881  0.3703
35404SOL     OW 8843   5.399   8.655   8.127 -0.2161  0.1365 -0.3683
35404SOL    HW1 8844   5.440   8.741   8.137 -1.8963  0.8100  1.3641
35404SOL    HW2 8845   5.387   8.624   8.217 -0.0247 -1.7401 -0.9571
35405SOL     OW 8846   4.026   7.274   6.351 -0.5967  0.3201 -0.4879
35405SOL    HW1 8847   3.977   7.357   6.345  0.8195  1.1690 -0.8101
35405SOL    HW2 8848   4.003   7.238   6.436 -0.8263  1.3178 -0.1166
35406SOL     OW 8849   5.170   6.075   3.780  0.1318 -0.5735  0.4003
35406SOL    HW1 8850   5.136   6.155   3.819 -0.4627 -1.7471  2.4173
35406SOL    HW2 8851   5.162   6.009   3.849  1.4521 -2.1742 -0.8859
35407SOL     OW 8852   2.689   5.344   2.243 -0.0814  0.4569 -0.7006
35407SOL    HW1 8853   2.597   5.372   2.245 -0.5322 -1.0131 -0.0464
35407SOL    HW2 8854   2.726   5.377   2.325  0.0071  1.0703 -0.9744
35408SOL     OW 8855   8.103   2.170   9.181  0.0809  0.1535  0.2881
35408SOL    HW1 8856   8.187   2.191   9.222  0.1774 -0.1490  0.2440
35408SOL    HW2 8857   8.067   2.099   9.233  1.6239 -2.4337 -1.8824
35409SOL     OW 8858   3.108   0.658   6.468  0.1640  0.4724 -0.4406
35409SOL    HW1 8859   3.117   0.726   6.402 -0.2027 -0.6299 -1.6806
35409SOL    HW2 8860   3.026   0.677   6.513  0.6761  1.5289  0.0718
35410SOL     OW 8861   0.254   1.248   9.833 -0.1747 -0.0865  0.5154
35410SOL    HW1 8862   0.203   1.204   9.901  0.2718  0.2806  1.1011
35410SOL    HW2 8863   0.283   1.178   9.775  1.1083 -0.6909  1.8123
35411SOL     OW 8864   7.926   6.905   7.886  0.1723 -0.2501 -0.0195
35411SOL    HW1 8865   7.986   6.967   7.843  1.6141 -1.1619  0.5884
35411SOL    HW2 8866   7.926   6.933   7.978 -0.4646 -0.1703 -0.0431
35412SOL     OW 8867   2.954   7.383   5.192 -0.0589  0.1044  0.2889
35412SOL    HW1 8868   3.031   7.356   5.142 -0.9168 -0.9044 -0.5251
35412SOL    HW2 8869   2.895   7.420   5.128 -1.0968 -1.0391  0.5429
35413SOL     OW 8870   2.332   5.943   9.735 -0.2818 -0.1497  0.4618
35413SOL    HW1 8871   2.304   6.012   9.795  0.1336  0.2239  0.2314
35413SOL    HW2 8872   2.406   5.981   9.687 -0.2388 -0.6479  0.1223
35414SOL     OW 8873   4.116   4.407   3.964 -0.0414 -0.2711  0.2613
35414SOL    HW1 8874   4.106   4.460   3.886  0.3030  1.9185  1.6335
35414SOL    HW2 8875   4.199   4.361   3.953 -0.4633 -0.7594 -1.0450
35415SOL     OW 8876   7.989   4.531   3.745 -0.3051 -0.0411  0.5420
35415SOL    HW1 8877   8.007   4.477   3.822 -2.8709 -1.2358  0.4098
35415SOL    HW2 8878   7.967   4.617   3.780  2.4754  0.6615  0.8268
35416SOL     OW 8879   0.155   3.716   1.830  0.0592  0.0383 -0.1901
35416SOL    HW1 8880   0.246   3.711   1.857 -0.1443 -0.2306  0.4772
35416SOL    HW2 8881   0.106   3.677   1.903 -0.7877  2.3339  0.5666
35417SOL     OW 8882   9.626   9.068   0.338 -0.1978 -0.3404  0.0885
35417SOL    HW1 8883   9.694   9.076   0.405 -0.0140  1.0619 -0.2363
35417SOL    HW2 8884   9.612   8.973   0.330  0.8917 -0.6062  0.9773
35418SOL     OW 8885   1.236   7.825   5.579  0.3866  0.1061 -0.4088
35418SOL    HW1 8886   1.317   7.839   5.529  1.0758 -0.0072  0.6219
35418SOL    HW2 8887   1.178   7.895   5.551  0.2836 -0.6486 -2.2386
35419SOL     OW 8888   6.076   9.260   9.611 -0.0975 -0.1481 -0.2526
35419SOL    HW1 8889   6.086   9.222   9.698 -1.8618  0.2675  0.1744
35419SOL    HW2 8890   6.159   9.243   9.567  0.2423 -1.8032  0.9539
35420SOL     OW 8891   6.278   7.204   9.051  0.3739  0.1966  0.4781
35420SOL    HW1 8892   6.370   7.210   9.076  0.1529 -0.2449  1.4576
35420SOL    HW2 8893   6.255   7.112   9.063 -0.0615  0.2012 -0.2719
35421SOL     OW 8894   9.038   2.220   1.069 -0.3458 -0.4391 -0.3544
35421SOL    HW1 8895   8.993   2.218   1.153  1.8757 -0.5494  0.9038
35421SOL    HW2 8896   8.996   2.291   1.021 -1.1886  0.0996  1.1037
35422SOL     OW 8897   5.740   4.306   0.232  0.1188 -0.8196  0.3116
35422SOL    HW1 8898   5.787   4.356   0.165 -0.1617 -0.5611  0.3063
35422SOL    HW2 8899   5.717   4.371   0.299  1.7738 -1.3390  1.4463
35423SOL     OW 8900   4.330   2.457   6.954  0.1013  0.3182 -0.0047
35423SOL    HW1 8901   4.255   2.444   6.896 -0.5569  0.8327  0.7078
35423SOL    HW2 8902   4.358   2.548   6.937  0.9926 -0.0704 -0.7368
35424SOL     OW 8903   2.025   4.545   4.043 -0.1821  0.2392 -0.3191
35424SOL    HW1 8904   2.040   4.633   4.077 -0.8250  1.2257 -2.3800
35424SOL    HW2 8905   2.067   4.546   3.957  1.5679 -2.1628  0.4000
35425SOL     OW 8906   5.886   6.366   7.101 -0.7202  0.6016 -0.1054
35425SOL    HW1 8907   5.858   6.401   7.017  0.7375  1.2616 -0.3501
35425SOL    HW2 8908   5.871   6.437   7.163 -0.0620  0.8011 -0.1618
35426SOL     OW 8909   0.299   7.749   1.616  0.4777 -0.5160 -0.2723
35426SOL    HW1 8910   0.223   7.699   1.587  0.5540  0.0128 -1.4838
35426SOL    HW2 8911   0.335   7.786   1.535  1.5673 -0.1238  0.3695
35427SOL     OW 8912   0.548   8.929   1.583  0.2084 -0.2313 -0.6985
35427SOL    HW1 8913   0.593   8.845   1.586 -0.4823 -0.6567 -1.4977
35427SOL    HW2 8914   0.615   8.992   1.559  0.8453 -0.4515  0.4287
35428SOL     OW 8915   5.607   5.170   3.130  0.5357 -0.2321 -0.0910
35428SOL    HW1 8916   5.553   5.149   3.054  2.0839 -0.1538 -1.2366
35428SOL    HW2 8917   5.653   5.089   3.150  1.0241  0.0734  0.0286
35429SOL     OW 8918   5.495   2.983   1.999 -0.0743 -0.4315  0.1997
35429SOL    HW1 8919   5.474   2.890   1.995 -0.4654 -0.3708  0.6753
35429SOL    HW2 8920   5.412   3.025   2.022  0.0925  0.0354 -0.0460
35430SOL     OW 8921   2.877   6.437   3.860 -0.1221  0.3959  0.2582
35430SOL    HW1 8922   2.854   6.498   3.789  0.3423 -2.0029 -2.1089
35430SOL    HW2 8923   2.972   6.440   3.864 -0.0509 -0.6495 -0.3670
35431SOL     OW 8924   1.248   7.366   2.260  0.1725  0.0200 -0.4653
35431SOL    HW1 8925   1.242   7.456   2.291  0.3094 -0.2297  0.2998
35431SOL    HW2 8926   1.177   7.357   2.196  0.6704  0.9104 -1.1697
35432SOL     OW 8927   4.523   6.054   9.614 -0.3418 -0.5380  0.1311
35432SOL    HW1 8928   4.439   6.068   9.659 -0.5655 -0.4003 -0.3268
35432SOL    HW2 8929   4.519   6.111   9.538 -0.7534 -2.1342 -1.0895
35433SOL     OW 8930   4.589   1.328   7.926 -0.1104  0.4055 -0.2716
35433SOL    HW1 8931   4.525   1.288   7.868  1.9294 -1.3457 -1.4462
35433SOL    HW2 8932   4.606   1.262   7.993 -0.2350  1.2496  0.6187
35434SOL     OW 8933   3.986   7.677   3.513 -0.2122 -0.0211 -0.7695
35434SOL    HW1 8934   4.052   7.619   3.548 -1.0411  1.4471  3.9161
35434SOL    HW2 8935   4.028   7.764   3.512 -1.2457  0.4997 -0.2885
35435SOL     OW 8936   6.970   7.524   3.568 -0.5383  0.1139 -0.4413
35435SOL    HW1 8937   6.924   7.470   3.504 -1.7905 -0.1041  0.6169
35435SOL    HW2 8938   7.039   7.567   3.517 -0.3827 -1.3880 -1.5843
35436SOL     OW 8939   7.760   0.269   4.569 -0.5072  0.1826 -0.6569
35436SOL    HW1 8940   7.793   0.357   4.549 -2.0471  0.3453 -2.7749
35436SOL    HW2 8941   7.716   0.240   4.489 -2.8206 -1.2183  0.9704
35437SOL     OW 8942   1.142   0.007   7.980 -0.3323  0.4038 -0.2777
35437SOL    HW1 8943   1.074   0.071   8.002 -0.1508  0.8648 -0.9892
35437SOL    HW2 8944   1.214   0.028   8.040 -0.8009 -0.0709  0.4617
35438SOL     OW 8945   7.879   3.049   3.572 -1.0648  0.3427 -0.1455
35438SOL    HW1 8946   7.838   3.062   3.657  0.0001 -2.5249  0.9285
35438SOL    HW2 8947   7.952   3.111   3.570 -1.5816  0.9952  0.6427
35439SOL     OW 8948   4.246   3.033   6.511  0.7809 -0.1393 -0.0280
35439SOL    HW1 8949   4.257   3.122   6.544  1.3845  0.0519 -0.7033
35439SOL    HW2 8950   4.335   3.000   6.503  0.7051  0.0104 -1.9057
35440SOL     OW 8951   8.945   4.852   2.650 -0.0660 -0.1106 -0.1006
35440SOL    HW1 8952   8.963   4.945   2.667  0.0906 -0.4798  1.9792
35440SOL    HW2 8953   8.996   4.805   2.715 -1.4885 -1.6004  0.0045
35441SOL     OW 8954   4.795   6.862   6.970  0.1584  0.0499 -0.2561
35441SOL    HW1 8955   4.701   6.851   6.957  0.1098 -0.1404  0.2591
35441SOL    HW2 8956   4.824   6.910   6.892  0.0769 -2.1161 -1.7394
35442SOL     OW 8957   8.372   6.932   2.202 -0.1371 -0.2326  0.5538
35442SOL    HW1 8958   8.413   7.012   2.236  0.1998  0.5168 -1.5094
35442SOL    HW2 8959   8.441   6.889   2.151 -1.5249  0.4949 -2.0788
35443SOL     OW 8960   9.677   1.422   5.927 -0.1266 -0.4461 -0.3088
35443SOL    HW1 8961   9.760   1.377   5.943  1.9750  2.6228 -1.3726
35443SOL    HW2 8962   9.676   1.434   5.832 -1.1445  0.6588 -0.1734
35444SOL     OW 8963   2.216   6.394   1.709 -0.2781  0.4292  0.5111
35444SOL    HW1 8964   2.152   6.383   1.639 -0.6990  0.4414  0.8911
35444SOL    HW2 8965   2.180   6.344   1.783  0.9154 -0.9156  0.2351
35445SOL     OW 8966   7.058   8.188   8.018  0.0659  0.0359  0.0742
35445SOL    HW1 8967   6.976   8.170   8.064 -0.5263 -1.4487 -1.4569
35445SOL    HW2 8968   7.063   8.284   8.014 -1.5884  0.1526  0.1804
35446SOL     OW 8969   3.195   8.908   7.562 -0.1346  0.5438  0.5437
35446SOL    HW1 8970   3.236   8.896   7.648  0.1469 -0.1408  0.3145
35446SOL    HW2 8971   3.148   8.826   7.546  0.5489  0.3200 -0.3532
35447SOL     OW 8972   6.621   6.608   5.649 -0.1013  0.0670  0.3795
35447SOL    HW1 8973   6.716   6.600   5.661  0.1268  2.1538  0.3483
35447SOL    HW2 8974   6.603   6.565   5.566  1.1664  1.4345 -0.6505
35448SOL     OW 8975   3.250   1.918   2.636  0.2586  0.0752  0.6789
35448SOL    HW1 8976   3.254   2.014   2.631  1.9645  0.1097  1.6213
35448SOL    HW2 8977   3.277   1.888   2.550 -0.8378  0.4221  0.1989
35449SOL     OW 8978   5.138   2.614   7.279  0.3471  0.1214  0.2947
35449SOL    HW1 8979   5.195   2.577   7.346 -0.1642 -1.0410  0.1199
35449SOL    HW2 8980   5.172   2.580   7.197 -0.9256 -1.1139  0.2340
35450SOL     OW 8981   3.884   3.056   5.476 -0.1791 -0.1389 -0.9507
35450SOL    HW1 8982   3.885   3.016   5.389  2.5691 -1.2657 -0.4896
35450SOL    HW2 8983   3.942   3.132   5.468 -1.0623  0.6058 -0.4428
35451SOL     OW 8984   3.284   6.750   5.544 -0.4461 -0.2666  0.2100
35451SOL    HW1 8985   3.211   6.809   5.528 -0.1441 -0.1507 -0.8465
35451SOL    HW2 8986   3.361   6.807   5.546 -0.1258 -0.6245 -1.0570
35452SOL     OW 8987   5.646   0.300   8.827  0.4218  0.4997  0.3288
35452SOL    HW1 8988   5.614   0.219   8.787  1.0725  0.2417  0.3324
35452SOL    HW2 8989   5.739   0.286   8.841  0.8076  1.6975 -0.8089
35453SOL     OW 8990   1.402   3.178   3.535  0.1541 -0.2360 -0.2154
35453SOL    HW1 8991   1.445   3.120   3.597 -1.8786  0.7759  2.2985
35453SOL    HW2 8992   1.440   3.264   3.552 -0.8614  0.1626  0.1037
35454SOL     OW 8993   0.038   9.363   7.339 -0.2608  0.4738  0.9798
35454SOL    HW1 8994   0.049   9.452   7.371  1.2553  0.3488  0.8742
35454SOL    HW2 8995   0.124   9.338   7.306 -0.6307 -1.0746  1.1015
35455SOL     OW 8996   0.334   1.742   7.570 -0.1215 -0.3383 -0.0362
35455SOL    HW1 8997   0.421   1.733   7.530 -0.3311 -0.7201 -0.4103
35455SOL    HW2 8998   0.352   1.768   7.661  0.4422 -1.9901  0.3490
35456SOL     OW 8999   2.918   5.809   4.836  0.3946  0.3740  0.1801
35456SOL    HW1 9000   2.861   5.744   4.795 -0.0536  0.9529 -0.1161
35456SOL    HW2 9001   2.997   5.808   4.782  0.3945  0.0708  0.1812
35457SOL     OW 9002   6.362   0.314   2.363  0.1257 -0.2211  0.1067
35457SOL    HW1 9003   6.420   0.389   2.375 -1.1373  0.6049  1.2532
35457SOL    HW2 9004   6.330   0.293   2.451 -0.0483 -1.7063 -0.2735
35458SOL     OW 9005   2.661   8.884   1.711 -0.1006 -0.2232 -0.4924
35458SOL    HW1 9006   2.652   8.800   1.755  1.3991 -1.7818 -2.9133
35458SOL    HW2 9007   2.576   8.897   1.668 -0.1695 -0.7692 -0.5309
35459SOL     OW 9008   0.152   0.855   5.835  0.1655 -0.2001  0.3823
35459SOL    HW1 9009   0.243   0.825   5.833  0.4206  0.6117 -0.8594
35459SOL    HW2 9010   0.100   0.776   5.822  0.6436 -0.7842  1.8211
35460SOL     OW 9011   1.596   8.714   4.974  0.6501 -0.3630 -0.7123
35460SOL    HW1 9012   1.597   8.674   4.887  0.9790 -0.1909 -0.7886
35460SOL    HW2 9013   1.632   8.646   5.031  1.1566 -0.1981 -0.8330
35461SOL     OW 9014   3.785   1.667   5.777 -0.1921  0.8487 -0.0717
35461SOL    HW1 9015   3.787   1.604   5.704 -1.5898  0.2651  0.3551
35461SOL    HW2 9016   3.851   1.634   5.839 -0.8098 -0.1336  0.0800
35462SOL     OW 9017   5.232   9.899   4.424  0.3132  0.2191 -0.0172
35462SOL    HW1 9018   5.274   9.814   4.435  1.9512  0.7009 -2.0445
35462SOL    HW2 9019   5.299   9.962   4.450  0.3988  0.9641 -1.9235
35463SOL     OW 9020   3.453   7.694   3.206  0.9288 -0.2420 -0.2527
35463SOL    HW1 9021   3.500   7.727   3.283  1.8467 -1.8780 -0.0623
35463SOL    HW2 9022   3.420   7.608   3.234 -2.3773  0.8606 -0.3243
35464SOL     OW 9023   6.809   1.355   9.443  0.1233  0.7606  0.5634
35464SOL    HW1 9024   6.864   1.429   9.418  0.1604  0.6524  0.3294
35464SOL    HW2 9025   6.731   1.396   9.481 -0.1957  0.9392 -0.2708
35465SOL     OW 9026   9.065   5.820   8.222 -0.3437  0.1932  0.1764
35465SOL    HW1 9027   9.117   5.892   8.187 -0.7458  0.7253  0.6474
35465SOL    HW2 9028   9.057   5.758   8.150  0.6170  0.2772 -0.0137
35466SOL     OW 9029   0.123   5.451   5.058  0.2655  0.2731 -0.3826
35466SOL    HW1 9030   0.205   5.406   5.038  1.6866  3.0166 -1.1544
35466SOL    HW2 9031   0.073   5.447   4.977  1.1711  1.5483 -1.0450
35467SOL     OW 9032  10.155   7.965   7.570  0.1109  0.3013 -0.1564
35467SOL    HW1 9033  10.136   7.872   7.578 -0.5676  0.3858 -0.7185
35467SOL    HW2 9034  10.230   7.980   7.629 -1.0368 -0.1969  1.5070
35468SOL     OW 9035   0.040   9.375   4.429  0.6013 -0.3946  0.1720
35468SOL    HW1 9036  -0.005   9.420   4.357  0.8329 -1.8722 -0.9513
35468SOL    HW2 9037   0.001   9.288   4.430  2.0399 -1.0556  0.4764
35469SOL     OW 9038   2.189   8.349   9.350 -0.0463 -0.4737  0.3604
35469SOL    HW1 9039   2.200   8.307   9.265  1.1297 -0.8611  0.6915
35469SOL    HW2 9040   2.094   8.352   9.363 -0.2232 -3.7635  0.6379
35470SOL     OW 9041   0.565   7.273   5.145  0.8953 -0.4989 -0.0784
35470SOL    HW1 9042   0.641   7.324   5.117 -0.1967  0.8223 -0.7815
35470SOL    HW2 9043   0.591   7.182   5.132  1.9261 -0.0457 -1.4917
35471SOL     OW 9044   3.424   3.726   2.917 -0.7429 -0.4252 -0.0623
35471SOL    HW1 9045   3.445   3.716   3.010  0.0524 -0.2487 -0.2158
35471SOL    HW2 9046   3.331   3.748   2.916 -0.2936  1.8106  0.8581
35472SOL     OW 9047   1.373   5.621   7.924  0.7547 -0.0113  0.0121
35472SOL    HW1 9048   1.318   5.695   7.950  2.4897  0.6361  2.1246
35472SOL    HW2 9049   1.326   5.544   7.955  0.8770  0.5189  1.6008
35473SOL     OW 9050   4.032   6.071   0.161  0.2645  0.0650 -0.4347
35473SOL    HW1 9051   4.034   6.166   0.154  0.3365  0.0305 -0.9429
35473SOL    HW2 9052   4.077   6.052   0.243 -0.2015  0.4899 -0.0725
35474SOL     OW 9053   8.136   0.062   9.802 -0.0649 -0.2948 -0.3757
35474SOL    HW1 9054   8.226   0.077   9.830  0.2780  1.2826 -2.1716
35474SOL    HW2 9055   8.086   0.134   9.841 -0.1396  0.0946 -1.1692
35475SOL     OW 9056   9.909   9.345   4.097  0.1563  0.0142  0.4786
35475SOL    HW1 9057   9.846   9.391   4.041 -0.2211  0.9569  1.6502
35475SOL    HW2 9058   9.958   9.415   4.140  0.7186 -0.7068  1.0269
35476SOL     OW 9059   8.340   6.080   8.134 -0.0461 -0.0372  0.3139
35476SOL    HW1 9060   8.332   6.144   8.063 -0.7421 -0.2646  0.1744
35476SOL    HW2 9061   8.434   6.067   8.144  0.0670 -0.1273 -0.6936
35477SOL     OW 9062   5.975   9.458   1.785 -0.3308 -0.3394  0.0776
35477SOL    HW1 9063   5.977   9.468   1.690  0.4752  1.7369  0.2523
35477SOL    HW2 9064   5.887   9.483   1.811  0.1877  1.6793  0.0468
35478SOL     OW 9065   9.733   9.641   4.614 -0.1034 -0.2427  0.1663
35478SOL    HW1 9066   9.812   9.617   4.663  0.1318 -0.8234 -0.4825
35478SOL    HW2 9067   9.746   9.604   4.527 -0.8714  0.0916 -0.1055
35479SOL     OW 9068   8.985   2.598   9.387  0.1032  0.8541 -0.4782
35479SOL    HW1 9069   9.007   2.638   9.470 -0.1376  1.1424 -0.5505
35479SOL    HW2 9070   8.953   2.510   9.410 -1.1132  1.3577 -0.1566
35480SOL     OW 9071   0.991   3.356   5.987 -0.3921  0.3379  0.6104
35480SOL    HW1 9072   0.928   3.329   6.054 -0.6029  1.3498  0.8382
35480SOL    HW2 9073   1.076   3.351   6.031 -0.5628  1.3527  1.0932
35481SOL     OW 9074   6.733   9.713  10.253 -0.3151  0.4893 -0.1771
35481SOL    HW1 9075   6.702   9.716  10.343 -2.0056  1.5953 -0.7427
35481SOL    HW2 9076   6.816   9.665  10.257 -0.8644 -0.3747  1.8019
35482SOL     OW 9077   6.702  10.247   1.361 -0.3072  0.4475  0.1975
35482SOL    HW1 9078   6.772  10.261   1.424 -0.1651  1.3761 -0.1482
35482SOL    HW2 9079   6.649  10.177   1.399  2.9742 -3.3033 -1.3455
35483SOL     OW 9080   7.550   6.452   5.244 -0.3771  0.2191  0.3023
35483SOL    HW1 9081   7.518   6.494   5.164  0.3146  0.8907  0.3730
35483SOL    HW2 9082   7.558   6.360   5.220 -0.9387  0.2804 -0.1598
35484SOL     OW 9083   2.278   7.155   7.726  0.4715 -0.0846  0.0486
35484SOL    HW1 9084   2.278   7.250   7.717 -2.4502 -0.0126 -0.0972
35484SOL    HW2 9085   2.238   7.138   7.811  1.7379 -1.2262  0.4727
35485SOL     OW 9086   6.208   1.037   2.973 -0.0104  0.3137  0.0484
35485SOL    HW1 9087   6.263   1.041   2.894  0.3800  0.2458  0.3116
35485SOL    HW2 9088   6.119   1.052   2.941  0.1283  0.1661 -0.4240
35486SOL     OW 9089   6.947   3.349   8.660 -0.2409 -0.4567 -0.5927
35486SOL    HW1 9090   6.929   3.270   8.711  0.3066 -0.3322 -0.1962
35486SOL    HW2 9091   6.867   3.364   8.609 -0.5234 -0.9927 -0.3107
35487SOL     OW 9092   0.822   3.979   9.281 -0.2397  0.1008 -0.6627
35487SOL    HW1 9093   0.760   4.001   9.211  1.0604  1.2995 -1.4942
35487SOL    HW2 9094   0.890   3.929   9.236  1.7937  2.8215 -0.8111
35488SOL     OW 9095   6.029   0.297   4.844 -0.3075  0.5269  0.1006
35488SOL    HW1 9096   6.098   0.361   4.822  0.7552 -1.2072 -2.0280
35488SOL    HW2 9097   5.948   0.339   4.815  0.4455  0.7387 -1.9120
35489SOL     OW 9098   0.236   7.473   6.096 -0.6127 -0.0665  0.3560
35489SOL    HW1 9099   0.216   7.423   6.175  1.3008  0.3926  1.1881
35489SOL    HW2 9100   0.266   7.408   6.032 -1.8326 -0.3978  0.1022
35490SOL     OW 9101   0.063   6.393   9.919  0.0029 -0.1209 -0.2444
35490SOL    HW1 9102   0.000   6.323   9.935  1.0464 -1.0908 -0.3240
35490SOL    HW2 9103   0.040   6.460   9.984 -1.5129 -0.1592 -0.6921
35491SOL     OW 9104   2.555   5.371   5.941  0.7508  0.2918  0.3515
35491SOL    HW1 9105   2.643   5.406   5.927  1.2893 -1.1473  0.0097
35491SOL    HW2 9106   2.523   5.348   5.854 -0.2915  1.4848  0.3835
35492SOL     OW 9107   5.473   1.752   3.470  0.1787  0.4413  0.1558
35492SOL    HW1 9108   5.518   1.668   3.461 -0.6307  0.0384 -0.1970
35492SOL    HW2 9109   5.385   1.736   3.437  0.3466  1.7170 -1.0154
35493SOL     OW 9110   8.865   1.616   0.856  0.0255 -0.2386 -0.3141
35493SOL    HW1 9111   8.797   1.682   0.870  1.4464  0.9937  1.3803
35493SOL    HW2 9112   8.870   1.570   0.940  0.3067 -1.2762 -0.8897
35494SOL     OW 9113   6.416   4.181   7.470 -0.2579  0.0089  0.0386
35494SOL    HW1 9114   6.366   4.109   7.431 -0.6155  1.1168 -1.6455
35494SOL    HW2 9115   6.360   4.258   7.458  1.7865  1.2929 -1.9242
35495SOL     OW 9116   5.462   8.319   4.080  0.1020  0.3629 -0.4853
35495SOL    HW1 9117   5.444   8.228   4.057 -0.3908  1.0975 -3.4620
35495SOL    HW2 9118   5.383   8.349   4.125 -0.4295 -0.2358 -1.0106
35496SOL     OW 9119   2.272   8.721   6.227  0.3587 -0.1936 -0.0804
35496SOL    HW1 9120   2.231   8.807   6.234 -0.4254 -0.6487  1.2099
35496SOL    HW2 9121   2.320   8.725   6.144 -0.8520  0.9677 -0.7778
35497SOL     OW 9122   5.552   7.494   0.550  0.4497 -0.1556  0.2330
35497SOL    HW1 9123   5.476   7.444   0.581  0.8978 -2.0185 -1.4299
35497SOL    HW2 9124   5.533   7.584   0.575 -2.9785 -0.3062 -1.2161
35498SOL     OW 9125   3.143   1.015   1.748 -0.4491 -0.2342 -0.1454
35498SOL    HW1 9126   3.232   1.023   1.715 -0.1809 -0.8101  0.4240
35498SOL    HW2 9127   3.124   0.921   1.745 -1.5317 -0.0202 -1.5165
35499SOL     OW 9128   2.094  10.093   9.575  0.1021 -0.3297 -0.2022
35499SOL    HW1 9129   2.064  10.165   9.632  0.8621  0.7651 -1.1475
35499SOL    HW2 9130   2.081  10.014   9.628 -1.0815  0.4567  0.7364
35500SOL     OW 9131   0.493   5.511   3.186 -0.4257 -0.2637  0.6211
35500SOL    HW1 9132   0.424   5.575   3.198 -0.2637  0.2902 -1.1246
35500SOL    HW2 9133   0.574   5.559   3.203 -0.3377 -0.1511 -0.0816
35501SOL     OW 9134   8.385   9.991   7.702  0.3689 -0.1694  0.7313
35501SOL    HW1 9135   8.376  10.012   7.795 -0.5331 -0.0770  0.6304
35501SOL    HW2 9136   8.302  10.018   7.663  1.0444  0.5576 -0.2502
35502SOL     OW 9137   6.471   6.716   7.167 -0.0538  0.0072  0.2014
35502SOL    HW1 9138   6.439   6.706   7.257 -3.1429  0.7145 -0.7093
35502SOL    HW2 9139   6.458   6.808   7.147  1.1683 -0.0125 -0.8209
35503SOL     OW 9140   3.316   1.276   4.515 -0.1657 -0.0105 -0.7399
35503SOL    HW1 9141   3.269   1.311   4.438  0.2398 -1.3047 -1.6016
35503SOL    HW2 9142   3.386   1.223   4.478 -0.5834 -1.4999  0.5107
35504SOL     OW 9143   9.346   7.563   3.924  0.7718  0.3802  0.3013
35504SOL    HW1 9144   9.344   7.573   4.019  1.2122 -1.9721  0.6055
35504SOL    HW2 9145   9.264   7.604   3.895  0.9682  1.7819  1.5867
35505SOL     OW 9146   1.409   4.260   0.680  0.1043  0.5748  0.9273
35505SOL    HW1 9147   1.482   4.210   0.643 -0.4815  1.3003 -1.3730
35505SOL    HW2 9148   1.426   4.351   0.654 -1.1762  0.8799  1.0684
35506SOL     OW 9149   1.541   2.311   2.450  0.0783 -0.0551  0.5371
35506SOL    HW1 9150   1.462   2.302   2.504  0.0529 -0.8119  0.3800
35506SOL    HW2 9151   1.605   2.252   2.490 -0.3860 -1.7374 -1.0564
35507SOL     OW 9152   3.908   5.848   5.528 -0.2108  0.1469 -0.2859
35507SOL    HW1 9153   3.892   5.836   5.622  0.3698  0.2646 -0.1655
35507SOL    HW2 9154   3.993   5.892   5.524  0.3475 -0.9507 -0.9119
35508SOL     OW 9155   0.089   8.235   5.737 -0.2029 -0.3619  0.3478
35508SOL    HW1 9156   0.021   8.215   5.672 -0.7139  1.1559  0.3846
35508SOL    HW2 9157   0.151   8.163   5.729 -1.6326 -1.6138  0.0782
35509SOL     OW 9158   9.365   5.604   0.361 -0.0419 -0.2208  0.0922
35509SOL    HW1 9159   9.424   5.647   0.423  1.4978 -0.3554 -1.2152
35509SOL    HW2 9160   9.390   5.512   0.364 -0.0562 -0.2514 -0.6235
35510SOL     OW 9161   1.966   4.015   7.599 -0.1588  0.0624  0.1414
35510SOL    HW1 9162   1.882   4.053   7.625 -0.8213 -0.2820 -1.4027
35510SOL    HW2 9163   1.984   4.054   7.513 -0.5016 -2.4798 -1.1770
35511SOL     OW 9164   6.886   0.992   1.339  0.4156  0.3860 -0.2936
35511SOL    HW1 9165   6.846   0.960   1.258 -1.0701  1.7509 -0.1615
35511SOL    HW2 9166   6.929   1.074   1.313  1.8260 -0.2608 -0.1038
35512SOL     OW 9167   8.164   2.560   7.363 -0.2566  0.1344  0.5784
35512SOL    HW1 9168   8.111   2.507   7.303 -0.6362  0.1688  0.8788
35512SOL    HW2 9169   8.128   2.648   7.355  0.0467  0.2486  0.4553
35513SOL     OW 9170   5.214   1.619   7.254  0.1628 -0.2128  0.5444
35513SOL    HW1 9171   5.241   1.623   7.345 -0.9239  0.1816  0.8641
35513SOL    HW2 9172   5.122   1.645   7.255 -0.2323 -1.4784 -0.5029
35514SOL     OW 9173   2.892   3.873   4.064  0.2674  0.8525 -0.2317
35514SOL    HW1 9174   2.973   3.826   4.043 -0.3048 -0.7793  1.0054
35514SOL    HW2 9175   2.908   3.910   4.151  0.3556  2.2168 -0.7961
35515SOL     OW 9176   1.978   7.280   1.893 -0.0527  0.6978 -0.3474
35515SOL    HW1 9177   1.974   7.256   1.800 -0.6245 -0.0534 -0.1397
35515SOL    HW2 9178   1.967   7.197   1.939 -0.1907  1.1258  0.3992
35516SOL     OW 9179   2.459  10.221   4.651 -0.3686 -0.0404  0.3828
35516SOL    HW1 9180   2.368  10.228   4.679 -0.5448  2.6660 -0.5613
35516SOL    HW2 9181   2.508  10.266   4.719  0.0621 -0.0235  0.0622
35517SOL     OW 9182   9.129   1.085   2.556 -0.1943 -0.1853  0.0349
35517SOL    HW1 9183   9.137   1.180   2.570  0.7667 -0.3381  0.6320
35517SOL    HW2 9184   9.150   1.073   2.463 -0.3059  0.1841 -0.0395
35518SOL     OW 9185   0.693   8.646   2.979 -0.2259 -0.2019 -0.1121
35518SOL    HW1 9186   0.700   8.590   3.057 -2.4340 -0.5281 -0.0668
35518SOL    HW2 9187   0.599   8.651   2.962 -0.3652  4.5239  0.6315
35519SOL     OW 9188   8.469   4.127   0.226  0.0382  0.1760  0.1223
35519SOL    HW1 9189   8.398   4.140   0.290 -0.5778 -0.0567 -0.4990
35519SOL    HW2 9190   8.430   4.151   0.142  0.3642 -0.9645 -0.3782
35520SOL     OW 9191   2.231   2.591   2.845 -0.0234 -0.8452 -0.7020
35520SOL    HW1 9192   2.288   2.535   2.793  0.4688 -1.1540  0.1565
35520SOL    HW2 9193   2.288   2.629   2.912 -0.8620 -1.3487  0.3225
35521SOL     OW 9194   9.947   0.022   6.374  0.1633  0.3685 -0.7338
35521SOL    HW1 9195   9.969   0.101   6.424 -2.5111  1.7799 -1.5846
35521SOL    HW2 9196   9.890  -0.028   6.433  0.1713  0.1147 -0.9428
35522SOL     OW 9197   0.793   0.278   8.422 -0.1918  0.6817 -0.9116
35522SOL    HW1 9198   0.715   0.276   8.367  0.1811  1.1529 -1.4797
35522SOL    HW2 9199   0.796   0.366   8.457 -0.9969  0.0763  0.7389
35523SOL     OW 9200   2.669   2.932   3.835 -0.8585 -0.4994 -0.0481
35523SOL    HW1 9201   2.713   2.891   3.760  0.0688  0.5206 -0.0798
35523SOL    HW2 9202   2.651   2.859   3.894  0.1249 -1.0613 -0.4172
35524SOL     OW 9203   2.182   1.549   1.116  0.0428 -0.3710  0.1098
35524SOL    HW1 9204   2.188   1.454   1.107  0.4892 -0.2846 -0.5564
35524SOL    HW2 9205   2.114   1.562   1.183 -0.6081 -1.1329 -0.3859
35525SOL     OW 9206   5.174   3.162   7.085  0.2658  0.3512 -0.2134
35525SOL    HW1 9207   5.102   3.203   7.037  0.3421  0.5045 -0.1952
35525SOL    HW2 9208   5.137   3.080   7.117  0.6303 -0.4409 -1.7515
35526SOL     OW 9209   7.811   1.150   1.428 -0.2271 -0.5902 -0.3772
35526SOL    HW1 9210   7.845   1.066   1.458 -0.5681 -0.8542 -0.7400
35526SOL    HW2 9211   7.867   1.215   1.473 -0.5440 -0.9801  0.6158
35527SOL     OW 9212   8.128   8.359   1.807  0.6332 -0.2822  0.4033
35527SOL    HW1 9213   8.180   8.330   1.882 -1.0135 -1.5653  1.0984
35527SOL    HW2 9214   8.057   8.410   1.845  0.2926 -0.1580 -0.3715
35528SOL     OW 9215  10.186   0.012   3.329  0.5062 -0.0258  0.7110
35528SOL    HW1 9216  10.107   0.001   3.276  1.5337  0.4664 -0.9991
35528SOL    HW2 9217  10.187   0.105   3.352  0.8199  0.0636  0.3407
35529SOL     OW 9218   3.108   3.523   3.787  0.0217  0.4076 -0.3275
35529SOL    HW1 9219   3.048   3.449   3.793  1.8239 -1.1409 -0.4927
35529SOL    HW2 9220   3.127   3.546   3.878 -1.5899  1.6211 -0.2563
35530SOL     OW 9221   5.346  10.348   2.395  0.4387 -0.2564  0.0405
35530SOL    HW1 9222   5.416  10.394   2.350  0.0595 -1.3127 -1.7036
35530SOL    HW2 9223   5.319  10.279   2.335  0.4568 -2.3062  2.2191
35531SOL     OW 9224   8.823   5.675   2.179  0.2775 -0.3130  0.2066
35531SOL    HW1 9225   8.901   5.718   2.214  0.3222  0.0212 -0.2972
35531SOL    HW2 9226   8.756   5.687   2.246  0.3662  0.3148  0.1850
35532SOL     OW 9227   1.738   8.469   9.420  0.5827  0.0889 -0.4782
35532SOL    HW1 9228   1.770   8.554   9.393 -0.2601  0.0648 -1.6864
35532SOL    HW2 9229   1.661   8.488   9.473  1.5511  0.1067  0.9596
35533SOL     OW 9230   2.446   1.263   6.102  0.2954 -0.1831  0.1726
35533SOL    HW1 9231   2.367   1.318   6.108  0.1435 -0.2433 -1.0417
35533SOL    HW2 9232   2.482   1.282   6.016  0.9416 -1.0753  0.2334
35534SOL     OW 9233   5.803   7.329   2.527  0.1043 -0.3804 -0.6008
35534SOL    HW1 9234   5.724   7.367   2.566 -0.8536 -2.2043 -0.6771
35534SOL    HW2 9235   5.812   7.243   2.569  0.1300 -1.6167 -2.9922
35535SOL     OW 9236   3.588   2.017   4.618 -0.4195  0.5184 -0.3159
35535SOL    HW1 9237   3.602   2.008   4.713  0.6092  0.3707 -0.4789
35535SOL    HW2 9238   3.545   2.102   4.609 -0.3981  0.5986  0.2725
35536SOL     OW 9239   6.451   1.688   7.740 -0.4706 -0.0541  0.2858
35536SOL    HW1 9240   6.362   1.699   7.707 -0.0696 -0.5484 -1.0230
35536SOL    HW2 9241   6.442   1.630   7.816 -1.2576 -0.0983  0.1653
35537SOL     OW 9242   0.613   4.673   0.402 -0.5250  0.1447  0.3974
35537SOL    HW1 9243   0.651   4.618   0.334 -0.3645  0.5749  0.1337
35537SOL    HW2 9244   0.521   4.646   0.407 -0.0679 -1.3339  1.4708
35538SOL     OW 9245   9.372   5.236   0.705 -0.4302  0.4900 -0.0269
35538SOL    HW1 9246   9.398   5.286   0.783 -1.3233 -0.3197  0.8116
35538SOL    HW2 9247   9.277   5.243   0.702 -0.7176 -2.1448  0.8347
35539SOL     OW 9248   9.334   9.238   5.590  0.0451  0.2137  0.4715
35539SOL    HW1 9249   9.364   9.304   5.527 -0.1455 -2.0074 -2.1324
35539SOL    HW2 9250   9.239   9.236   5.579 -0.0331  0.0916  1.1518
35540SOL     OW 9251   7.071   8.901  10.275 -0.1473 -0.4846  0.3054
35540SOL    HW1 9252   7.070   8.832  10.341 -1.6413 -0.5851  0.2030
35540SOL    HW2 9253   7.032   8.976  10.319  2.0392  0.5523  0.6264
35541SOL     OW 9254   4.032   4.974   5.906 -0.6465 -0.3892  0.1915
35541SOL    HW1 9255   4.064   4.890   5.937 -0.5788 -0.2034  0.6358
35541SOL    HW2 9256   4.105   5.034   5.921 -0.6607 -0.2696 -0.2091
35542SOL     OW 9257   8.128   5.217   1.350  0.3930  0.2366  0.6893
35542SOL    HW1 9258   8.155   5.253   1.434  1.7779 -0.7041  0.6950
35542SOL    HW2 9259   8.203   5.163   1.322 -0.0754  0.4332 -1.0875
35543SOL     OW 9260   7.506   5.593   7.694 -0.3302  0.1351 -0.2991
35543SOL    HW1 9261   7.454   5.640   7.628  0.5686  1.8017  0.1136
35543SOL    HW2 9262   7.441   5.559   7.756 -0.9985  2.0622  0.1371
35544SOL     OW 9263   7.234   4.562   8.447  0.4585 -0.7604  0.1209
35544SOL    HW1 9264   7.266   4.609   8.525 -0.2090  1.5149 -0.8896
35544SOL    HW2 9265   7.149   4.528   8.472  0.6043 -0.7492  0.6403
35545SOL     OW 9266   9.439   0.528   6.089  0.4096 -0.5115  0.1150
35545SOL    HW1 9267   9.483   0.505   6.007  0.5408 -0.0621  0.0548
35545SOL    HW2 9268   9.375   0.458   6.102  1.3031 -1.3131  0.3327
35546SOL     OW 9269   6.473  10.154   3.104 -0.3084 -0.8058 -0.2092
35546SOL    HW1 9270   6.384  10.175   3.076 -0.8620 -0.4821  1.6424
35546SOL    HW2 9271   6.479  10.189   3.193  1.2144 -2.0304  0.2146
35547SOL     OW 9272   9.816   9.904   4.648  0.1137 -0.1551 -0.2055
35547SOL    HW1 9273   9.787   9.813   4.651 -0.7916  0.0452 -1.8122
35547SOL    HW2 9274   9.888   9.908   4.711  0.7525 -2.1881 -0.7215
35548SOL     OW 9275   9.498   7.518   7.221  0.7418 -0.0678 -0.0233
35548SOL    HW1 9276   9.557   7.473   7.282 -0.1940  0.0994  1.0496
35548SOL    HW2 9277   9.411   7.482   7.242  0.0477  1.7837  0.4623
35549SOL     OW 9278   4.515   6.537   1.208 -0.7512  0.5658 -0.1964
35549SOL    HW1 9279   4.503   6.605   1.274  2.0497  1.6647 -0.6818
35549SOL    HW2 9280   4.564   6.468   1.254  1.3201  1.3876 -1.0297
35550SOL     OW 9281   6.289   2.232   6.817  0.1147  0.4770  0.3199
35550SOL    HW1 9282   6.299   2.323   6.790  0.2720  0.4152  0.1721
35550SOL    HW2 9283   6.199   2.209   6.792 -0.5008  1.0966  1.8455
35551SOL     OW 9284   5.615   4.964   0.957 -0.4552 -0.1327 -0.3529
35551SOL    HW1 9285   5.644   5.055   0.965  0.5788 -0.5009  0.2353
35551SOL    HW2 9286   5.535   4.959   1.008 -0.9975  0.6539 -1.1083
35552SOL     OW 9287   3.525   0.801   0.879  0.0134  0.2595 -0.1311
35552SOL    HW1 9288   3.507   0.855   0.956  0.3852 -1.2917  1.0972
35552SOL    HW2 9289   3.510   0.859   0.805 -2.6398  1.1753  1.0073
35553SOL     OW 9290   6.541   0.281   8.470 -0.7607 -0.3145 -0.3486
35553SOL    HW1 9291   6.633   0.305   8.463  0.1893 -2.9513  1.3149
35553SOL    HW2 9292   6.509   0.328   8.547 -0.2204 -0.8394  0.2093
35554SOL     OW 9293   8.999   2.815   3.293  0.1025 -0.1838 -0.1641
35554SOL    HW1 9294   9.035   2.841   3.208 -1.7709 -1.2167 -1.3484
35554SOL    HW2 9295   8.928   2.877   3.310  0.6439  0.1883  0.8087
35555SOL     OW 9296   3.280   2.031   0.642 -0.3953  0.1789 -0.2905
35555SOL    HW1 9297   3.262   2.046   0.734  0.2907  2.8435 -0.5012
35555SOL    HW2 9298   3.194   2.034   0.599 -0.6263 -0.1343  0.1489
35556SOL     OW 9299   7.404   2.390   2.062  0.4805 -0.3293 -0.1286
35556SOL    HW1 9300   7.329   2.403   2.119  0.4395 -0.2686 -0.1974
35556SOL    HW2 9301   7.479   2.388   2.122  0.4920  0.2677 -0.1248
35557SOL     OW 9302   1.363   5.959   4.931  0.4618  0.1037  0.6826
35557SOL    HW1 9303   1.445   5.912   4.920  0.9660  1.2257 -0.6060
35557SOL    HW2 9304   1.302   5.916   4.871  0.0927 -0.7238  1.6333
35558SOL     OW 9305   1.495   7.629   4.744  0.1747 -0.7369 -0.0410
35558SOL    HW1 9306   1.484   7.632   4.839  1.4395  0.9845  0.0934
35558SOL    HW2 9307   1.406   7.641   4.710 -0.4048 -2.1426  0.8925
35559SOL     OW 9308   1.090   6.370   1.308  0.0227  0.0211 -0.2220
35559SOL    HW1 9309   1.155   6.416   1.255  0.8665 -0.4626  0.3717
35559SOL    HW2 9310   1.134   6.289   1.335 -0.3668  0.2771  1.2524
35560SOL     OW 9311   8.807   8.605   9.566  0.3447  0.3510  0.0948
35560SOL    HW1 9312   8.879   8.660   9.597  1.0627 -0.8638  0.6249
35560SOL    HW2 9313   8.761   8.577   9.645  0.2379 -0.1500 -0.1394
35561SOL     OW 9314   5.546   7.063   6.852  0.2244  0.2424 -0.2259
35561SOL    HW1 9315   5.631   7.094   6.823  0.4025  0.6955  0.7392
35561SOL    HW2 9316   5.566   7.006   6.927 -0.3589  0.9836  0.5100
35562SOL     OW 9317   2.886   5.469   2.999  1.1157  0.4008 -0.0973
35562SOL    HW1 9318   2.834   5.401   2.956  1.6617 -0.6919  0.9199
35562SOL    HW2 9319   2.842   5.551   2.977 -0.1446 -0.3662 -0.5114
35563SOL     OW 9320   8.952   8.776   9.075 -0.0799 -0.0307  0.0433
35563SOL    HW1 9321   9.022   8.723   9.112 -1.9795 -2.2429  0.7450
35563SOL    HW2 9322   8.890   8.788   9.148 -0.6610  1.4772 -0.6513
35564SOL     OW 9323   5.716   7.017   0.439  0.1129 -0.7407 -0.0888
35564SOL    HW1 9324   5.671   7.021   0.354 -1.1798 -1.2740  0.5504
35564SOL    HW2 9325   5.793   6.962   0.422 -0.9997 -2.2117 -0.5533
35565SOL     OW 9326   8.286   6.065   8.955  0.1334  0.3477 -0.7745
35565SOL    HW1 9327   8.326   6.004   9.017 -0.6576 -0.5779 -1.1634
35565SOL    HW2 9328   8.319   6.151   8.982  0.6266 -0.1538  0.2754
35566SOL     OW 9329   0.974   3.515   4.581 -0.6378 -0.9129  0.1164
35566SOL    HW1 9330   0.926   3.596   4.564 -0.5987 -0.7165  0.8858
35566SOL    HW2 9331   0.940   3.485   4.665  0.0584 -1.1680  0.3124
35567SOL     OW 9332   4.471   8.307   2.071  0.0854  0.1722  0.4081
35567SOL    HW1 9333   4.479   8.226   2.020 -0.1569  1.0016 -0.9941
35567SOL    HW2 9334   4.399   8.355   2.029 -1.0917  0.2855  2.4155
35568SOL     OW 9335   8.603   8.516  10.246  0.2841  0.4508 -0.6904
35568SOL    HW1 9336   8.574   8.463  10.320  0.5081  0.7360 -0.3934
35568SOL    HW2 9337   8.541   8.589  10.243  1.9688  2.0604  1.0911
35569SOL     OW 9338   1.319   9.157   8.240  0.2896 -0.1717  0.3652
35569SOL    HW1 9339   1.378   9.231   8.255 -0.6322  0.8361 -0.8547
35569SOL    HW2 9340   1.234   9.197   8.221 -0.5792 -1.5809  1.0914
35570SOL     OW 9341   3.641   5.746   2.366 -0.4812 -0.2048  0.3383
35570SOL    HW1 9342   3.700   5.820   2.382  0.3181 -0.4217 -1.3491
35570SOL    HW2 9343   3.688   5.670   2.399 -0.6910 -0.1476  0.7814
35571SOL     OW 9344   4.107   6.371   5.772 -0.3593  0.2788 -0.0338
35571SOL    HW1 9345   4.157   6.447   5.803  0.6175 -0.0566 -0.7259
35571SOL    HW2 9346   4.102   6.382   5.677 -0.4108 -0.3997 -0.1145
35572SOL     OW 9347   9.235   2.869   5.357 -0.2455  0.2660 -0.3860
35572SOL    HW1 9348   9.294   2.936   5.392 -1.7786  0.3382  2.3161
35572SOL    HW2 9349   9.291   2.814   5.302  2.2080  0.7275  1.4752
35573SOL     OW 9350   6.656   9.183   4.425  0.3404 -0.5068 -0.2145
35573SOL    HW1 9351   6.609   9.112   4.468 -0.5568  1.2853  1.9413
35573SOL    HW2 9352   6.635   9.261   4.476  2.6576  1.0487 -1.4241
35574SOL     OW 9353   2.522   0.198   0.428 -0.2632 -0.2464 -0.0191
35574SOL    HW1 9354   2.503   0.201   0.334  0.0390  3.2178 -0.1082
35574SOL    HW2 9355   2.465   0.264   0.467  0.3837 -0.8505  2.1070
35575SOL     OW 9356   7.789   7.504   3.213 -0.4372  0.0675 -0.2543
35575SOL    HW1 9357   7.858   7.472   3.155 -0.3525 -0.7368  0.2746
35575SOL    HW2 9358   7.756   7.426   3.256 -1.4758  0.4878 -0.2723
35576SOL     OW 9359   5.802   1.023   4.651  0.0257 -0.0399  0.1597
35576SOL    HW1 9360   5.718   1.055   4.684 -0.6768  0.8773 -2.2661
35576SOL    HW2 9361   5.852   1.103   4.633  0.9030 -0.5436  0.3147
35577SOL     OW 9362   2.176   2.268   3.398  0.5649 -0.5647  0.4601
35577SOL    HW1 9363   2.201   2.180   3.428 -1.0346 -1.0564  0.4559
35577SOL    HW2 9364   2.085   2.276   3.423  0.5828  0.9606  0.0901
35578SOL     OW 9365   7.294   8.431   5.222 -0.0078  0.0873 -0.1316
35578SOL    HW1 9366   7.336   8.357   5.178  1.4622  0.8865 -0.1386
35578SOL    HW2 9367   7.229   8.462   5.159  0.1140 -0.5178 -0.5694
35579SOL     OW 9368   6.971   3.016  10.240 -0.2055 -0.2887  0.2060
35579SOL    HW1 9369   6.903   3.059  10.291 -1.4498  0.5344 -1.9947
35579SOL    HW2 9370   6.933   2.931  10.215 -0.7168  0.3746 -1.4452
35580SOL     OW 9371   8.601   5.789   8.743 -0.3618 -0.2535  0.0077
35580SOL    HW1 9372   8.540   5.774   8.671  0.4504  0.2376 -0.8092
35580SOL    HW2 9373   8.624   5.702   8.774 -1.5045 -0.4453  0.3678
35581SOL     OW 9374   7.215  10.009  10.133  0.2368 -0.0964 -0.0018
35581SOL    HW1 9375   7.273   9.936  10.112  0.8095  0.0218  1.0965
35581SOL    HW2 9376   7.200  10.001  10.227  0.9728  1.6715  0.2960
35582SOL     OW 9377   8.824   4.279   8.829  0.3228  0.6608 -0.2508
35582SOL    HW1 9378   8.766   4.266   8.904 -1.3406 -0.4426 -1.6585
35582SOL    HW2 9379   8.824   4.373   8.815  0.2542  0.8341  0.8093
35583SOL     OW 9380   8.520   8.836   0.257 -0.4465 -0.1620  0.4092
35583SOL    HW1 9381   8.545   8.826   0.165  0.8060  1.2834  0.5479
35583SOL    HW2 9382   8.524   8.930   0.273 -2.3662 -0.2273  1.5108
35584SOL     OW 9383   3.637   0.619   4.034 -0.1872  0.8822  0.2629
35584SOL    HW1 9384   3.588   0.697   4.058  0.2264  0.9642  0.8584
35584SOL    HW2 9385   3.692   0.648   3.961  1.7105  1.8367  1.9673
35585SOL     OW 9386   0.799  10.011   7.423 -0.1736  0.8303  0.5300
35585SOL    HW1 9387   0.815  10.093   7.377  1.4498 -0.3447 -1.1287
35585SOL    HW2 9388   0.725   9.971   7.377  0.7030  0.1954 -0.3634
35586SOL     OW 9389   8.960   9.484   3.647 -0.1500 -0.1972 -0.3032
35586SOL    HW1 9390   8.981   9.507   3.556  0.6533 -0.3739 -0.1773
35586SOL    HW2 9391   9.020   9.538   3.699  0.8301 -1.5623  0.0376
35587SOL     OW 9392   2.986   1.650   9.969 -0.4432  0.3449  0.6533
35587SOL    HW1 9393   3.045   1.704  10.022 -0.0307  1.6412 -1.0189
35587SOL    HW2 9394   3.041   1.580   9.935  0.0990  1.3550 -0.6230
35588SOL     OW 9395   9.645   8.060  10.303 -0.4369  0.2587 -0.3432
35588SOL    HW1 9396   9.629   8.096  10.390 -0.2589 -0.7250  0.1036
35588SOL    HW2 9397   9.607   8.125  10.243 -0.4155  1.0215  0.4506
35589SOL     OW 9398   2.907   1.647   2.402 -0.4623 -0.1902 -0.2394
35589SOL    HW1 9399   2.995   1.609   2.400 -0.1992  0.4367 -0.6432
35589SOL    HW2 9400   2.919   1.733   2.441 -0.9191 -0.1585 -0.1670
35590SOL     OW 9401   3.392   5.595   6.684 -0.9524  0.2694 -0.1384
35590SOL    HW1 9402   3.369   5.683   6.654 -0.0020  0.8285  0.6670
35590SOL    HW2 9403   3.313   5.562   6.726 -1.8232  0.0672 -1.8571
35591SOL     OW 9404   2.989   4.370   1.227  0.0839 -0.4695 -0.6058
35591SOL    HW1 9405   3.010   4.450   1.178 -2.1024  0.6011  0.0898
35591SOL    HW2 9406   2.985   4.302   1.161 -1.0909  0.6185 -1.7051
35592SOL     OW 9407   5.575   4.983   9.628 -0.1443 -0.6447 -0.5840
35592SOL    HW1 9408   5.655   5.032   9.611  0.6400 -1.5667  0.3542
35592SOL    HW2 9409   5.542   4.961   9.540  0.3756  0.1174 -0.9868
35593SOL     OW 9410   6.385   0.302   9.264  0.2337  0.2454  0.1673
35593SOL    HW1 9411   6.296   0.304   9.300  1.5196  2.0042  3.7608
35593SOL    HW2 9412   6.413   0.211   9.274 -0.2127  0.2534  1.7946
35594SOL     OW 9413   3.043   8.182   0.550  0.2853 -0.1357 -0.5448
35594SOL    HW1 9414   3.072   8.166   0.640 -0.1815  0.8848 -0.2013
35594SOL    HW2 9415   2.999   8.267   0.553 -0.1733 -0.3125 -1.6418
35595SOL     OW 9416   5.755   3.973   9.609 -0.2610 -0.4146 -0.6802
35595SOL    HW1 9417   5.740   3.947   9.700 -0.3364 -0.0512 -0.5870
35595SOL    HW2 9418   5.672   3.956   9.565  0.1911 -1.9151 -1.0039
35596SOL     OW 9419   4.074   4.444   2.976  0.1249 -0.1173 -0.1678
35596SOL    HW1 9420   4.037   4.423   2.890 -0.3081  0.6279 -0.1828
35596SOL    HW2 9421   4.152   4.496   2.957 -0.0802  0.2152 -0.1149
35597SOL     OW 9422   4.145   7.066   0.517  0.1000  0.0653 -0.6360
35597SOL    HW1 9423   4.145   7.022   0.602 -2.8535  1.7618  0.4102
35597SOL    HW2 9424   4.121   6.999   0.454 -0.4004 -0.6604  0.3073
35598SOL     OW 9425   8.066  10.270   4.940  0.5849 -0.0769 -0.0458
35598SOL    HW1 9426   7.981  10.236   4.969  0.9897  0.2409  1.6263
35598SOL    HW2 9427   8.101  10.202   4.882 -0.8269 -0.1730 -0.8181
35599SOL     OW 9428   6.291   2.232   9.282  0.4535 -0.1068  0.1057
35599SOL    HW1 9429   6.254   2.164   9.226  1.7716 -0.6229 -0.1617
35599SOL    HW2 9430   6.241   2.311   9.260 -3.0409 -1.4509  2.3677
35600SOL     OW 9431   5.595   5.649   5.361 -0.7201 -0.2630  0.1874
35600SOL    HW1 9432   5.631   5.561   5.348 -0.6873 -0.4400  1.3552
35600SOL    HW2 9433   5.500   5.638   5.352 -0.6179 -0.0642 -1.4523
35601SOL     OW 9434   3.743   0.262   3.836 -0.4336 -0.4666 -0.1787
35601SOL    HW1 9435   3.725   0.284   3.928 -0.2146  0.8898 -0.4433
35601SOL    HW2 9436   3.794   0.181   3.841  1.6071  0.7900  1.0588
35602SOL     OW 9437   5.154  10.246   7.564  0.0862  0.4437  0.2071
35602SOL    HW1 9438   5.232  10.252   7.619  1.5534  0.6147 -1.7823
35602SOL    HW2 9439   5.123  10.336   7.558  0.2032  0.4966  0.3682
35603SOL     OW 9440   6.248   0.665   4.381 -0.2285 -0.2782 -0.0298
35603SOL    HW1 9441   6.273   0.733   4.318 -0.4707  0.5831  0.7799
35603SOL    HW2 9442   6.331   0.626   4.408 -0.1438 -0.8855 -1.1147
35604SOL     OW 9443   3.556   8.436   2.938 -0.7441 -0.5596  0.1738
35604SOL    HW1 9444   3.492   8.491   2.893  1.2408  1.7201 -0.0691
35604SOL    HW2 9445   3.551   8.352   2.893 -2.1182  0.1886 -1.1693
35605SOL     OW 9446   9.755   9.461   4.388  0.1700  0.1953 -0.2138
35605SOL    HW1 9447   9.784   9.397   4.453  2.1134 -0.5511 -1.6772
35605SOL    HW2 9448   9.676   9.422   4.350  0.5040 -0.6290 -0.0813
35606SOL     OW 9449   9.021   2.787   8.843  0.4632 -0.0611 -0.1467
35606SOL    HW1 9450   9.069   2.850   8.790 -0.0971  0.4141 -0.1002
35606SOL    HW2 9451   9.043   2.809   8.933  1.2072 -0.7005 -0.1668
35607SOL     OW 9452   1.776   1.193   2.925  0.4084  0.5856  0.2497
35607SOL    HW1 9453   1.709   1.260   2.936  1.2095  1.1963  1.6525
35607SOL    HW2 9454   1.740   1.115   2.967 -0.7465 -0.0858 -1.8376
35608SOL     OW 9455   6.033   6.679   0.538 -0.1697  0.0863 -0.6304
35608SOL    HW1 9456   6.041   6.674   0.634 -2.5744 -0.6939 -0.4142
35608SOL    HW2 9457   6.074   6.598   0.506 -0.6137 -0.3278 -0.1609
35609SOL     OW 9458   4.413   1.987   6.068 -0.4967 -0.6250 -0.2959
35609SOL    HW1 9459   4.355   1.931   6.120 -1.6459 -0.8074 -1.7046
35609SOL    HW2 9460   4.444   1.930   5.997  1.6209 -0.5886  0.5331
35610SOL     OW 9461   9.459   1.660   2.790 -0.4669 -0.4324  0.1081
35610SOL    HW1 9462   9.504   1.601   2.851 -1.9789  0.4605  2.2357
35610SOL    HW2 9463   9.490   1.747   2.814  0.8260 -0.1898 -2.1923
35611SOL     OW 9464   5.157   2.278   5.251  0.2181  0.4394 -0.3649
35611SOL    HW1 9465   5.092   2.332   5.295 -1.3296 -0.1591 -1.8067
35611SOL    HW2 9466   5.240   2.321   5.270 -0.7573  2.2456  0.0724
35612SOL     OW 9467   2.500   1.995   4.807  0.6299  0.1084 -0.4652
35612SOL    HW1 9468   2.508   1.920   4.865  0.4107 -0.0640 -0.6529
35612SOL    HW2 9469   2.410   1.991   4.775  0.7930  0.1122 -0.9326
35613SOL     OW 9470   2.829   4.911   1.681  0.1542 -0.2141  0.2648
35613SOL    HW1 9471   2.815   4.882   1.591 -1.6833  2.5211 -0.4771
35613SOL    HW2 9472   2.761   4.867   1.731  0.0527 -0.3997 -0.0325
35614SOL     OW 9473   0.477   5.053   7.270 -0.1346  0.1463  0.3841
35614SOL    HW1 9474   0.445   4.976   7.223  0.6808 -0.8157  1.3670
35614SOL    HW2 9475   0.567   5.064   7.239 -0.2049  0.6344  0.3468
35615SOL     OW 9476   2.936   6.758   8.466 -0.1862  0.0780  0.0316
35615SOL    HW1 9477   2.988   6.838   8.468  1.5037 -0.9765  0.8054
35615SOL    HW2 9478   2.932   6.734   8.374  1.5706 -0.2970  0.0065
35616SOL     OW 9479   1.513   5.341   8.549  0.1688  0.0504  0.2678
35616SOL    HW1 9480   1.462   5.417   8.521 -1.0579 -0.5608  0.7188
35616SOL    HW2 9481   1.550   5.305   8.468  1.4790  1.5827  0.1448
35617SOL     OW 9482   0.894   4.655   6.215  0.2716  0.1589 -0.0443
35617SOL    HW1 9483   0.890   4.585   6.280 -0.1792 -0.6004 -0.8690
35617SOL    HW2 9484   0.942   4.618   6.141 -2.6451 -0.4355 -1.7956
35618SOL     OW 9485   8.173   6.293   2.024 -0.2170 -0.4716  0.5328
35618SOL    HW1 9486   8.243   6.232   2.047  0.4846 -0.3406 -1.1017
35618SOL    HW2 9487   8.173   6.357   2.096  0.2219 -1.3895  1.3761
35619SOL     OW 9488   4.050   2.730   4.950  0.1186 -0.2218 -0.0624
35619SOL    HW1 9489   3.994   2.678   4.891 -0.1048 -1.1886  0.9657
35619SOL    HW2 9490   3.989   2.774   5.008  0.2665  1.8769 -1.4172
35620SOL     OW 9491   1.237   0.118   0.810 -0.5040  0.5294 -0.3202
35620SOL    HW1 9492   1.304   0.050   0.817 -0.7000  0.3095 -0.5936
35620SOL    HW2 9493   1.171   0.082   0.751  0.8289  2.1130 -2.9852
35621SOL     OW 9494   7.202   5.122   2.832  0.0543 -0.1950  0.3118
35621SOL    HW1 9495   7.292   5.151   2.821 -0.4815  1.4757 -0.0471
35621SOL    HW2 9496   7.208   5.042   2.883  1.6955  0.3127  0.9712
35622SOL     OW 9497   2.424   1.998   5.940 -0.0974  0.0173 -0.7378
35622SOL    HW1 9498   2.505   2.041   5.913  0.5897 -0.3478  0.6273
35622SOL    HW2 9499   2.393   1.954   5.861 -1.5354  3.8860 -2.5802
35623SOL     OW 9500   6.280   3.879   8.842  0.2656  0.4394  0.0280
35623SOL    HW1 9501   6.233   3.937   8.782 -0.9722 -1.1904 -0.6676
35623SOL    HW2 9502   6.227   3.799   8.843  4.2081 -2.5629 -2.7612
35624SOL     OW 9503   3.349   8.767   4.698  0.0408  0.3078  0.0419
35624SOL    HW1 9504   3.416   8.781   4.765  0.4207  1.4489 -0.5539
35624SOL    HW2 9505   3.376   8.687   4.652  0.7615  0.5347  0.0731
35625SOL     OW 9506   1.142   7.231   0.142 -0.4443 -0.6440 -0.1637
35625SOL    HW1 9507   1.069   7.284   0.108  0.7535  0.4643 -1.1200
35625SOL    HW2 9508   1.175   7.281   0.216 -0.3525 -0.8937 -0.0379
35626SOL     OW 9509   7.928   3.726   8.518  0.5413 -0.2942 -0.1063
35626SOL    HW1 9510   7.985   3.649   8.525 -1.5643 -1.8541  1.4404
35626SOL    HW2 9511   7.919   3.757   8.608 -1.5579 -0.5547 -0.1741
35627SOL     OW 9512   9.172   7.569   4.990  0.2347  0.0004  0.0057
35627SOL    HW1 9513   9.262   7.584   4.962  0.4165  0.7336  0.9078
35627SOL    HW2 9514   9.160   7.474   4.983  1.4177 -0.2348  0.8445
35628SOL     OW 9515   5.304   6.848   0.672  1.0148 -0.3463  0.0461
35628SOL    HW1 9516   5.399   6.849   0.685  0.8626 -0.4544  1.2683
35628SOL    HW2 9517   5.269   6.816   0.755  0.0043 -2.3781 -1.0895
35629SOL     OW 9518   7.957   1.353   4.948  0.2399 -0.2109 -0.1770
35629SOL    HW1 9519   8.051   1.349   4.928  0.2825 -0.2255  0.0201
35629SOL    HW2 9520   7.950   1.312   5.034  0.1904  0.7322  0.2781
35630SOL     OW 9521   5.063   3.078   3.031 -0.0483 -0.2898 -0.4616
35630SOL    HW1 9522   5.157   3.074   3.045 -0.3220 -2.5031  1.4408
35630SOL    HW2 9523   5.034   3.153   3.084  0.5259 -0.3313 -0.0848
35631SOL     OW 9524   5.519   4.678   7.682 -0.2567 -0.1412  0.0406
35631SOL    HW1 9525   5.552   4.652   7.596 -1.6804 -1.4929 -0.1648
35631SOL    HW2 9526   5.511   4.595   7.730 -1.4569  0.3406  0.7178
35632SOL     OW 9527   7.984   4.731   5.228 -0.8866 -0.0793 -0.6436
35632SOL    HW1 9528   7.893   4.750   5.250 -0.1372  1.6702  1.1894
35632SOL    HW2 9529   8.028   4.816   5.229  0.8505 -0.9193 -1.1078
35633SOL     OW 9530   6.978   3.486   4.059 -0.3598  0.3825 -0.4825
35633SOL    HW1 9531   6.894   3.451   4.088  0.7873 -1.0392  1.3214
35633SOL    HW2 9532   7.003   3.549   4.128  1.4176 -1.4587  0.6662
35634SOL     OW 9533   4.544   2.751   3.143 -0.1478  0.2127 -0.4543
35634SOL    HW1 9534   4.581   2.759   3.231 -1.6310 -3.1242  0.6458
35634SOL    HW2 9535   4.621   2.748   3.085  0.9511  0.5877  0.9349
35635SOL     OW 9536   7.565   0.907   5.453  0.4544  0.5737 -0.2981
35635SOL    HW1 9537   7.530   0.912   5.542 -0.7436  0.6507 -0.7579
35635SOL    HW2 9538   7.533   0.986   5.410 -0.2358 -0.1883 -1.2284
35636SOL     OW 9539   4.584   5.207   0.106 -0.3638  0.3808 -0.4822
35636SOL    HW1 9540   4.564   5.277   0.044 -1.5770 -1.8157 -2.7520
35636SOL    HW2 9541   4.593   5.128   0.051  0.3721 -1.3707  1.9797
35637SOL     OW 9542   8.736   3.447   2.606  0.6756 -0.1161  0.4101
35637SOL    HW1 9543   8.743   3.522   2.665  1.1330 -0.8498  1.3087
35637SOL    HW2 9544   8.756   3.483   2.519  1.3935  0.7046  0.8947
35638SOL     OW 9545   1.063   0.724   3.662  0.0791 -0.0339 -0.4018
35638SOL    HW1 9546   1.075   0.631   3.644 -0.3284 -0.0897 -0.3999
35638SOL    HW2 9547   1.138   0.767   3.622 -0.4485 -0.2225 -1.6110
35639SOL     OW 9548   2.467   3.026   1.699  0.1030  0.3866  0.3312
35639SOL    HW1 9549   2.387   3.032   1.647 -1.2315 -0.5825  2.1628
35639SOL    HW2 9550   2.446   2.965   1.769  2.0647  1.0485  1.5952
35640SOL     OW 9551   2.143   6.117   1.462 -0.0181 -0.5981  0.6754
35640SOL    HW1 9552   2.224   6.167   1.446  0.6706 -1.8551  0.0659
35640SOL    HW2 9553   2.119   6.139   1.552  1.3676 -0.6642  1.0916
35641SOL     OW 9554   5.946   3.478   7.218  0.5002 -0.1495 -0.5422
35641SOL    HW1 9555   6.015   3.532   7.256 -1.9587  3.2227 -0.4100
35641SOL    HW2 9556   5.907   3.432   7.293  0.3861  0.6916 -0.0759
35642SOL     OW 9557   6.426   3.153   0.346  0.2977  0.3305 -0.0290
35642SOL    HW1 9558   6.382   3.084   0.296  0.0119 -0.8540  1.7638
35642SOL    HW2 9559   6.368   3.229   0.337 -0.2371 -0.1425 -0.6741
35643SOL     OW 9560   5.752   3.550   6.100 -0.1316 -0.5952  0.2373
35643SOL    HW1 9561   5.665   3.555   6.139 -0.4714 -1.7430 -0.3636
35643SOL    HW2 9562   5.741   3.501   6.019  0.6896  1.1798 -1.0171
35644SOL     OW 9563   8.702   7.476   5.564  0.3616 -0.2709 -0.2795
35644SOL    HW1 9564   8.779   7.530   5.544  1.5666 -2.5530 -2.4598
35644SOL    HW2 9565   8.737   7.405   5.617  0.0290 -1.8258 -2.0529
35645SOL     OW 9566   0.750   0.562   6.341  0.1074 -0.2081 -0.0603
35645SOL    HW1 9567   0.756   0.571   6.436  0.9796  1.2414 -0.2214
35645SOL    HW2 9568   0.832   0.520   6.316  0.4944  0.6690 -0.2923
35646SOL     OW 9569   3.455   3.537   9.810  0.2243 -0.0754 -0.7865
35646SOL    HW1 9570   3.481   3.451   9.844  0.1327  0.6008  1.0880
35646SOL    HW2 9571   3.365   3.525   9.782 -0.0397 -0.4225  0.1742
35647SOL     OW 9572   5.555   4.127   4.235 -0.5910  0.1724  0.0269
35647SOL    HW1 9573   5.592   4.214   4.220 -0.0624  0.1336  0.9880
35647SOL    HW2 9574   5.461   4.138   4.221 -0.6038  1.0339  0.6860
35648SOL     OW 9575   1.903   4.969   3.125  0.1756 -1.3505 -0.3855
35648SOL    HW1 9576   1.824   5.019   3.105 -0.1649 -0.6466  2.3364
35648SOL    HW2 9577   1.874   4.878   3.123 -0.9648 -1.0665  1.3565
35649SOL     OW 9578   6.053   8.358   3.376 -0.7897 -0.4980 -0.3892
35649SOL    HW1 9579   5.986   8.338   3.441 -1.3061 -0.8804 -1.0326
35649SOL    HW2 9580   6.097   8.274   3.360 -1.6022 -0.7100 -1.5723
35650SOL     OW 9581   4.342   0.610   9.670  0.0338 -0.3531 -0.2474
35650SOL    HW1 9582   4.265   0.554   9.670  0.8387 -1.4859 -0.4519
35650SOL    HW2 9583   4.405   0.565   9.614  1.5044 -0.3980  1.3529
35651SOL     OW 9584   3.420   6.372   8.508 -0.1139  0.7518  0.6625
35651SOL    HW1 9585   3.326   6.353   8.506  0.0684 -0.4411 -2.4271
35651SOL    HW2 9586   3.445   6.357   8.599 -2.1877 -3.1520  0.8130
35652SOL     OW 9587   5.649   3.102   6.851  0.1678 -0.2198 -0.6987
35652SOL    HW1 9588   5.695   3.143   6.924 -0.1708 -0.5219 -0.3064
35652SOL    HW2 9589   5.590   3.170   6.819  0.3002 -0.0929 -0.6745
35653SOL     OW 9590   3.854   1.620   1.607 -0.5530  0.1377 -0.1583
35653SOL    HW1 9591   3.912   1.607   1.531  1.0661  1.4039  0.7923
35653SOL    HW2 9592   3.801   1.541   1.610 -1.5108  0.5017 -3.2852
35654SOL     OW 9593   2.666   7.681   0.060 -0.0729  0.2561  0.2836
35654SOL    HW1 9594   2.614   7.605   0.086 -1.3678 -0.0819 -2.9161
35654SOL    HW2 9595   2.743   7.645   0.016  0.2648  0.7970  0.4222
35655SOL     OW 9596   6.003   9.187   7.673  0.1572 -0.1591 -0.1508
35655SOL    HW1 9597   5.996   9.114   7.734  0.8594  1.2007  1.6274
35655SOL    HW2 9598   6.043   9.258   7.724  2.1773  0.6015 -2.5634
35656SOL     OW 9599   0.513   0.610   6.234 -0.0277  0.3287  0.2372
35656SOL    HW1 9600   0.488   0.526   6.196 -0.3834  0.5156  0.0514
35656SOL    HW2 9601   0.600   0.596   6.269  0.0433 -0.0287 -0.0808
35657SOL     OW 9602   5.955   4.646   3.200  0.0665  0.0172 -0.3064
35657SOL    HW1 9603   5.983   4.681   3.285 -2.9572  1.8392  0.0941
35657SOL    HW2 9604   5.980   4.554   3.203  4.0170  0.9111  0.6466
35658SOL     OW 9605   7.233   7.447   2.976 -0.4681 -0.2346  0.0883
35658SOL    HW1 9606   7.208   7.435   2.884 -1.7213 -0.9814  0.5039
35658SOL    HW2 9607   7.151   7.448   3.023  0.1876 -0.4928  1.2797
35659SOL     OW 9608   3.814   9.972   1.810 -0.3977  0.4814  0.0794
35659SOL    HW1 9609   3.793  10.062   1.785 -0.1784  0.7033  0.6728
35659SOL    HW2 9610   3.909   9.967   1.802 -0.5501 -0.1679 -1.4608
35660SOL     OW 9611   7.066   2.382   8.525  0.2219 -0.6136  0.8033
35660SOL    HW1 9612   7.054   2.439   8.449  1.2512 -0.8567  0.4481
35660SOL    HW2 9613   7.011   2.305   8.507 -0.7541  0.0031  1.0396
35661SOL     OW 9614   2.151   2.897   6.074 -0.1458  0.1154 -0.2786
35661SOL    HW1 9615   2.118   2.972   6.024  0.3349 -1.3637 -3.0285
35661SOL    HW2 9616   2.246   2.908   6.074 -0.1073 -0.1958 -0.2304
35662SOL     OW 9617  10.306   1.159   5.985 -0.1901 -0.2044  0.1644
35662SOL    HW1 9618  10.290   1.189   5.895  1.9360 -0.0897 -0.2278
35662SOL    HW2 9619  10.338   1.237   6.031 -1.7290 -0.1370  1.2065
35663SOL     OW 9620   2.735   5.934   7.952  0.3906 -0.3477 -0.0095
35663SOL    HW1 9621   2.727   5.849   7.994 -0.7204  0.1431  0.8305
35663SOL    HW2 9622   2.772   5.991   8.020  1.4906 -0.2203 -0.6817
35664SOL     OW 9623   2.172   2.821   1.731  0.7783 -0.0051 -0.4144
35664SOL    HW1 9624   2.186   2.871   1.651  0.3032 -0.4665 -0.7967
35664SOL    HW2 9625   2.178   2.729   1.703 -0.4122 -0.1907 -0.1254
35665SOL     OW 9626   6.202   5.173   2.897  0.3912 -0.0064 -0.1397
35665SOL    HW1 9627   6.117   5.146   2.860 -0.2676  2.2413 -0.4660
35665SOL    HW2 9628   6.265   5.155   2.827 -0.1872  0.2542 -0.7491
35666SOL     OW 9629   4.546   4.426   1.134  0.2138 -0.3379  0.3108
35666SOL    HW1 9630   4.472   4.380   1.095  0.7258 -0.0526 -1.0541
35666SOL    HW2 9631   4.518   4.446   1.223 -2.0550  1.2731 -0.6658
35667SOL     OW 9632  10.095   7.334   8.017  0.1028 -0.5569 -0.4297
35667SOL    HW1 9633  10.112   7.246   8.050  0.4407 -1.1459 -2.1239
35667SOL    HW2 9634  10.180   7.378   8.023  0.0345 -0.4719 -0.0122
35668SOL     OW 9635  10.233   6.786   8.649  1.3218 -0.4074  0.2965
35668SOL    HW1 9636  10.265   6.868   8.686 -0.4674 -0.4753  2.1579
35668SOL    HW2 9637  10.157   6.812   8.596  0.0318 -0.8951  1.8176
35669SOL     OW 9638   5.594   2.507   2.848  0.1290  0.3098  0.1258
35669SOL    HW1 9639   5.585   2.503   2.753 -0.0887 -0.0821  0.1611
35669SOL    HW2 9640   5.662   2.443   2.868  0.1597  0.3774  0.2377
35670SOL     OW 9641   1.825   6.489   8.296 -0.3046 -0.3479  0.0328
35670SOL    HW1 9642   1.782   6.530   8.221  0.3564  0.2796 -0.0235
35670SOL    HW2 9643   1.833   6.397   8.273 -0.3618 -0.2075 -0.5487
35671SOL     OW 9644   5.211   5.046   4.062  0.0037  0.6189 -0.2072
35671SOL    HW1 9645   5.240   5.000   3.983  0.7671  0.0221  0.4138
35671SOL    HW2 9646   5.150   5.113   4.029 -0.4818 -0.2736 -1.2040
35672SOL     OW 9647   5.301   6.383   9.431 -0.6424 -0.2859  0.3352
35672SOL    HW1 9648   5.211   6.416   9.423 -0.6963 -0.5882 -0.3103
35672SOL    HW2 9649   5.349   6.455   9.473 -0.9686  0.2530 -0.2071
35673SOL     OW 9650   8.882   5.770  10.348 -0.1179 -0.1237 -0.1757
35673SOL    HW1 9651   8.947   5.840  10.354  1.2469 -1.3210 -0.1562
35673SOL    HW2 9652   8.798   5.814  10.345  0.6915  1.4936  0.0099
35674SOL     OW 9653   6.229   3.987   7.997  0.1212 -0.0154 -0.6641
35674SOL    HW1 9654   6.215   3.907   7.945 -0.9254 -0.5592  0.3935
35674SOL    HW2 9655   6.321   3.984   8.022  0.3047 -0.4339 -1.3759
35675SOL     OW 9656  10.163  10.213   8.671 -0.0432 -0.4641 -0.6364
35675SOL    HW1 9657  10.083  10.168   8.645  0.1996 -0.9726 -0.5013
35675SOL    HW2 9658  10.171  10.195   8.764 -0.9998  1.4801 -0.1010
35676SOL     OW 9659   5.199   5.984  10.006 -0.1690 -0.2507  0.5349
35676SOL    HW1 9660   5.132   5.916  10.011  0.5354 -0.9903  0.1753
35676SOL    HW2 9661   5.218   6.006  10.097 -1.4418  0.5299  0.6345
35677SOL     OW 9662   1.722   4.413   5.463 -0.2557 -0.4453  0.7839
35677SOL    HW1 9663   1.814   4.437   5.451 -0.1363 -2.1456 -3.3912
35677SOL    HW2 9664   1.707   4.423   5.557  3.9158  0.6998  1.5500
35678SOL     OW 9665   1.192   0.447   9.306 -0.4299 -0.6719  0.0002
35678SOL    HW1 9666   1.234   0.373   9.350  0.1927 -0.9339 -1.0216
35678SOL    HW2 9667   1.245   0.463   9.229 -0.6777  0.7133  0.0885
35679SOL     OW 9668   3.817   1.101   4.198 -0.2914 -0.0470  0.1960
35679SOL    HW1 9669   3.869   1.086   4.119 -1.9999  0.6341 -1.1279
35679SOL    HW2 9670   3.821   1.196   4.212 -0.3301 -0.1134  0.6705
35680SOL     OW 9671   9.529   4.350   5.360  0.0581  0.1163  0.0157
35680SOL    HW1 9672   9.537   4.295   5.438  0.3004  1.0405  0.6607
35680SOL    HW2 9673   9.562   4.436   5.388  1.0750  0.2060 -1.3774
35681SOL     OW 9674   8.346   6.495   8.830 -0.0814  0.2018  0.4096
35681SOL    HW1 9675   8.284   6.539   8.772  1.3248  0.2907 -1.1101
35681SOL    HW2 9676   8.397   6.439   8.771  1.3246  0.2095  1.5805
35682SOL     OW 9677   6.854   5.619   6.711  0.1408  0.1260 -0.3471
35682SOL    HW1 9678   6.772   5.587   6.674  0.4128  0.3807 -1.1840
35682SOL    HW2 9679   6.831   5.643   6.801 -0.2316 -1.6794  0.0806
35683SOL     OW 9680   9.267   6.634   9.246 -0.0109  0.2849  0.4841
35683SOL    HW1 9681   9.282   6.610   9.337  1.2261  2.8184  1.0270
35683SOL    HW2 9682   9.350   6.616   9.202  0.0084  0.8395  0.2822
35684SOL     OW 9683   5.852   8.402   3.958  0.2502  0.6583 -0.8279
35684SOL    HW1 9684   5.883   8.390   4.048  0.4125 -1.5065 -1.1236
35684SOL    HW2 9685   5.819   8.492   3.956  0.1762  0.7388  1.4182
35685SOL     OW 9686   0.980   4.602   8.230  0.2366  0.0034 -0.2200
35685SOL    HW1 9687   0.993   4.542   8.303 -0.9891  0.3495  0.3074
35685SOL    HW2 9688   1.051   4.666   8.239  0.2487 -0.1068  0.5097
35686SOL     OW 9689   0.661   0.674   1.905 -0.1900  0.3148  0.2552
35686SOL    HW1 9690   0.708   0.620   1.841 -0.0756  1.3969 -0.5998
35686SOL    HW2 9691   0.585   0.620   1.929  0.6704 -0.8235  0.5283
35687SOL     OW 9692   3.062   3.159   4.704  0.5215  0.8641  0.5829
35687SOL    HW1 9693   3.037   3.180   4.614 -2.0424  1.9048  1.4669
35687SOL    HW2 9694   3.042   3.066   4.712 -2.1629  1.3927  0.8834
35688SOL     OW 9695   2.018   8.290   2.623 -0.3185 -0.1344  1.0972
35688SOL    HW1 9696   2.020   8.345   2.544  0.1905 -0.5652  0.8044
35688SOL    HW2 9697   2.107   8.293   2.656 -0.0933 -1.3966  0.6473
35689SOL     OW 9698   2.244   8.144   0.001  0.0296 -0.0123 -0.2256
35689SOL    HW1 9699   2.252   8.144  -0.095  1.5534 -0.8440 -0.1301
35689SOL    HW2 9700   2.257   8.235   0.026 -1.9184  0.4939 -0.8786
35690SOL     OW 9701   7.761   0.883   2.351  0.8375 -0.4537  0.9392
35690SOL    HW1 9702   7.849   0.921   2.355  1.2406 -1.1250 -0.8299
35690SOL    HW2 9703   7.766   0.819   2.281 -1.0293 -0.6355  0.9414
35691SOL     OW 9704   9.417   1.855   7.364 -0.0658 -0.4198 -0.7746
35691SOL    HW1 9705   9.483   1.911   7.323  0.9890 -0.4714  0.7598
35691SOL    HW2 9706   9.360   1.829   7.292 -1.1534  3.2919 -1.4366
35692SOL     OW 9707   5.455   4.347   9.943 -0.2300 -0.6578  0.2269
35692SOL    HW1 9708   5.437   4.359  10.036  0.3476  1.9808  0.0670
35692SOL    HW2 9709   5.412   4.421   9.900 -0.6654 -1.9264 -1.6656
35693SOL     OW 9710   7.529   8.854   1.866  0.0147 -0.4692 -0.6814
35693SOL    HW1 9711   7.526   8.794   1.940 -0.1602  0.1641 -0.1720
35693SOL    HW2 9712   7.465   8.922   1.887  1.2398  0.6828 -0.5623
35694SOL     OW 9713   9.102   7.162   4.564 -0.5457 -0.0301  0.1402
35694SOL    HW1 9714   9.178   7.211   4.596 -0.5202 -0.2183  0.3672
35694SOL    HW2 9715   9.057   7.224   4.506  1.4980 -0.9490 -2.6046
35695SOL     OW 9716   2.282   3.404   8.807 -0.1734  0.1473  0.3573
35695SOL    HW1 9717   2.366   3.423   8.847 -0.0358  0.1742  0.0567
35695SOL    HW2 9718   2.303   3.358   8.726 -0.3501  1.8822 -0.7294
35696SOL     OW 9719   7.507   7.655   3.369  0.2691 -0.1228  0.3627
35696SOL    HW1 9720   7.451   7.580   3.350 -0.4662  0.5012  0.0422
35696SOL    HW2 9721   7.447   7.723   3.399  0.9695  0.2201  1.0332
35697SOL     OW 9722   4.551   9.329   7.685 -0.3301  0.0835 -0.3631
35697SOL    HW1 9723   4.605   9.304   7.610 -1.6378  2.2566 -2.1808
35697SOL    HW2 9724   4.569   9.423   7.696 -2.0768  0.3629  0.3554
35698SOL     OW 9725   5.401   6.801   9.344 -0.0191  0.9132 -0.2509
35698SOL    HW1 9726   5.454   6.731   9.305 -3.1360 -2.4396  0.9487
35698SOL    HW2 9727   5.454   6.834   9.417  1.0196 -1.2879  0.0765
35699SOL     OW 9728   5.325   3.884   4.295 -0.3153  0.0525 -0.3403
35699SOL    HW1 9729   5.302   3.814   4.233 -0.4606 -0.2496  0.0426
35699SOL    HW2 9730   5.390   3.844   4.352  1.2371  0.9130 -1.4306
35700SOL     OW 9731   6.212  10.167   5.802 -0.0302  0.0829  0.5584
35700SOL    HW1 9732   6.186  10.201   5.716  1.1932  1.2365  0.6062
35700SOL    HW2 9733   6.277  10.100   5.782  0.6699  0.7402  0.5783
35701SOL     OW 9734   2.784   7.056   6.869  0.1813 -0.2095 -0.1522
35701SOL    HW1 9735   2.769   7.025   6.958  1.7393  1.2252  0.6727
35701SOL    HW2 9736   2.710   7.114   6.851 -0.4649 -0.9902 -0.0429
35702SOL     OW 9737   8.099   1.663   0.049  0.1863  0.5385 -0.7641
35702SOL    HW1 9738   8.040   1.711   0.108 -0.3948 -1.9131  0.7963
35702SOL    HW2 9739   8.185   1.702   0.064 -0.3507  1.4797 -0.0092
35703SOL     OW 9740   0.236   0.411   8.517 -0.4336 -0.2757 -0.3403
35703SOL    HW1 9741   0.247   0.321   8.548  1.3160 -0.1696 -0.5371
35703SOL    HW2 9742   0.193   0.456   8.590 -2.2204 -1.4623 -0.6123
35704SOL     OW 9743   4.515   3.667   8.942 -0.0640  0.5507 -0.3466
35704SOL    HW1 9744   4.467   3.602   8.892 -1.1294  0.1341  1.1348
35704SOL    HW2 9745   4.572   3.616   9.000 -1.2017  0.8764  1.1156
35705SOL     OW 9746   2.695   9.755   1.465  0.0786  0.3989  0.1290
35705SOL    HW1 9747   2.623   9.696   1.446  0.2826 -0.2636  1.3037
35705SOL    HW2 9748   2.765   9.728   1.406 -0.9446  1.7777 -1.8377
35706SOL     OW 9749   9.179   5.706   2.690 -0.1200 -0.1099  0.2839
35706SOL    HW1 9750   9.209   5.733   2.603 -2.7479  1.2039 -0.3017
35706SOL    HW2 9751   9.194   5.611   2.691  1.5430  0.0953 -0.9050
35707SOL     OW 9752   2.582   6.060   9.998  0.2688 -0.2860 -0.0421
35707SOL    HW1 9753   2.574   6.134  10.059 -0.7067  0.5743 -1.1883
35707SOL    HW2 9754   2.631   6.095   9.924 -0.3712 -0.7403 -0.6827
35708SOL     OW 9755   6.081   2.055   7.036 -0.2800 -0.3068 -0.3886
35708SOL    HW1 9756   6.067   2.085   7.126 -0.8048 -0.9574 -0.2511
35708SOL    HW2 9757   6.176   2.041   7.030  0.3907  3.4520 -1.1161
35709SOL     OW 9758   6.574   8.245   6.748 -0.8727  0.3447 -0.0020
35709SOL    HW1 9759   6.508   8.219   6.812  1.4231 -0.6057  2.1821
35709SOL    HW2 9760   6.608   8.162   6.714  0.9689  0.6714  0.9256
35710SOL     OW 9761   9.211   5.015   5.643  0.0068 -0.2837  0.5680
35710SOL    HW1 9762   9.158   4.978   5.573 -0.5951  1.0164  0.3037
35710SOL    HW2 9763   9.256   5.089   5.602  0.1897  0.0690  1.3845
35711SOL     OW 9764   3.323   5.913   5.785  0.8905 -0.1973  0.1324
35711SOL    HW1 9765   3.313   5.848   5.854 -0.9672  0.3678  0.4524
35711SOL    HW2 9766   3.237   5.918   5.744  0.9499  2.0964  0.1596
35712SOL     OW 9767   2.259   7.285   7.278  0.2024 -0.2309  1.1130
35712SOL    HW1 9768   2.348   7.315   7.296  0.7240 -0.0874 -1.4232
35712SOL    HW2 9769   2.251   7.204   7.328  1.0199  0.7120  2.9109
35713SOL     OW 9770   3.963   1.808   8.513  0.0657  0.3946  0.0157
35713SOL    HW1 9771   3.915   1.807   8.430 -0.1433  1.7865  0.1004
35713SOL    HW2 9772   3.910   1.864   8.570 -0.8731 -2.0807  1.7797
35714SOL     OW 9773   8.637   4.485   9.992  0.0733  0.0592 -0.0448
35714SOL    HW1 9774   8.727   4.495   9.960  0.1721  0.9009  0.4578
35714SOL    HW2 9775   8.645   4.493  10.087 -0.3878 -1.0635  0.0967
35715SOL     OW 9776   4.395   4.102   8.054 -0.4696  0.4389 -0.4067
35715SOL    HW1 9777   4.404   4.059   8.139  1.2139 -0.2162 -0.8772
35715SOL    HW2 9778   4.483   4.100   8.016 -1.2869  0.1457 -2.4502
35716SOL     OW 9779   8.062   2.113   8.592  0.3257  0.6166 -0.0153
35716SOL    HW1 9780   8.033   2.132   8.681 -1.2088  1.2111 -0.6070
35716SOL    HW2 9781   8.106   2.028   8.599  0.1305  0.5952  1.2793
35717SOL     OW 9782   4.124   1.606   9.521  0.0288 -0.2265  0.1187
35717SOL    HW1 9783   4.089   1.613   9.432 -0.2129  0.9646  0.2879
35717SOL    HW2 9784   4.205   1.557   9.511  0.0023 -0.1079 -0.7550
35718SOL     OW 9785   2.807   5.588   8.550  0.6331  0.3949  0.3011
35718SOL    HW1 9786   2.824   5.679   8.573  1.4894  0.2845  0.1519
35718SOL    HW2 9787   2.819   5.539   8.631  2.4358  0.1562 -0.0589
35719SOL     OW 9788   8.636   4.643   6.234 -0.4975 -0.1071 -0.1798
35719SOL    HW1 9789   8.678   4.728   6.224 -1.3052  0.4400  0.8692
35719SOL    HW2 9790   8.693   4.594   6.292 -0.0524 -0.2806 -0.7530
35720SOL     OW 9791   9.030   0.831   2.568 -0.3955  0.2121 -0.0029
35720SOL    HW1 9792   9.047   0.789   2.484  2.0872  1.4458 -0.2060
35720SOL    HW2 9793   9.063   0.920   2.557  1.3195  0.0210  2.6905
35721SOL     OW 9794   8.299   8.034   2.536  0.6817 -0.6135  0.0252
35721SOL    HW1 9795   8.336   8.000   2.455  0.3476 -1.1486  0.0898
35721SOL    HW2 9796   8.204   8.036   2.520  0.7500  1.5690 -0.4667
35722SOL     OW 9797   6.560   3.772   1.791 -0.0677 -0.6957  0.3399
35722SOL    HW1 9798   6.579   3.777   1.697 -2.9501 -2.8679 -0.4971
35722SOL    HW2 9799   6.622   3.706   1.824  0.2204 -0.7484 -0.2838
35723SOL     OW 9800   7.596   4.706   9.296 -0.1993 -0.1272  0.3049
35723SOL    HW1 9801   7.670   4.708   9.236 -2.1156 -0.2232 -2.2469
35723SOL    HW2 9802   7.581   4.613   9.313  0.0524 -0.1221  0.5646
35724SOL     OW 9803   8.508  10.230   2.749  0.3819  0.3708 -0.4418
35724SOL    HW1 9804   8.529  10.175   2.824 -1.2263  0.5277  0.1583
35724SOL    HW2 9805   8.558  10.311   2.763  0.7383  0.0728  0.0131
35725SOL     OW 9806   2.352   5.097   6.379 -0.1531 -0.0488  0.2235
35725SOL    HW1 9807   2.419   5.156   6.414  0.9331 -0.8437 -0.4622
35725SOL    HW2 9808   2.400   5.018   6.353 -1.4929 -1.0298  0.6061
35726SOL     OW 9809   5.547   9.341   7.593  0.5830 -0.1943 -0.3393
35726SOL    HW1 9810   5.487   9.393   7.539 -1.1249 -0.8424  0.8393
35726SOL    HW2 9811   5.510   9.253   7.591  1.0907 -0.4561  1.0202
35727SOL     OW 9812   1.530   0.771   7.330 -0.1905 -0.2787  0.4356
35727SOL    HW1 9813   1.604   0.738   7.380  1.1106  0.1158 -1.1386
35727SOL    HW2 9814   1.553   0.753   7.239 -2.6376 -1.3289 -0.0654
35728SOL     OW 9815   5.014   3.993   7.002  0.1800 -0.3078  0.0962
35728SOL    HW1 9816   4.931   4.040   7.011  0.0386 -0.7590  1.4408
35728SOL    HW2 9817   4.998   3.927   6.935 -0.7174 -0.7162  0.6896
35729SOL     OW 9818   7.863   1.019   9.891 -0.2390  0.0674  0.1049
35729SOL    HW1 9819   7.896   0.943   9.939  0.1782 -0.1660 -0.5411
35729SOL    HW2 9820   7.936   1.047   9.836 -0.3374  1.0356  0.4385
35730SOL     OW 9821   3.363   3.658   3.287  0.3291 -0.3296 -0.0824
35730SOL    HW1 9822   3.451   3.624   3.274  0.5418  0.5312 -1.0182
35730SOL    HW2 9823   3.305   3.590   3.254  0.7023 -0.2587 -0.9036
35731SOL     OW 9824   0.169  10.132   7.245 -0.4112  0.2410 -0.6485
35731SOL    HW1 9825   0.220  10.101   7.320 -2.1865 -0.0554  0.4769
35731SOL    HW2 9826   0.173  10.061   7.182  0.7810  0.3390 -0.7134
35732SOL     OW 9827   0.628   6.459   9.874 -0.0536 -0.0349 -0.4149
35732SOL    HW1 9828   0.687   6.476   9.947 -0.5134 -0.6616  0.1105
35732SOL    HW2 9829   0.540   6.459   9.912 -0.2463 -1.2017 -0.7927
35733SOL     OW 9830   8.503   9.104   0.326 -0.0430  0.1836  0.6267
35733SOL    HW1 9831   8.478   9.128   0.237  2.1243 -1.5853 -0.5518
35733SOL    HW2 9832   8.555   9.178   0.357 -0.2630  0.5258  0.1971
35734SOL     OW 9833   3.101   5.220   7.909 -0.5292 -0.3325  0.5922
35734SOL    HW1 9834   3.023   5.274   7.923  0.3670  1.6208 -1.3376
35734SOL    HW2 9835   3.068   5.137   7.877 -1.8528  0.6312 -0.6795
35735SOL     OW 9836   4.185   6.231   6.399 -0.8257  0.1945  0.9456
35735SOL    HW1 9837   4.114   6.291   6.374 -1.6037 -1.2526 -0.5289
35735SOL    HW2 9838   4.227   6.208   6.316 -0.0890 -0.7212  1.5588
35736SOL     OW 9839   0.406   3.643   1.136  0.1068  0.5507  0.4939
35736SOL    HW1 9840   0.489   3.652   1.183  1.1740 -1.9461 -0.7655
35736SOL    HW2 9841   0.341   3.628   1.205  0.9810  0.6929  1.3723
35737SOL     OW 9842   9.308   9.381   6.492 -0.1030  0.1274  0.0589
35737SOL    HW1 9843   9.303   9.453   6.556 -0.5554  2.0381 -1.9960
35737SOL    HW2 9844   9.222   9.381   6.451  0.4437 -0.5009 -1.1088
35738SOL     OW 9845   7.200   5.010   7.877 -0.1619 -0.1795 -0.2217
35738SOL    HW1 9846   7.121   5.043   7.919 -0.7448 -1.0630 -0.6215
35738SOL    HW2 9847   7.264   5.005   7.948 -0.9399 -1.0140  0.4377
35739SOL     OW 9848   6.152   0.884   8.566  0.4882  1.2946  0.3574
35739SOL    HW1 9849   6.091   0.909   8.496  1.9470  1.1436 -1.0383
35739SOL    HW2 9850   6.197   0.966   8.589 -0.7386  1.5570  1.9283
35740SOL     OW 9851   2.827   5.429   9.048 -0.6946  0.7150  0.6659
35740SOL    HW1 9852   2.788   5.356   9.096  0.9668  0.8574  2.3633
35740SOL    HW2 9853   2.894   5.389   8.994  0.3502  0.9359  1.7418
35741SOL     OW 9854   3.313   5.794   1.862  0.0293 -0.2139 -0.2179
35741SOL    HW1 9855   3.323   5.728   1.794  0.8577 -0.8046  0.4643
35741SOL    HW2 9856   3.319   5.878   1.815 -0.7928 -0.6137 -1.0497
35742SOL     OW 9857   4.012   7.179   9.444 -0.4641  0.6352 -0.4921
35742SOL    HW1 9858   3.943   7.193   9.380 -0.6324  1.2022 -0.1937
35742SOL    HW2 9859   4.093   7.195   9.396 -0.5411  0.1476 -0.7951
35743SOL     OW 9860   9.048   9.243   3.115 -0.6914 -0.4855 -0.0300
35743SOL    HW1 9861   9.133   9.220   3.076 -1.9091 -1.7158 -2.1126
35743SOL    HW2 9862   8.991   9.260   3.041 -2.4657 -0.3383  1.3144
35744SOL     OW 9863   2.105   6.302   8.079  0.1044 -0.3104  0.1704
35744SOL    HW1 9864   2.196   6.331   8.074  0.5385 -1.5039  0.7633
35744SOL    HW2 9865   2.092   6.281   8.171 -0.5224 -0.8780 -0.0384
35745SOL     OW 9866   9.081   7.503   1.300 -0.3068 -0.1294 -0.1032
35745SOL    HW1 9867   9.160   7.450   1.290 -1.3755 -1.6609 -0.8089
35745SOL    HW2 9868   9.024   7.475   1.229 -1.3912  1.1237  0.2405
35746SOL     OW 9869   4.307   5.451   3.221  0.3394 -0.3628  0.3827
35746SOL    HW1 9870   4.294   5.442   3.126  2.3965 -2.6500  0.2108
35746SOL    HW2 9871   4.321   5.544   3.235  1.0441 -0.0936 -1.7308
35747SOL     OW 9872   2.235   1.570   1.839  0.3904 -0.5351 -0.2159
35747SOL    HW1 9873   2.160   1.628   1.857  0.1852 -0.7138 -0.4808
35747SOL    HW2 9874   2.276   1.557   1.924  0.4639  0.0376 -0.1565
35748SOL     OW 9875   6.579   6.923   5.854 -0.0804  0.3269  1.1353
35748SOL    HW1 9876   6.491   6.887   5.848 -0.4360  1.0585  1.8666
35748SOL    HW2 9877   6.567   7.018   5.848  0.9034  0.3605 -1.4580
35749SOL     OW 9878   4.451   7.683   3.772 -0.1313  0.4149 -0.4269
35749SOL    HW1 9879   4.539   7.695   3.736 -0.2976  0.7700 -0.7270
35749SOL    HW2 9880   4.426   7.770   3.803  0.2242  0.0067  1.0725
35750SOL     OW 9881   6.615   6.610   6.934 -0.2892 -0.2149  0.3704
35750SOL    HW1 9882   6.521   6.599   6.921 -0.1927 -0.0509 -0.5407
35750SOL    HW2 9883   6.626   6.614   7.029 -1.1974 -0.2443  0.4847
35751SOL     OW 9884   2.151   2.486   0.860 -0.3873  0.8281 -0.3209
35751SOL    HW1 9885   2.090   2.542   0.908 -1.3823 -0.6647  0.2420
35751SOL    HW2 9886   2.157   2.525   0.773 -3.4431  0.1903 -0.9486
35752SOL     OW 9887   3.709   4.149   2.200  0.5214 -0.1151 -0.1430
35752SOL    HW1 9888   3.665   4.064   2.198  0.9293 -0.3688  0.7532
35752SOL    HW2 9889   3.802   4.127   2.209  0.6987  0.4240 -0.6302
35753SOL     OW 9890   1.105   4.238   3.608  0.8134  0.3033  0.2405
35753SOL    HW1 9891   1.069   4.192   3.684  1.5273 -0.0662  0.3631
35753SOL    HW2 9892   1.166   4.302   3.645 -0.7105  1.9087  0.1262
35754SOL     OW 9893   5.585   1.888   7.906  0.2473  0.2346 -0.6641
35754SOL    HW1 9894   5.503   1.893   7.855 -1.4545 -0.0281  1.8811
35754SOL    HW2 9895   5.584   1.801   7.945  1.4356  0.4737 -0.0634
35755SOL     OW 9896   6.417   8.136   5.804  0.1951 -0.6401  0.1158
35755SOL    HW1 9897   6.328   8.145   5.839  0.4777 -0.8077  0.8864
35755SOL    HW2 9898   6.463   8.213   5.835  0.1909 -0.3011 -0.7023
35756SOL     OW 9899   1.379   5.686   0.770  0.0308 -0.3205  0.5010
35756SOL    HW1 9900   1.396   5.592   0.772  0.9257 -0.2679 -1.8506
35756SOL    HW2 9901   1.464   5.727   0.758 -0.6021  0.5772 -1.3775
35757SOL     OW 9902   6.568   3.507   9.840  0.5702 -0.4571  0.3633
35757SOL    HW1 9903   6.641   3.558   9.874 -1.2385  2.0484  0.7353
35757SOL    HW2 9904   6.524   3.565   9.778 -0.0571 -2.5663 -1.2841
35758SOL     OW 9905   2.359   4.749   7.906  0.0397  0.5189  0.7511
35758SOL    HW1 9906   2.316   4.688   7.965 -1.9917  0.3389 -0.7978
35758SOL    HW2 9907   2.445   4.765   7.945  0.6349 -3.2144  1.2864
35759SOL     OW 9908   9.422   1.587   3.107 -0.3694 -0.2408 -0.0756
35759SOL    HW1 9909   9.468   1.664   3.138 -0.2333  0.0459 -0.9833
35759SOL    HW2 9910   9.490   1.521   3.094  0.0469  0.5908 -2.7223
35760SOL     OW 9911   7.140   4.499   3.441  0.2304  0.1700 -0.0398
35760SOL    HW1 9912   7.141   4.568   3.509 -0.7823  1.1102 -0.9356
35760SOL    HW2 9913   7.089   4.537   3.370 -0.0985 -1.4251 -0.6879
35761SOL     OW 9914   3.112   5.411   5.713 -0.3718  0.2944 -0.4338
35761SOL    HW1 9915   3.115   5.478   5.782 -0.8149 -0.0749 -0.0509
35761SOL    HW2 9916   3.025   5.421   5.675  0.3848  1.4869 -1.9450
35762SOL     OW 9917   1.293   1.865   0.616 -0.1596  0.2708 -0.2534
35762SOL    HW1 9918   1.211   1.906   0.588 -1.3738 -1.2919  0.8018
35762SOL    HW2 9919   1.287   1.863   0.712  2.1481  2.0938  0.0045
35763SOL     OW 9920   9.624   4.317   1.200 -0.5473 -0.3725  0.5859
35763SOL    HW1 9921   9.704   4.347   1.244 -0.9179  1.3436  0.1668
35763SOL    HW2 9922   9.646   4.317   1.107 -1.5481  2.0105  0.2817
35764SOL     OW 9923   7.528   1.763   4.565  0.3686 -0.1502 -0.0413
35764SOL    HW1 9924   7.546   1.673   4.592  1.6066  0.5305  1.5321
35764SOL    HW2 9925   7.570   1.817   4.631 -1.2621  1.6090 -0.3629
35765SOL     OW 9926   2.001   1.609   7.861  0.7575  0.0192  0.3922
35765SOL    HW1 9927   2.000   1.572   7.773 -1.0887  2.2417 -0.6189
35765SOL    HW2 9928   2.061   1.684   7.854 -0.7360  1.2586  0.5015
35766SOL     OW 9929   2.340   8.629   0.782 -1.0863 -0.4884  0.0082
35766SOL    HW1 9930   2.301   8.597   0.701 -1.4596  0.3901 -0.1631
35766SOL    HW2 9931   2.270   8.621   0.847 -1.7660  1.5525 -0.4056
35767SOL     OW 9932   5.605   6.602   9.208 -0.2823  0.3650  0.4057
35767SOL    HW1 9933   5.670   6.580   9.275 -1.3547  1.4582  1.8598
35767SOL    HW2 9934   5.538   6.534   9.217  0.1614 -0.2152 -0.4569
35768SOL     OW 9935   8.385   7.342   6.377 -0.3237 -0.1417  0.6781
35768SOL    HW1 9936   8.349   7.270   6.428  1.4021 -1.6171 -0.0799
35768SOL    HW2 9937   8.414   7.405   6.443 -1.7348 -0.1667  1.3579
35769SOL     OW 9938   4.396   5.232   2.807  0.0472 -1.1990  0.6999
35769SOL    HW1 9939   4.427   5.210   2.895  0.3295 -2.4307  0.3195
35769SOL    HW2 9940   4.451   5.179   2.748 -0.6456 -0.9835 -0.1681
35770SOL     OW 9941   0.523   6.821   9.713  0.2747  0.1779 -0.1179
35770SOL    HW1 9942   0.485   6.765   9.645  1.6453 -0.7515 -0.1555
35770SOL    HW2 9943   0.605   6.853   9.675 -0.3942  2.1068 -0.0239
35771SOL     OW 9944   7.415   5.702   6.572  0.4048 -0.0690  0.0865
35771SOL    HW1 9945   7.339   5.757   6.591 -0.4751 -1.1342 -0.3087
35771SOL    HW2 9946   7.482   5.764   6.543 -0.6896  0.7711 -0.7173
35772SOL     OW 9947   8.944   0.858   8.777  0.1688  0.7096  0.2546
35772SOL    HW1 9948   8.948   0.813   8.861  0.5279  1.2419  0.5297
35772SOL    HW2 9949   8.931   0.789   8.713  1.3748  0.1369  0.5976
35773NA      NA 9950   9.830   3.925   8.134 -0.3946  0.4072 -0.2014
35774NA      NA 9951   3.173   6.161   9.461 -0.3130  0.7172  0.5064
35775NA      NA 9952   9.176   2.708   6.527 -0.4712  0.0815  0.1154
35776NA      NA 9953   9.641   1.113   6.852  0.0127 -0.8305  0.0139
35777NA      NA 9954   2.414   1.445   9.685 -0.4085  0.5584  0.0187
35778NA      NA 9955   5.119   4.149   9.235 -0.2838  0.3961 -0.0865
35779NA      NA 9956  10.343   5.795   7.628 -0.5269 -0.0756  0.9854
35780NA      NA 9957   6.681   8.859   6.571 -0.2054  0.0328  0.2819
35781NA      NA 9958   5.653   9.608   3.362 -0.0195  0.1559 -0.3813
35782NA      NA 9959   1.645   0.024   7.131  0.3514 -0.0234  0.0040
35783NA      NA 9960   3.320   7.561   9.084  0.6304  0.3078 -0.0129
35784NA      NA 9961   3.861   0.042   1.553 -0.0291 -0.2556 -0.1397
35785NA      NA 9962   7.004   3.814   4.768  0.0056 -0.4476 -0.6491
35786NA      NA 9963   4.422   8.833   8.320  0.0051  0.0733  0.0262
35787NA      NA 9964  10.002   1.703   0.867  0.4269  0.1044  0.5488
35788NA      NA 9965   7.649   4.465   6.721  0.1111 -0.3156 -0.4636
35789NA      NA 9966   2.376   2.847   3.147  0.1305 -0.1396 -0.2050
35790NA      NA 9967   4.845   5.898   4.162 -0.1162 -0.2106  0.5263
35791NA      NA 9968   6.140   1.353   0.063 -0.0164 -0.1335 -0.1456
35792NA      NA 9969   7.817   6.258  10.076  0.1119  0.0312 -0.3319
35793NA      NA 9970   7.398   2.183   8.894  0.0825  0.0660  0.4910
35794NA      NA 9971   5.765   9.366   4.373 -0.3210 -0.0256  0.1343
35795NA      NA 9972   7.191   7.137   7.918  0.1048 -0.1993 -0.3165
35796NA      NA 9973   2.354   8.599   9.800  0.5234 -0.0583  0.5226
35797NA      NA 9974   6.078   4.157   2.103  0.0012  0.1584 -0.2251
35798NA      NA 9975   9.678   7.923   9.537  0.3277  0.2982  0.3788
35799NA      NA 9976   3.026   5.344   3.098 -0.2873  0.2851 -0.2742
35800NA      NA 9977   8.315   6.335   9.795 -0.2359  0.3607  0.1128
35801NA      NA 9978   9.559   4.145   4.283 -0.4790 -0.0822 -0.0872
35802NA      NA 9979   7.427   3.885   2.810 -0.9382 -0.0468  0.1666
35803NA      NA 9980   6.836   0.379   9.942  0.0292  0.1389 -0.1686
35804NA      NA 9981   7.159   0.766   2.373  0.2848  0.2757 -0.2238
35805NA      NA 9982   5.824   0.508   6.454  0.6440 -0.2303 -0.3806
35806NA      NA 9983   2.038   5.464   8.223 -0.3360 -0.0996  0.4420
35807NA      NA 9984   3.704   8.265   0.353 -0.4420 -0.1361 -0.1578
35808NA      NA 9985   0.963   4.008   1.500  0.3271 -0.0503  0.2302
35809NA      NA 9986  10.304   4.012   7.502 -0.0686  0.4349  0.1867
35810NA      NA 9987   4.583   6.515   8.216 -0.4320 -0.4637  0.0067
35811NA      NA 9988   8.388   1.753   7.009 -0.0294 -0.0237  0.1502
35812NA      NA 9989   7.351   5.089   4.931  0.6392 -0.3701 -0.5134
35813NA      NA 9990   6.139   4.356   3.311  0.1260  0.1038 -0.2966
35814NA      NA 9991   0.613   5.198   6.569 -0.5819 -0.0946  0.1949
35815NA      NA 9992   3.211   8.657   2.656  0.0262 -0.7405 -0.2293
35816NA      NA 9993   4.352   2.538   0.923 -0.4751  0.3741 -0.4773
35817NA      NA 9994   1.626   2.875   4.153  0.1507 -0.0754  0.2227
35818NA      NA 9995   9.818   8.718  10.300  0.4556 -0.0842  0.1998
35819NA      NA 9996   3.120   4.405   5.322  0.2442 -0.4542  0.4485
35820NA      NA 9997   7.933   6.602   1.335 -0.2771 -0.3234  0.3011
35821NA      NA 9998   4.422   1.168   1.690  0.3881 -0.1911  0.3474
35822NA      NA 9999   3.922   2.426   9.725 -0.1169 -0.4329 -0.4569
35823NA      NA10000   0.140   6.314   0.446  0.1967 -0.6055  0.1934
35824NA      NA10001   5.952   6.464   0.842  0.7259  0.4470  0.2088
35825NA      NA10002   1.175   9.105   8.690 -0.3601 -0.3261  0.1344
35826NA      NA10003   0.219   8.907   1.856  0.1676 -0.0319 -0.1823
35827NA      NA10004   2.353   8.023   2.367 -0.0956 -0.6389  0.0248
35828NA      NA10005  10.350   4.174   8.124 -0.0770  0.1117  0.1356
35829NA      NA10006   7.396   5.408   0.689  0.0322 -0.3229  0.0925
35830NA      NA10007   6.038   6.220   7.095  0.0200  0.0228  0.7065
35831NA      NA10008   4.518   7.765   5.910 -0.4002  0.5970  0.4402
35832NA      NA10009   7.935  10.344  10.289 -0.0814 -0.2051  0.3139
35833NA      NA10010   7.003  10.108   1.158 -0.3659  0.2596  0.0668
35834NA      NA10011   2.685   0.830   0.094 -0.4299 -0.2738  0.3318
35835NA      NA10012   5.987   7.374   0.461 -0.4612  0.2908 -0.1509
35836NA      NA10013   9.884   6.223   8.213  0.4214  0.2739  0.2197
35837NA      NA10014   2.220   6.998   0.512  0.0629 -0.2658 -0.1699
35838NA      NA10015   8.177   1.244   0.002 -0.9955 -0.1834  0.2243
35839NA      NA10016   9.144   9.378   0.890  0.5962 -0.4678  0.5365
35840NA      NA10017  10.289   1.027   5.407  0.2431  0.5257 -0.3095
35841NA      NA10018   6.030   4.706   1.458  0.2346  0.3787 -0.1475
35842NA      NA10019   3.828   3.902   3.478 -0.6764  0.1554 -0.2392
35843NA      NA10020   1.114   8.309   2.572  0.6234 -0.5285  0.0949
35844NA      NA10021   3.327   4.973   8.223 -0.1213  0.7624  0.0062
35845NA      NA10022   4.481   5.680   1.385 -0.0344  0.0447  0.2372
35846NA      NA10023   4.266   0.738   0.933  0.3406  0.1154 -0.0982
35847NA      NA10024   8.307   7.600   7.621 -0.3468 -0.0395  0.0197
35848NA      NA10025   2.708   7.017   1.243  0.0606  0.0723 -0.2477
35849NA      NA10026   4.041   5.550   8.172 -0.1079  0.1399  0.3028
35850NA      NA10027   5.542   0.188   3.206 -0.4044  0.4413  0.2360
35851NA      NA10028   8.403   9.509   7.825  0.3152  0.1963 -0.2205
35852NA      NA10029   9.839   5.596  10.128  0.3498  0.2779  0.0826
35853NA      NA10030   8.573   2.209   9.221 -0.7259  0.7163 -0.2574
35854NA      NA10031   6.129   3.009   7.064 -0.3736 -0.1769 -0.0648
35855NA      NA10032   2.864   8.330   3.594  0.3866  0.2057 -0.1577
35856NA      NA10033   4.528   5.537   2.276 -0.0995 -0.0666 -0.2039
35857NA      NA10034   1.016   0.537   9.365 -0.5436  0.2994  0.0613
35858NA      NA10035   4.148   2.888   8.349  0.1365 -0.3378  0.0646
35859NA      NA10036   8.615   6.674   2.686  0.2994  0.0446  0.1198
35860NA      NA10037   6.768   7.113   4.809 -0.3365  0.2353  0.1588
35861NA      NA10038   5.933   5.514   3.697 -0.1532  0.3793  0.3979
35862NA      NA10039   9.120   6.973   9.428 -0.2673 -0.2453  0.2486
35863NA      NA10040   4.644   4.558   6.525  0.4829 -0.0099  0.1772
35864NA      NA10041   0.098   5.844   2.071  0.0481  0.0499 -0.0203
35865NA      NA10042   0.575   5.146   9.964 -0.1072  0.7735  0.3039
35866NA      NA10043   1.115   5.267   2.242  0.2186  0.1229  0.2821
35867NA      NA10044   0.265   6.133   9.717 -0.1109  0.1630 -0.0354
35868NA      NA10045   6.263   4.436   5.787  0.0856 -0.2689 -0.3335
35869NA      NA10046   4.641   3.384   0.004  0.5437  0.3074  0.2674
35870NA      NA10047   6.683   3.769   5.040 -0.1515 -0.2735  0.3390
35871NA      NA10048   5.523   8.156   3.781 -0.2579  0.0459  0.0588
35872NA      NA10049   6.358  10.282   8.376 -0.1638 -0.2228  0.2657
35873NA      NA10050   7.547   6.136   6.897 -0.3338  0.1187  0.0423
35874CL      CL10051   3.616   6.683   0.647  0.2095  0.1526 -0.0862
35875CL      CL10052  10.340   7.048   5.598 -0.1398 -0.2126  0.0669
35876CL      CL10053   7.425   2.045   9.977 -0.1255  0.3569 -0.1036
35877CL      CL10054   9.281   9.288   1.073  0.1968 -0.0500 -0.0892
35878CL      CL10055   3.283  10.046   4.629  0.4338 -0.1862 -0.3425
35879CL      CL10056   2.134  10.139   6.769 -0.1035  0.3282 -0.4816
35880CL      CL10057   0.209   9.035   4.158 -0.2447 -0.3237  0.0209
35881CL      CL10058   9.767   5.609   1.305 -0.0347 -0.1603 -0.2035
35882CL      CL10059   7.495   2.264   5.320 -0.0901 -0.2020  0.1012
35883CL      CL10060   0.454   0.510   5.601  0.1120 -0.3037  0.1222
35884CL      CL10061   5.655  10.180   2.953  0.2348  0.2267 -0.0445
35885CL      CL10062   6.741   1.462   4.682 -0.3927 -0.1058 -0.1919
35886CL      CL10063   5.225   7.747  10.049  0.0911 -0.1641  0.0731
35887CL      CL10064   5.434  10.324   5.534 -0.0577  0.0299  0.2455
35888CL      CL10065   5.772   1.430   0.329 -0.1100  0.4157  0.1100
35889CL      CL10066   0.679   9.652   5.119  0.0463 -0.0903  0.3193
35890CL      CL10067   7.742   3.131   6.154 -0.0216 -0.3357  0.2941
35891CL      CL10068   2.517   1.908   4.454 -0.4926  0.2260 -0.0956
35892CL      CL10069   3.267   4.324   5.985  0.0164 -0.0092  0.1852
35893CL      CL10070   6.846   1.695   9.546  0.1499  0.0589  0.0332
35894CL      CL10071  10.271   9.957   6.678  0.1723 -0.2919  0.5726
35895CL      CL10072   0.016   3.118   3.294  0.0453 -0.1617  0.4860
35896CL      CL10073  10.279   6.536   8.169 -0.4029 -0.4322 -0.0716
35897CL      CL10074   3.193   3.763   4.042  0.1380 -0.0849 -0.4284
35898CL      CL10075   5.489   6.279   1.974 -0.0752 -0.4080  0.1901
35899CL      CL10076   1.064   3.237   5.062  0.2285 -0.2550  0.0816
35900CL      CL10077   8.430   9.478   7.594  0.2532  0.0446  0.0148
35901CL      CL10078   8.143   4.993   5.232  0.0792  0.2543 -0.2397
35902CL      CL10079   2.159  10.187   4.797  0.2356  0.0890 -0.0071
35903CL      CL10080   5.449   9.268   2.228 -0.0145  0.2908 -0.0864
35904CL      CL10081   9.483   1.208   7.226 -0.0289  0.0584 -0.1647
35905CL      CL10082   8.673   0.617   5.143 -0.0634  0.1894  0.0235
35906CL      CL10083  10.295   3.994   7.955  0.2209  0.0702  0.2691
35907CL      CL10084   9.609   7.049   7.570  0.1039 -0.4100  0.0259
35908CL      CL10085   9.490   6.117   0.728  0.2377 -0.0820 -0.0793
35909CL      CL10086   2.617   8.226   6.792 -0.2288  0.2211 -0.0031
35910CL      CL10087   9.646   6.552   8.197  0.0280 -0.1819  0.1772
35911CL      CL10088   2.060   9.278   7.598 -0.2658  0.1480 -0.1048
35912CL      CL10089   2.269   0.396   5.436  0.0514 -0.1571 -0.4070
35913CL      CL10090   7.884   2.562   6.606  0.0158  0.0837 -0.3582
35914CL      CL10091   0.458   6.506   2.149 -0.0234  0.0974 -0.2730
35915CL      CL10092   7.139   8.605   7.117  0.0589 -0.1208  0.5210
35916CL      CL10093   8.109   9.188   0.258  0.0797 -0.1935  0.4258
35917CL      CL10094   8.404   6.603   4.759  0.1280 -0.2967 -0.2429
35918CL      CL10095   0.797   5.196   7.122  0.5077  0.1052  0.2742
35919CL      CL10096   1.985   9.050   4.745 -0.2908 -0.2919 -0.3373
35920CL      CL10097   4.609   8.959   5.991  0.4512  0.1264  0.2063
35921CL      CL10098   2.956   8.108   2.861 -0.0076 -0.0085  0.1692
35922CL      CL10099   7.370   4.874   9.967 -0.1189 -0.3034  0.4512
35923CL      CL10100   6.977   7.310   0.962 -0.0991  0.5140  0.2278
35924CL      CL10101   4.906   3.014   1.287 -0.0002 -0.3012 -0.0737
35925CL      CL10102   7.946   0.226   6.241 -0.2696 -0.0344  0.0332
35926CL      CL10103   1.565   4.801   7.792 -0.0834 -0.2472  0.4117
35927CL      CL10104   4.393   7.981   6.972 -0.2103  0.1427  0.0733
35928CL      CL10105   0.431   7.908   8.740 -0.0324  0.3960 -0.1026
35929CL      CL10106   5.985   8.827   4.693  0.0380 -0.3911 -0.2330
35930CL      CL10107   1.628   2.208   3.978 -0.2478 -0.1723 -0.0114
35931CL      CL10108   1.335   2.852   5.175  0.1145 -0.1610 -0.1547
35932CL      CL10109   6.880  10.267  10.041 -0.4811  0.1055  0.4027
35933CL      CL10110   2.576   8.003   8.497 -0.0385 -0.3555  0.3989
35934CL      CL10111   3.034   7.799   6.141  0.5276 -0.5600 -0.1331
35935CL      CL10112   1.603   8.697   6.585 -0.0037 -0.3027 -0.0771
35936CL      CL10113   7.982   8.245   4.764  0.0461  0.2867  0.1465
35937CL      CL10114  10.157   4.125   6.434  0.2189 -0.1663  0.2083
35938CL      CL10115   6.463   2.279   3.737 -0.0960 -0.2905 -0.5863
35939CL      CL10116   4.290   3.682  10.326  0.1185 -0.1747  0.0765
35940CL      CL10117   0.191   8.380   0.809  0.0325  0.4585  0.1836
35941CL      CL10118   2.033   5.925   8.220  0.1064  0.1100 -0.2735
35942CL      CL10119   8.165   9.909   3.464  0.0807 -0.3770  0.4068
35943CL      CL10120   5.595   7.017   2.893 -0.1719 -0.4362  0.2997
35944CL      CL10121   0.474   6.963   6.974 -0.7309  0.2881  0.4825
35945CL      CL10122   0.100  10.019   9.439 -0.1027 -0.0398  0.1370
35946CL      CL10123   1.608   5.007   0.779 -0.4211  0.4773  0.1673
35947CL      CL10124   1.778   8.700   3.142 -0.1261  0.1715 -0.1851
35948CL      CL10125   9.336   8.243   9.361  0.0742 -0.1475 -0.1145
35949CL      CL10126   3.493  10.118   1.434 -0.0170  0.1176  0.2918
35950CL      CL10127   8.659   0.091   3.666 -0.1581 -0.2273  0.0850
35951CL      CL10128   2.735  10.093   5.235 -0.0064 -0.1932 -0.5118
35952CL      CL10129   0.449   8.907   3.168  0.0209 -0.0359 -0.2405
35953CL      CL10130   0.829   7.339   7.457 -0.4172 -0.2823  0.0171
35954CL      CL10131   4.285   0.209   2.539  0.4541  0.1293 -0.5611
35955CL      CL10132   9.588   1.140   4.466  0.0554 -0.4608  0.3209
35956CL      CL10133  10.188   0.240   0.758 -0.1378  0.7051 -0.3384
35957CL      CL10134   8.061   0.350   9.934 -0.0943  0.0027  0.0971
35958CL      CL10135   5.512   4.711   2.611 -0.7056 -0.4754 -0.3530
35959CL      CL10136  10.217   0.751   7.964  0.0860 -0.4590  0.2686
35960CL      CL10137   2.348   9.244   6.068  0.2055 -0.6178 -0.2124
35961CL      CL10138   6.773   3.742   4.817 -0.2132  0.5744  0.0109
35962CL      CL10139   2.623   0.665   5.068  0.0677  0.3185  0.0667
35963CL      CL10140   8.370   8.552   5.457 -0.0885 -0.2991  0.1120
35964CL      CL10141   1.212   9.593   6.738  0.1884  0.1733  0.2275
35965CL      CL10142   2.889   9.476   0.040 -0.0419  0.0569  0.6823
35966CL      CL10143   7.742   8.182   0.313  0.1104 -0.2476 -0.2449
35967CL      CL10144   8.684   5.179   9.771 -0.0229  0.1988  0.0065
35968CL      CL10145   4.709   3.567   9.157 -0.1737 -0.3490 -0.0000
35969CL      CL10146   9.222   8.948   5.999 -0.5100  0.0884  0.2834
35970CL      CL10147   8.865  10.155   4.723  0.1418  0.3236 -0.1442
35971CL      CL10148   9.725   2.006   5.681  0.2285 -0.0423  0.0113
35972CL      CL10149   9.172   3.195   8.407 -0.1385 -0.4531 -0.4879
35973CL      CL10150   4.504   6.241   9.387 -0.1204  0.2845 -0.0501
35974CL      CL10151   7.705   6.193   6.719  0.0700  0.1643  0.0648
35975CL      CL10152   4.387   4.450   1.385 -0.1941  0.0167 -0.3736
35976CL      CL10153  10.325   6.427   0.075 -0.2602 -0.1361 -0.1809
35977CL      CL10154   8.905   5.071   2.206  0.3303  0.0261  0.3186
35978CL      CL10155   1.662   8.884   0.028  0.0220  0.5183  0.0951
35979CL      CL10156   0.104   9.989   8.091  0.0969  0.2329 -0.1460
35980CL      CL10157   7.641   5.448   4.900  0.2578 -0.1290  0.1237
35981CL      CL10158   7.816   9.473   8.059  0.4245 -0.4576  0.6590
35982CL      CL10159   4.204   6.718   2.918 -0.0144 -0.1397  0.0336
35983CL      CL10160   2.229   5.938   0.733 -0.2408  0.3375 -0.0628
35984CL      CL10161   9.690   1.229   3.977  0.0498 -0.0822  0.1486
35985CL      CL10162   8.007   8.712   5.910  0.0127 -0.1568  0.3507
35986CL      CL10163   7.239   9.322   5.646 -0.0937  0.4608  0.2401
35987CL      CL10164   0.502   0.979   6.454  0.1524  0.3163  0.3293
35988CL      CL10165   9.684   9.301   6.960 -0.0265  0.0471 -0.0072
35989CL      CL10166   4.115   4.794   2.273 -0.7179  0.2784 -0.6919
35990CL      CL10167   2.862   1.404   4.895 -0.1620  0.0499 -0.1283
35991CL      CL10168   0.015   7.951   1.868  0.2546  0.3728  0.1662
35992CL      CL10169   7.198   5.531   0.810  0.1348  0.1572  0.4738
35993CL      CL10170   2.100   1.808   7.348  0.1823 -0.1540 -0.0958
35994CL      CL10171   3.528   6.711   7.787  0.1823 -0.2063 -0.4945
35995CL      CL10172   4.461   5.588   6.602  0.3478  0.0089 -0.0551
35996CL      CL10173   9.237   4.384   0.766  0.1393 -0.5528 -0.3062
35997CL      CL10174   1.970   5.637   5.152 -0.3234 -0.3503 -0.1729
35998CL      CL10175   2.956   2.516   4.447 -0.0340  0.5805 -0.0192
35999CL      CL10176   4.062   8.660   8.512 -0.1552 -0.0442  0.1616
36000CL      CL10177   4.029   0.733   6.651  0.0786  0.0221  0.0090
36001CL      CL10178   0.102  10.006   1.576 -0.0670  0.1326  0.6333
36002CL      CL10179   4.648   9.607   3.163  0.1004 -0.0349 -0.0140
36003CL      CL10180   1.200  10.008   6.151 -0.0172  0.2529 -0.4303
36004CL      CL10181   1.944   1.730   5.805  0.0666  0.0093 -0.4194
36005CL      CL10182   0.558  10.218   7.853  0.2018  0.0668  0.1734
36006CL      CL10183   9.449  10.292   6.199  0.0498 -0.1218 -0.2865
36007CL      CL10184   2.204   9.533   4.834 -0.4097  0.1548 -0.3491
36008CL      CL10185   0.308   0.198   4.251 -0.2168 -0.2525  0.0999
36009CL      CL10186   0.176   8.211   8.042  0.0821 -0.1130 -0.0598
36010CL      CL10187   5.701   1.264   8.473  0.0903 -0.1160 -0.3771
36011CL      CL10188   6.493   2.296   5.942  0.2862 -0.2415  0.0789
36012CL      CL10189   0.758   7.416   9.103  0.0892  0.1963  0.1823
36013CL      CL10190   9.722   7.555   0.501 -0.0433 -0.2439  0.2616
36014CL      CL10191   0.632   4.470   9.042  0.4242 -0.6756  0.2012
36015CL      CL10192   3.298   1.168   1.333  0.1224 -0.5185 -0.0308
36016CL      CL10193   2.987   3.877   8.236  0.4525 -0.4538  0.0114
36017CL      CL10194   1.965   1.731   1.898 -0.3391 -0.4161 -0.3182
36018CL      CL10195   1.319   2.583   7.237  0.4394 -0.0849 -0.3686
36019CL      CL10196   1.070   4.231   5.970  0.1332  0.0021  0.2392
36020CL      CL10197   3.485   8.752   6.906 -0.1531  0.0433 -0.0088
36021CL      CL10198   6.761   8.069   8.134 -0.1609  0.1996  0.2087
36022CL      CL10199   2.808   8.273   4.894  0.4084 -0.2959 -0.0421
36023CL      CL10200   3.085   8.071   4.118 -0.0734  0.1117 -0.2803
36024CL      CL10201   7.314   8.737   6.146  0.1069  0.3340 -0.1634
36025CL      CL10202   9.627   8.379   5.174 -0.2857  0.3421 -0.1193
36026CL      CL10203   0.769   5.830   7.304 -0.0730  0.2033  0.1033
36027CL      CL10204   9.394   0.057   5.542  0.0751 -0.1056 -0.0922
36028CL      CL10205   0.823   8.887   1.939  0.0522  0.2685 -0.2400
36029CL      CL10206   0.730   4.703   3.841 -0.0337  0.0327 -0.2224
36030CL      CL10207   8.801   6.312   9.944 -0.1760 -0.0350 -0.0785
36031CL      CL10208   4.581   5.348   4.747 -0.0526  0.5650 -0.0459
36032CL      CL10209   4.699   6.020   2.436  0.0599  0.1762  0.1494
36033CL      CL10210   6.219   4.465   3.111  0.2763 -0.0836  0.3578
36034CL      CL10211   4.379   8.824   3.851 -0.4635 -0.3811 -0.2477
36035CL      CL10212   3.121   0.443   1.592  0.0291  0.3645 -0.0849
36036CL      CL10213   8.909   7.595   6.042 -0.1894  0.4907  0.1606
36037CL      CL10214   0.153  10.273   4.615  0.1647 -0.3510  0.2298
36038CL      CL10215   6.653   6.350   7.528  0.1800  0.3029  0.1525
36039CL      CL10216   5.774   4.836   6.523  0.2728  0.0007 -0.1083
36040CL      CL10217   7.747   6.593   9.823 -0.1461  0.0482 -0.2866
36041CL      CL10218   0.862   0.665   7.155 -0.1080 -0.2655  0.0587
36042CL      CL10219   9.235   0.857   0.395  0.5845  0.1924 -0.0638
36043CL      CL10220   5.856   0.905   5.495  0.3404 -0.0725  0.4068
36044CL      CL10221   0.472   8.355   6.205 -0.3049 -0.0064 -0.1874
36045CL      CL10222   3.351   7.383   5.534 -0.2634  0.6272 -0.1248
36046CL      CL10223   9.660   7.622   5.144 -0.2236 -0.1737  0.2674
36047CL      CL10224   5.240   5.639   7.176 -0.1433 -0.3190 -0.1789
36048CL      CL10225   8.698   9.576   6.909 -0.0335  0.0651  0.0778
36049CL      CL10226   0.788   7.870   5.712  0.1545  0.0214 -0.0163
36050CL      CL10227   3.181   7.464   9.263  0.8179 -0.1620  0.0947
36051CL      CL10228   5.241   5.230   4.692 -0.4220  0.1819 -0.2719
36052CL      CL10229   6.133   9.025   8.865  0.1803  0.4671 -0.5913
36053CL      CL10230   5.522   0.776   9.722 -0.2990 -0.0477 -0.1897
36054CL      CL10231   1.564   0.325   8.308  0.0582  0.2624 -0.2890
36055CL      CL10232   4.466   4.915   7.980 -0.1731  0.0348  0.0986
36056CL      CL10233   0.036   0.815   5.338 -0.0482 -0.0171 -0.3095
36057CL      CL10234   9.223   7.442   5.710  0.0506  0.2705  0.6623
36058CL      CL10235   2.758   1.772   3.600  0.2220 -0.0309 -0.1918
36059CL      CL10236   1.555   8.196   2.511 -0.2073  0.6109 -0.3557
36060CL      CL10237   7.169   8.739   4.451  0.0201 -0.3505 -0.2860
36061CL      CL10238   2.417   5.183   0.192 -0.1494 -0.1977 -0.3860
36062CL      CL10239   3.239   9.673   7.183  0.0102  0.0019 -0.5077
36063CL      CL10240  10.013   0.221   3.695  0.2687  0.3471  0.4190
36064CL      CL10241   9.876   9.437   9.703  0.3842  0.0870 -0.0462
36065CL      CL10242   6.161   3.083   3.050 -0.1887 -0.1167 -0.3448
36066CL      CL10243   0.088   7.334   6.355 -0.1570  0.2154  0.3307
36067CL      CL10244   9.011   9.746   4.750 -0.1313  0.0415  0.3870
36068CL      CL10245   0.760   9.402   3.563 -0.0062 -0.2147 -0.6753
  10.35987  10.35987  10.35987
