;
;   File g2npocore_petim_betagalactose.itp  was generated
;   By user: sairam (1000)
;   On host: sairam
;   At date: Tue. September  2 17:06:05 2023
;
;   This is a standalone topology file
;
;   Created by:
;   ParmEd:       amb2gro_top_gro.py, VERSION 3.4.1
;   Executable:   amb2gro_top_gro.py
;   Library dir:  /usr/local/gromacs/share/gromacs/top
;   Command line:
;     ./amb2gro_top_gro.py -p g2npocore_petim_betagalactose.prmtop -c g2npocore_petim_betagalactose.inpcrd -t g2npocore_petim_betagalactose.itp -g g2npocore_petim_betagalactose.gro -b g2npocore_petim_betagalactose.pdb
;

;[ defaults ]
;; nbfunc        comb-rule       gen-pairs       fudgeLJ fudgeQQ
;1               2               yes             0.5          0.83333333  
;
;[ atomtypes ]
;; name    at.num    mass    charge ptype  sigma      epsilon
;os             8  16.000000  0.00000000  A     0.30000123        0.71128
;c3             6  12.010000  0.00000000  A     0.33996695      0.4577296
;h1             1   1.008000  0.00000000  A      0.2471353      0.0656888
;hc             1   1.008000  0.00000000  A     0.26495328      0.0656888
;n3             7  14.010000  0.00000000  A     0.32499985        0.71128
;h2             1   1.008000  0.00000000  A     0.22931733      0.0656888
;oh             8  16.000000  0.00000000  A     0.30664734      0.8803136
;ho             1   1.008000  0.00000000  A              0              0


[ moleculetype ]
; Name            nrexcl
g2npocore_petim_betagalactose        3

[ atoms ]
;   nr       type  resnr residue  atom   cgnr    charge       mass  typeB    chargeB      massB
; residue    1 aaa rtp aaa q -0.0
    1         os      1    aaa     O1      1 -0.43807400  16.000000   ; qtot -0.438074
    2         c3      1    aaa     C1      2 0.04509800  12.010000   ; qtot -0.392976
    3         h1      1    aaa     H1      3 0.04771700   1.008000   ; qtot -0.345259
    4         h1      1    aaa     H2      4 0.04771700   1.008000   ; qtot -0.297542
    5         c3      1    aaa     C2      5 0.04509800  12.010000   ; qtot -0.252444
    6         h1      1    aaa     H3      6 0.04771700   1.008000   ; qtot -0.204727
    7         h1      1    aaa     H4      7 0.04771700   1.008000   ; qtot -0.157010
    8         c3      1    aaa     C3      8 0.05658600  12.010000   ; qtot -0.100424
    9         hc      1    aaa     H5      9 0.04933800   1.008000   ; qtot -0.051086
   10         hc      1    aaa     H6     10 0.04933800   1.008000   ; qtot -0.001748
   11         c3      1    aaa     C4     11 0.05658600  12.010000   ; qtot 0.054838
   12         hc      1    aaa     H7     12 0.04933800   1.008000   ; qtot 0.104176
   13         hc      1    aaa     H8     13 0.04933800   1.008000   ; qtot 0.153514
   14         c3      1    aaa     C5     14 0.00989700  12.010000   ; qtot 0.163411
   15         h1      1    aaa     H9     15 0.04845500   1.008000   ; qtot 0.211866
   16         h1      1    aaa    H10     16 0.04845500   1.008000   ; qtot 0.260321
   17         c3      1    aaa     C6     17 0.00989700  12.010000   ; qtot 0.270218
   18         h1      1    aaa    H11     18 0.04845500   1.008000   ; qtot 0.318673
   19         h1      1    aaa    H12     19 0.04845500   1.008000   ; qtot 0.367128
   20         n3      1    aaa     N1     20 -0.59936800  14.010000   ; qtot -0.232240
   21         n3      1    aaa     N2     21 -0.59936800  14.010000   ; qtot -0.831608
   22         c3      1    aaa     C7     22 0.08030200  12.010000   ; qtot -0.751306
   23         h1      1    aaa    H13     23 0.05071600   1.008000   ; qtot -0.700590
   24         h1      1    aaa    H14     24 0.05071600   1.008000   ; qtot -0.649874
   25         c3      1    aaa     C8     25 0.08030200  12.010000   ; qtot -0.569572
   26         h1      1    aaa    H15     26 0.05071600   1.008000   ; qtot -0.518856
   27         h1      1    aaa    H16     27 0.05071600   1.008000   ; qtot -0.468140
   28         c3      1    aaa     C9     28 0.08030200  12.010000   ; qtot -0.387838
   29         h1      1    aaa    H17     29 0.05071600   1.008000   ; qtot -0.337122
   30         h1      1    aaa    H18     30 0.05071600   1.008000   ; qtot -0.286406
   31         c3      1    aaa    C10     31 0.08030200  12.010000   ; qtot -0.206104
   32         h1      1    aaa    H19     32 0.05071600   1.008000   ; qtot -0.155388
   33         h1      1    aaa    H20     33 0.05071600   1.008000   ; qtot -0.104672
   34         c3      1    aaa    C11     34 0.10287800  12.010000   ; qtot -0.001794
   35         hc      1    aaa    H21     35 0.06787400   1.008000   ; qtot 0.066080
   36         hc      1    aaa    H22     36 0.06787400   1.008000   ; qtot 0.133954
   37         c3      1    aaa    C12     37 0.10287800  12.010000   ; qtot 0.236832
   38         hc      1    aaa    H23     38 0.06787400   1.008000   ; qtot 0.304706
   39         hc      1    aaa    H24     39 0.06787400   1.008000   ; qtot 0.372580
   40         c3      1    aaa    C13     40 0.10287800  12.010000   ; qtot 0.475458
   41         hc      1    aaa    H25     41 0.06787400   1.008000   ; qtot 0.543332
   42         hc      1    aaa    H26     42 0.06787400   1.008000   ; qtot 0.611206
   43         c3      1    aaa    C14     43 0.10287800  12.010000   ; qtot 0.714084
   44         hc      1    aaa    H27     44 0.06787400   1.008000   ; qtot 0.781958
   45         hc      1    aaa    H28     45 0.06787400   1.008000   ; qtot 0.849832
   46         c3      1    aaa    C15     46 -0.72585200  12.010000   ; qtot 0.123980
   47         h1      1    aaa    H29     47 0.25669700   1.008000   ; qtot 0.380677
   48         h1      1    aaa    H30     48 0.25669700   1.008000   ; qtot 0.637374
   49         c3      1    aaa    C16     49 -0.72585200  12.010000   ; qtot -0.088478
   50         h1      1    aaa    H31     50 0.25669700   1.008000   ; qtot 0.168219
   51         h1      1    aaa    H32     51 0.25669700   1.008000   ; qtot 0.424916
   52         c3      1    aaa    C17     52 -0.72585200  12.010000   ; qtot -0.300936
   53         h1      1    aaa    H33     53 0.25669700   1.008000   ; qtot -0.044239
   54         h1      1    aaa    H34     54 0.25669700   1.008000   ; qtot 0.212458
   55         c3      1    aaa    C18     55 -0.72585200  12.010000   ; qtot -0.513394
   56         h1      1    aaa    H35     56 0.25669700   1.008000   ; qtot -0.256697
   57         h1      1    aaa    H36     57 0.25669700   1.008000   ; qtot -0.000000
; residue    2 bbb rtp bbb q -0.0
   58         n3      2    bbb     N1     58 -0.59685800  14.010000   ; qtot -0.596858
   59         c3      2    bbb     C1     59 0.10137000  12.010000   ; qtot -0.495488
   60         h1      2    bbb     H1     60 0.04411300   1.008000   ; qtot -0.451375
   61         h1      2    bbb     H2     61 0.04411300   1.008000   ; qtot -0.407262
   62         c3      2    bbb     C2     62 0.10137000  12.010000   ; qtot -0.305892
   63         h1      2    bbb     H3     63 0.04411300   1.008000   ; qtot -0.261779
   64         h1      2    bbb     H4     64 0.04411300   1.008000   ; qtot -0.217666
   65         c3      2    bbb     C3     65 -0.00195300  12.010000   ; qtot -0.219619
   66         h1      2    bbb     H5     66 0.05064400   1.008000   ; qtot -0.168975
   67         h1      2    bbb     H6     67 0.05064400   1.008000   ; qtot -0.118331
   68         c3      2    bbb     C4     68 -0.01612100  12.010000   ; qtot -0.134452
   69         hc      2    bbb     H7     69 0.04936100   1.008000   ; qtot -0.085091
   70         hc      2    bbb     H8     70 0.04936100   1.008000   ; qtot -0.035730
   71         c3      2    bbb     C5     71 0.11363000  12.010000   ; qtot 0.077900
   72         hc      2    bbb     H9     72 0.06265900   1.008000   ; qtot 0.140559
   73         hc      2    bbb    H10     73 0.06265900   1.008000   ; qtot 0.203218
   74         c3      2    bbb     C6     74 0.11363000  12.010000   ; qtot 0.316848
   75         hc      2    bbb    H11     75 0.06265900   1.008000   ; qtot 0.379507
   76         hc      2    bbb    H12     76 0.06265900   1.008000   ; qtot 0.442166
   77         c3      2    bbb     C7     77 0.05858200  12.010000   ; qtot 0.500748
   78         h1      2    bbb    H13     78 0.06123400   1.008000   ; qtot 0.561982
   79         h1      2    bbb    H14     79 0.06123400   1.008000   ; qtot 0.623216
   80         c3      2    bbb     C8     80 -0.72423400  12.010000   ; qtot -0.101018
   81         h1      2    bbb    H15     81 0.25637600   1.008000   ; qtot 0.155358
   82         h1      2    bbb    H16     82 0.25637600   1.008000   ; qtot 0.411734
   83         c3      2    bbb     C9     83 -0.72423400  12.010000   ; qtot -0.312500
   84         h1      2    bbb    H17     84 0.25637600   1.008000   ; qtot -0.056124
   85         h1      2    bbb    H18     85 0.25637600   1.008000   ; qtot 0.200252
   86         os      2    bbb     O1     86 -0.20025300  16.000000   ; qtot -0.000001
; residue    3 bbb rtp bbb q -0.0
   87         n3      3    bbb     N1     87 -0.59685800  14.010000   ; qtot -0.596859
   88         c3      3    bbb     C1     88 0.10137000  12.010000   ; qtot -0.495489
   89         h1      3    bbb     H1     89 0.04411300   1.008000   ; qtot -0.451376
   90         h1      3    bbb     H2     90 0.04411300   1.008000   ; qtot -0.407263
   91         c3      3    bbb     C2     91 0.10137000  12.010000   ; qtot -0.305893
   92         h1      3    bbb     H3     92 0.04411300   1.008000   ; qtot -0.261780
   93         h1      3    bbb     H4     93 0.04411300   1.008000   ; qtot -0.217667
   94         c3      3    bbb     C3     94 -0.00195300  12.010000   ; qtot -0.219620
   95         h1      3    bbb     H5     95 0.05064400   1.008000   ; qtot -0.168976
   96         h1      3    bbb     H6     96 0.05064400   1.008000   ; qtot -0.118332
   97         c3      3    bbb     C4     97 -0.01612100  12.010000   ; qtot -0.134453
   98         hc      3    bbb     H7     98 0.04936100   1.008000   ; qtot -0.085092
   99         hc      3    bbb     H8     99 0.04936100   1.008000   ; qtot -0.035731
  100         c3      3    bbb     C5    100 0.11363000  12.010000   ; qtot 0.077899
  101         hc      3    bbb     H9    101 0.06265900   1.008000   ; qtot 0.140558
  102         hc      3    bbb    H10    102 0.06265900   1.008000   ; qtot 0.203217
  103         c3      3    bbb     C6    103 0.11363000  12.010000   ; qtot 0.316847
  104         hc      3    bbb    H11    104 0.06265900   1.008000   ; qtot 0.379506
  105         hc      3    bbb    H12    105 0.06265900   1.008000   ; qtot 0.442165
  106         c3      3    bbb     C7    106 0.05858200  12.010000   ; qtot 0.500747
  107         h1      3    bbb    H13    107 0.06123400   1.008000   ; qtot 0.561981
  108         h1      3    bbb    H14    108 0.06123400   1.008000   ; qtot 0.623215
  109         c3      3    bbb     C8    109 -0.72423400  12.010000   ; qtot -0.101019
  110         h1      3    bbb    H15    110 0.25637600   1.008000   ; qtot 0.155357
  111         h1      3    bbb    H16    111 0.25637600   1.008000   ; qtot 0.411733
  112         c3      3    bbb     C9    112 -0.72423400  12.010000   ; qtot -0.312501
  113         h1      3    bbb    H17    113 0.25637600   1.008000   ; qtot -0.056125
  114         h1      3    bbb    H18    114 0.25637600   1.008000   ; qtot 0.200251
  115         os      3    bbb     O1    115 -0.20025300  16.000000   ; qtot -0.000002
; residue    4 bbb rtp bbb q -0.0
  116         n3      4    bbb     N1    116 -0.59685800  14.010000   ; qtot -0.596860
  117         c3      4    bbb     C1    117 0.10137000  12.010000   ; qtot -0.495490
  118         h1      4    bbb     H1    118 0.04411300   1.008000   ; qtot -0.451377
  119         h1      4    bbb     H2    119 0.04411300   1.008000   ; qtot -0.407264
  120         c3      4    bbb     C2    120 0.10137000  12.010000   ; qtot -0.305894
  121         h1      4    bbb     H3    121 0.04411300   1.008000   ; qtot -0.261781
  122         h1      4    bbb     H4    122 0.04411300   1.008000   ; qtot -0.217668
  123         c3      4    bbb     C3    123 -0.00195300  12.010000   ; qtot -0.219621
  124         h1      4    bbb     H5    124 0.05064400   1.008000   ; qtot -0.168977
  125         h1      4    bbb     H6    125 0.05064400   1.008000   ; qtot -0.118333
  126         c3      4    bbb     C4    126 -0.01612100  12.010000   ; qtot -0.134454
  127         hc      4    bbb     H7    127 0.04936100   1.008000   ; qtot -0.085093
  128         hc      4    bbb     H8    128 0.04936100   1.008000   ; qtot -0.035732
  129         c3      4    bbb     C5    129 0.11363000  12.010000   ; qtot 0.077898
  130         hc      4    bbb     H9    130 0.06265900   1.008000   ; qtot 0.140557
  131         hc      4    bbb    H10    131 0.06265900   1.008000   ; qtot 0.203216
  132         c3      4    bbb     C6    132 0.11363000  12.010000   ; qtot 0.316846
  133         hc      4    bbb    H11    133 0.06265900   1.008000   ; qtot 0.379505
  134         hc      4    bbb    H12    134 0.06265900   1.008000   ; qtot 0.442164
  135         c3      4    bbb     C7    135 0.05858200  12.010000   ; qtot 0.500746
  136         h1      4    bbb    H13    136 0.06123400   1.008000   ; qtot 0.561980
  137         h1      4    bbb    H14    137 0.06123400   1.008000   ; qtot 0.623214
  138         c3      4    bbb     C8    138 -0.72423400  12.010000   ; qtot -0.101020
  139         h1      4    bbb    H15    139 0.25637600   1.008000   ; qtot 0.155356
  140         h1      4    bbb    H16    140 0.25637600   1.008000   ; qtot 0.411732
  141         c3      4    bbb     C9    141 -0.72423400  12.010000   ; qtot -0.312502
  142         h1      4    bbb    H17    142 0.25637600   1.008000   ; qtot -0.056126
  143         h1      4    bbb    H18    143 0.25637600   1.008000   ; qtot 0.200250
  144         os      4    bbb     O1    144 -0.20025300  16.000000   ; qtot -0.000003
; residue    5 bbb rtp bbb q -0.0
  145         n3      5    bbb     N1    145 -0.59685800  14.010000   ; qtot -0.596861
  146         c3      5    bbb     C1    146 0.10137000  12.010000   ; qtot -0.495491
  147         h1      5    bbb     H1    147 0.04411300   1.008000   ; qtot -0.451378
  148         h1      5    bbb     H2    148 0.04411300   1.008000   ; qtot -0.407265
  149         c3      5    bbb     C2    149 0.10137000  12.010000   ; qtot -0.305895
  150         h1      5    bbb     H3    150 0.04411300   1.008000   ; qtot -0.261782
  151         h1      5    bbb     H4    151 0.04411300   1.008000   ; qtot -0.217669
  152         c3      5    bbb     C3    152 -0.00195300  12.010000   ; qtot -0.219622
  153         h1      5    bbb     H5    153 0.05064400   1.008000   ; qtot -0.168978
  154         h1      5    bbb     H6    154 0.05064400   1.008000   ; qtot -0.118334
  155         c3      5    bbb     C4    155 -0.01612100  12.010000   ; qtot -0.134455
  156         hc      5    bbb     H7    156 0.04936100   1.008000   ; qtot -0.085094
  157         hc      5    bbb     H8    157 0.04936100   1.008000   ; qtot -0.035733
  158         c3      5    bbb     C5    158 0.11363000  12.010000   ; qtot 0.077897
  159         hc      5    bbb     H9    159 0.06265900   1.008000   ; qtot 0.140556
  160         hc      5    bbb    H10    160 0.06265900   1.008000   ; qtot 0.203215
  161         c3      5    bbb     C6    161 0.11363000  12.010000   ; qtot 0.316845
  162         hc      5    bbb    H11    162 0.06265900   1.008000   ; qtot 0.379504
  163         hc      5    bbb    H12    163 0.06265900   1.008000   ; qtot 0.442163
  164         c3      5    bbb     C7    164 0.05858200  12.010000   ; qtot 0.500745
  165         h1      5    bbb    H13    165 0.06123400   1.008000   ; qtot 0.561979
  166         h1      5    bbb    H14    166 0.06123400   1.008000   ; qtot 0.623213
  167         c3      5    bbb     C8    167 -0.72423400  12.010000   ; qtot -0.101021
  168         h1      5    bbb    H15    168 0.25637600   1.008000   ; qtot 0.155355
  169         h1      5    bbb    H16    169 0.25637600   1.008000   ; qtot 0.411731
  170         c3      5    bbb     C9    170 -0.72423400  12.010000   ; qtot -0.312503
  171         h1      5    bbb    H17    171 0.25637600   1.008000   ; qtot -0.056127
  172         h1      5    bbb    H18    172 0.25637600   1.008000   ; qtot 0.200249
  173         os      5    bbb     O1    173 -0.20025300  16.000000   ; qtot -0.000004
; residue    6 bbb rtp bbb q -0.0
  174         n3      6    bbb     N1    174 -0.59685800  14.010000   ; qtot -0.596862
  175         c3      6    bbb     C1    175 0.10137000  12.010000   ; qtot -0.495492
  176         h1      6    bbb     H1    176 0.04411300   1.008000   ; qtot -0.451379
  177         h1      6    bbb     H2    177 0.04411300   1.008000   ; qtot -0.407266
  178         c3      6    bbb     C2    178 0.10137000  12.010000   ; qtot -0.305896
  179         h1      6    bbb     H3    179 0.04411300   1.008000   ; qtot -0.261783
  180         h1      6    bbb     H4    180 0.04411300   1.008000   ; qtot -0.217670
  181         c3      6    bbb     C3    181 -0.00195300  12.010000   ; qtot -0.219623
  182         h1      6    bbb     H5    182 0.05064400   1.008000   ; qtot -0.168979
  183         h1      6    bbb     H6    183 0.05064400   1.008000   ; qtot -0.118335
  184         c3      6    bbb     C4    184 -0.01612100  12.010000   ; qtot -0.134456
  185         hc      6    bbb     H7    185 0.04936100   1.008000   ; qtot -0.085095
  186         hc      6    bbb     H8    186 0.04936100   1.008000   ; qtot -0.035734
  187         c3      6    bbb     C5    187 0.11363000  12.010000   ; qtot 0.077896
  188         hc      6    bbb     H9    188 0.06265900   1.008000   ; qtot 0.140555
  189         hc      6    bbb    H10    189 0.06265900   1.008000   ; qtot 0.203214
  190         c3      6    bbb     C6    190 0.11363000  12.010000   ; qtot 0.316844
  191         hc      6    bbb    H11    191 0.06265900   1.008000   ; qtot 0.379503
  192         hc      6    bbb    H12    192 0.06265900   1.008000   ; qtot 0.442162
  193         c3      6    bbb     C7    193 0.05858200  12.010000   ; qtot 0.500744
  194         h1      6    bbb    H13    194 0.06123400   1.008000   ; qtot 0.561978
  195         h1      6    bbb    H14    195 0.06123400   1.008000   ; qtot 0.623212
  196         c3      6    bbb     C8    196 -0.72423400  12.010000   ; qtot -0.101022
  197         h1      6    bbb    H15    197 0.25637600   1.008000   ; qtot 0.155354
  198         h1      6    bbb    H16    198 0.25637600   1.008000   ; qtot 0.411730
  199         c3      6    bbb     C9    199 -0.72423400  12.010000   ; qtot -0.312504
  200         h1      6    bbb    H17    200 0.25637600   1.008000   ; qtot -0.056128
  201         h1      6    bbb    H18    201 0.25637600   1.008000   ; qtot 0.200248
  202         os      6    bbb     O1    202 -0.20025300  16.000000   ; qtot -0.000005
; residue    7 bbb rtp bbb q -0.0
  203         n3      7    bbb     N1    203 -0.59685800  14.010000   ; qtot -0.596863
  204         c3      7    bbb     C1    204 0.10137000  12.010000   ; qtot -0.495493
  205         h1      7    bbb     H1    205 0.04411300   1.008000   ; qtot -0.451380
  206         h1      7    bbb     H2    206 0.04411300   1.008000   ; qtot -0.407267
  207         c3      7    bbb     C2    207 0.10137000  12.010000   ; qtot -0.305897
  208         h1      7    bbb     H3    208 0.04411300   1.008000   ; qtot -0.261784
  209         h1      7    bbb     H4    209 0.04411300   1.008000   ; qtot -0.217671
  210         c3      7    bbb     C3    210 -0.00195300  12.010000   ; qtot -0.219624
  211         h1      7    bbb     H5    211 0.05064400   1.008000   ; qtot -0.168980
  212         h1      7    bbb     H6    212 0.05064400   1.008000   ; qtot -0.118336
  213         c3      7    bbb     C4    213 -0.01612100  12.010000   ; qtot -0.134457
  214         hc      7    bbb     H7    214 0.04936100   1.008000   ; qtot -0.085096
  215         hc      7    bbb     H8    215 0.04936100   1.008000   ; qtot -0.035735
  216         c3      7    bbb     C5    216 0.11363000  12.010000   ; qtot 0.077895
  217         hc      7    bbb     H9    217 0.06265900   1.008000   ; qtot 0.140554
  218         hc      7    bbb    H10    218 0.06265900   1.008000   ; qtot 0.203213
  219         c3      7    bbb     C6    219 0.11363000  12.010000   ; qtot 0.316843
  220         hc      7    bbb    H11    220 0.06265900   1.008000   ; qtot 0.379502
  221         hc      7    bbb    H12    221 0.06265900   1.008000   ; qtot 0.442161
  222         c3      7    bbb     C7    222 0.05858200  12.010000   ; qtot 0.500743
  223         h1      7    bbb    H13    223 0.06123400   1.008000   ; qtot 0.561977
  224         h1      7    bbb    H14    224 0.06123400   1.008000   ; qtot 0.623211
  225         c3      7    bbb     C8    225 -0.72423400  12.010000   ; qtot -0.101023
  226         h1      7    bbb    H15    226 0.25637600   1.008000   ; qtot 0.155353
  227         h1      7    bbb    H16    227 0.25637600   1.008000   ; qtot 0.411729
  228         c3      7    bbb     C9    228 -0.72423400  12.010000   ; qtot -0.312505
  229         h1      7    bbb    H17    229 0.25637600   1.008000   ; qtot -0.056129
  230         h1      7    bbb    H18    230 0.25637600   1.008000   ; qtot 0.200247
  231         os      7    bbb     O1    231 -0.20025300  16.000000   ; qtot -0.000006
; residue    8 bbb rtp bbb q -0.0
  232         n3      8    bbb     N1    232 -0.59685800  14.010000   ; qtot -0.596864
  233         c3      8    bbb     C1    233 0.10137000  12.010000   ; qtot -0.495494
  234         h1      8    bbb     H1    234 0.04411300   1.008000   ; qtot -0.451381
  235         h1      8    bbb     H2    235 0.04411300   1.008000   ; qtot -0.407268
  236         c3      8    bbb     C2    236 0.10137000  12.010000   ; qtot -0.305898
  237         h1      8    bbb     H3    237 0.04411300   1.008000   ; qtot -0.261785
  238         h1      8    bbb     H4    238 0.04411300   1.008000   ; qtot -0.217672
  239         c3      8    bbb     C3    239 -0.00195300  12.010000   ; qtot -0.219625
  240         h1      8    bbb     H5    240 0.05064400   1.008000   ; qtot -0.168981
  241         h1      8    bbb     H6    241 0.05064400   1.008000   ; qtot -0.118337
  242         c3      8    bbb     C4    242 -0.01612100  12.010000   ; qtot -0.134458
  243         hc      8    bbb     H7    243 0.04936100   1.008000   ; qtot -0.085097
  244         hc      8    bbb     H8    244 0.04936100   1.008000   ; qtot -0.035736
  245         c3      8    bbb     C5    245 0.11363000  12.010000   ; qtot 0.077894
  246         hc      8    bbb     H9    246 0.06265900   1.008000   ; qtot 0.140553
  247         hc      8    bbb    H10    247 0.06265900   1.008000   ; qtot 0.203212
  248         c3      8    bbb     C6    248 0.11363000  12.010000   ; qtot 0.316842
  249         hc      8    bbb    H11    249 0.06265900   1.008000   ; qtot 0.379501
  250         hc      8    bbb    H12    250 0.06265900   1.008000   ; qtot 0.442160
  251         c3      8    bbb     C7    251 0.05858200  12.010000   ; qtot 0.500742
  252         h1      8    bbb    H13    252 0.06123400   1.008000   ; qtot 0.561976
  253         h1      8    bbb    H14    253 0.06123400   1.008000   ; qtot 0.623210
  254         c3      8    bbb     C8    254 -0.72423400  12.010000   ; qtot -0.101024
  255         h1      8    bbb    H15    255 0.25637600   1.008000   ; qtot 0.155352
  256         h1      8    bbb    H16    256 0.25637600   1.008000   ; qtot 0.411728
  257         c3      8    bbb     C9    257 -0.72423400  12.010000   ; qtot -0.312506
  258         h1      8    bbb    H17    258 0.25637600   1.008000   ; qtot -0.056130
  259         h1      8    bbb    H18    259 0.25637600   1.008000   ; qtot 0.200246
  260         os      8    bbb     O1    260 -0.20025300  16.000000   ; qtot -0.000007
; residue    9 bbb rtp bbb q -0.0
  261         n3      9    bbb     N1    261 -0.59685800  14.010000   ; qtot -0.596865
  262         c3      9    bbb     C1    262 0.10137000  12.010000   ; qtot -0.495495
  263         h1      9    bbb     H1    263 0.04411300   1.008000   ; qtot -0.451382
  264         h1      9    bbb     H2    264 0.04411300   1.008000   ; qtot -0.407269
  265         c3      9    bbb     C2    265 0.10137000  12.010000   ; qtot -0.305899
  266         h1      9    bbb     H3    266 0.04411300   1.008000   ; qtot -0.261786
  267         h1      9    bbb     H4    267 0.04411300   1.008000   ; qtot -0.217673
  268         c3      9    bbb     C3    268 -0.00195300  12.010000   ; qtot -0.219626
  269         h1      9    bbb     H5    269 0.05064400   1.008000   ; qtot -0.168982
  270         h1      9    bbb     H6    270 0.05064400   1.008000   ; qtot -0.118338
  271         c3      9    bbb     C4    271 -0.01612100  12.010000   ; qtot -0.134459
  272         hc      9    bbb     H7    272 0.04936100   1.008000   ; qtot -0.085098
  273         hc      9    bbb     H8    273 0.04936100   1.008000   ; qtot -0.035737
  274         c3      9    bbb     C5    274 0.11363000  12.010000   ; qtot 0.077893
  275         hc      9    bbb     H9    275 0.06265900   1.008000   ; qtot 0.140552
  276         hc      9    bbb    H10    276 0.06265900   1.008000   ; qtot 0.203211
  277         c3      9    bbb     C6    277 0.11363000  12.010000   ; qtot 0.316841
  278         hc      9    bbb    H11    278 0.06265900   1.008000   ; qtot 0.379500
  279         hc      9    bbb    H12    279 0.06265900   1.008000   ; qtot 0.442159
  280         c3      9    bbb     C7    280 0.05858200  12.010000   ; qtot 0.500741
  281         h1      9    bbb    H13    281 0.06123400   1.008000   ; qtot 0.561975
  282         h1      9    bbb    H14    282 0.06123400   1.008000   ; qtot 0.623209
  283         c3      9    bbb     C8    283 -0.72423400  12.010000   ; qtot -0.101025
  284         h1      9    bbb    H15    284 0.25637600   1.008000   ; qtot 0.155351
  285         h1      9    bbb    H16    285 0.25637600   1.008000   ; qtot 0.411727
  286         c3      9    bbb     C9    286 -0.72423400  12.010000   ; qtot -0.312507
  287         h1      9    bbb    H17    287 0.25637600   1.008000   ; qtot -0.056131
  288         h1      9    bbb    H18    288 0.25637600   1.008000   ; qtot 0.200245
  289         os      9    bbb     O1    289 -0.20025300  16.000000   ; qtot -0.000008
; residue   10 bbb rtp bbb q -0.0
  290         n3     10    bbb     N1    290 -0.59685800  14.010000   ; qtot -0.596866
  291         c3     10    bbb     C1    291 0.10137000  12.010000   ; qtot -0.495496
  292         h1     10    bbb     H1    292 0.04411300   1.008000   ; qtot -0.451383
  293         h1     10    bbb     H2    293 0.04411300   1.008000   ; qtot -0.407270
  294         c3     10    bbb     C2    294 0.10137000  12.010000   ; qtot -0.305900
  295         h1     10    bbb     H3    295 0.04411300   1.008000   ; qtot -0.261787
  296         h1     10    bbb     H4    296 0.04411300   1.008000   ; qtot -0.217674
  297         c3     10    bbb     C3    297 -0.00195300  12.010000   ; qtot -0.219627
  298         h1     10    bbb     H5    298 0.05064400   1.008000   ; qtot -0.168983
  299         h1     10    bbb     H6    299 0.05064400   1.008000   ; qtot -0.118339
  300         c3     10    bbb     C4    300 -0.01612100  12.010000   ; qtot -0.134460
  301         hc     10    bbb     H7    301 0.04936100   1.008000   ; qtot -0.085099
  302         hc     10    bbb     H8    302 0.04936100   1.008000   ; qtot -0.035738
  303         c3     10    bbb     C5    303 0.11363000  12.010000   ; qtot 0.077892
  304         hc     10    bbb     H9    304 0.06265900   1.008000   ; qtot 0.140551
  305         hc     10    bbb    H10    305 0.06265900   1.008000   ; qtot 0.203210
  306         c3     10    bbb     C6    306 0.11363000  12.010000   ; qtot 0.316840
  307         hc     10    bbb    H11    307 0.06265900   1.008000   ; qtot 0.379499
  308         hc     10    bbb    H12    308 0.06265900   1.008000   ; qtot 0.442158
  309         c3     10    bbb     C7    309 0.05858200  12.010000   ; qtot 0.500740
  310         h1     10    bbb    H13    310 0.06123400   1.008000   ; qtot 0.561974
  311         h1     10    bbb    H14    311 0.06123400   1.008000   ; qtot 0.623208
  312         c3     10    bbb     C8    312 -0.72423400  12.010000   ; qtot -0.101026
  313         h1     10    bbb    H15    313 0.25637600   1.008000   ; qtot 0.155350
  314         h1     10    bbb    H16    314 0.25637600   1.008000   ; qtot 0.411726
  315         c3     10    bbb     C9    315 -0.72423400  12.010000   ; qtot -0.312508
  316         h1     10    bbb    H17    316 0.25637600   1.008000   ; qtot -0.056132
  317         h1     10    bbb    H18    317 0.25637600   1.008000   ; qtot 0.200244
  318         os     10    bbb     O1    318 -0.20025300  16.000000   ; qtot -0.000009
; residue   11 bbb rtp bbb q -0.0
  319         n3     11    bbb     N1    319 -0.59685800  14.010000   ; qtot -0.596867
  320         c3     11    bbb     C1    320 0.10137000  12.010000   ; qtot -0.495497
  321         h1     11    bbb     H1    321 0.04411300   1.008000   ; qtot -0.451384
  322         h1     11    bbb     H2    322 0.04411300   1.008000   ; qtot -0.407271
  323         c3     11    bbb     C2    323 0.10137000  12.010000   ; qtot -0.305901
  324         h1     11    bbb     H3    324 0.04411300   1.008000   ; qtot -0.261788
  325         h1     11    bbb     H4    325 0.04411300   1.008000   ; qtot -0.217675
  326         c3     11    bbb     C3    326 -0.00195300  12.010000   ; qtot -0.219628
  327         h1     11    bbb     H5    327 0.05064400   1.008000   ; qtot -0.168984
  328         h1     11    bbb     H6    328 0.05064400   1.008000   ; qtot -0.118340
  329         c3     11    bbb     C4    329 -0.01612100  12.010000   ; qtot -0.134461
  330         hc     11    bbb     H7    330 0.04936100   1.008000   ; qtot -0.085100
  331         hc     11    bbb     H8    331 0.04936100   1.008000   ; qtot -0.035739
  332         c3     11    bbb     C5    332 0.11363000  12.010000   ; qtot 0.077891
  333         hc     11    bbb     H9    333 0.06265900   1.008000   ; qtot 0.140550
  334         hc     11    bbb    H10    334 0.06265900   1.008000   ; qtot 0.203209
  335         c3     11    bbb     C6    335 0.11363000  12.010000   ; qtot 0.316839
  336         hc     11    bbb    H11    336 0.06265900   1.008000   ; qtot 0.379498
  337         hc     11    bbb    H12    337 0.06265900   1.008000   ; qtot 0.442157
  338         c3     11    bbb     C7    338 0.05858200  12.010000   ; qtot 0.500739
  339         h1     11    bbb    H13    339 0.06123400   1.008000   ; qtot 0.561973
  340         h1     11    bbb    H14    340 0.06123400   1.008000   ; qtot 0.623207
  341         c3     11    bbb     C8    341 -0.72423400  12.010000   ; qtot -0.101027
  342         h1     11    bbb    H15    342 0.25637600   1.008000   ; qtot 0.155349
  343         h1     11    bbb    H16    343 0.25637600   1.008000   ; qtot 0.411725
  344         c3     11    bbb     C9    344 -0.72423400  12.010000   ; qtot -0.312509
  345         h1     11    bbb    H17    345 0.25637600   1.008000   ; qtot -0.056133
  346         h1     11    bbb    H18    346 0.25637600   1.008000   ; qtot 0.200243
  347         os     11    bbb     O1    347 -0.20025300  16.000000   ; qtot -0.000010
; residue   12 bbb rtp bbb q -0.0
  348         n3     12    bbb     N1    348 -0.59685800  14.010000   ; qtot -0.596868
  349         c3     12    bbb     C1    349 0.10137000  12.010000   ; qtot -0.495498
  350         h1     12    bbb     H1    350 0.04411300   1.008000   ; qtot -0.451385
  351         h1     12    bbb     H2    351 0.04411300   1.008000   ; qtot -0.407272
  352         c3     12    bbb     C2    352 0.10137000  12.010000   ; qtot -0.305902
  353         h1     12    bbb     H3    353 0.04411300   1.008000   ; qtot -0.261789
  354         h1     12    bbb     H4    354 0.04411300   1.008000   ; qtot -0.217676
  355         c3     12    bbb     C3    355 -0.00195300  12.010000   ; qtot -0.219629
  356         h1     12    bbb     H5    356 0.05064400   1.008000   ; qtot -0.168985
  357         h1     12    bbb     H6    357 0.05064400   1.008000   ; qtot -0.118341
  358         c3     12    bbb     C4    358 -0.01612100  12.010000   ; qtot -0.134462
  359         hc     12    bbb     H7    359 0.04936100   1.008000   ; qtot -0.085101
  360         hc     12    bbb     H8    360 0.04936100   1.008000   ; qtot -0.035740
  361         c3     12    bbb     C5    361 0.11363000  12.010000   ; qtot 0.077890
  362         hc     12    bbb     H9    362 0.06265900   1.008000   ; qtot 0.140549
  363         hc     12    bbb    H10    363 0.06265900   1.008000   ; qtot 0.203208
  364         c3     12    bbb     C6    364 0.11363000  12.010000   ; qtot 0.316838
  365         hc     12    bbb    H11    365 0.06265900   1.008000   ; qtot 0.379497
  366         hc     12    bbb    H12    366 0.06265900   1.008000   ; qtot 0.442156
  367         c3     12    bbb     C7    367 0.05858200  12.010000   ; qtot 0.500738
  368         h1     12    bbb    H13    368 0.06123400   1.008000   ; qtot 0.561972
  369         h1     12    bbb    H14    369 0.06123400   1.008000   ; qtot 0.623206
  370         c3     12    bbb     C8    370 -0.72423400  12.010000   ; qtot -0.101028
  371         h1     12    bbb    H15    371 0.25637600   1.008000   ; qtot 0.155348
  372         h1     12    bbb    H16    372 0.25637600   1.008000   ; qtot 0.411724
  373         c3     12    bbb     C9    373 -0.72423400  12.010000   ; qtot -0.312510
  374         h1     12    bbb    H17    374 0.25637600   1.008000   ; qtot -0.056134
  375         h1     12    bbb    H18    375 0.25637600   1.008000   ; qtot 0.200242
  376         os     12    bbb     O1    376 -0.20025300  16.000000   ; qtot -0.000011
; residue   13 bbb rtp bbb q -0.0
  377         n3     13    bbb     N1    377 -0.59685800  14.010000   ; qtot -0.596869
  378         c3     13    bbb     C1    378 0.10137000  12.010000   ; qtot -0.495499
  379         h1     13    bbb     H1    379 0.04411300   1.008000   ; qtot -0.451386
  380         h1     13    bbb     H2    380 0.04411300   1.008000   ; qtot -0.407273
  381         c3     13    bbb     C2    381 0.10137000  12.010000   ; qtot -0.305903
  382         h1     13    bbb     H3    382 0.04411300   1.008000   ; qtot -0.261790
  383         h1     13    bbb     H4    383 0.04411300   1.008000   ; qtot -0.217677
  384         c3     13    bbb     C3    384 -0.00195300  12.010000   ; qtot -0.219630
  385         h1     13    bbb     H5    385 0.05064400   1.008000   ; qtot -0.168986
  386         h1     13    bbb     H6    386 0.05064400   1.008000   ; qtot -0.118342
  387         c3     13    bbb     C4    387 -0.01612100  12.010000   ; qtot -0.134463
  388         hc     13    bbb     H7    388 0.04936100   1.008000   ; qtot -0.085102
  389         hc     13    bbb     H8    389 0.04936100   1.008000   ; qtot -0.035741
  390         c3     13    bbb     C5    390 0.11363000  12.010000   ; qtot 0.077889
  391         hc     13    bbb     H9    391 0.06265900   1.008000   ; qtot 0.140548
  392         hc     13    bbb    H10    392 0.06265900   1.008000   ; qtot 0.203207
  393         c3     13    bbb     C6    393 0.11363000  12.010000   ; qtot 0.316837
  394         hc     13    bbb    H11    394 0.06265900   1.008000   ; qtot 0.379496
  395         hc     13    bbb    H12    395 0.06265900   1.008000   ; qtot 0.442155
  396         c3     13    bbb     C7    396 0.05858200  12.010000   ; qtot 0.500737
  397         h1     13    bbb    H13    397 0.06123400   1.008000   ; qtot 0.561971
  398         h1     13    bbb    H14    398 0.06123400   1.008000   ; qtot 0.623205
  399         c3     13    bbb     C8    399 -0.72423400  12.010000   ; qtot -0.101029
  400         h1     13    bbb    H15    400 0.25637600   1.008000   ; qtot 0.155347
  401         h1     13    bbb    H16    401 0.25637600   1.008000   ; qtot 0.411723
  402         c3     13    bbb     C9    402 -0.72423400  12.010000   ; qtot -0.312511
  403         h1     13    bbb    H17    403 0.25637600   1.008000   ; qtot -0.056135
  404         h1     13    bbb    H18    404 0.25637600   1.008000   ; qtot 0.200241
  405         os     13    bbb     O1    405 -0.20025300  16.000000   ; qtot -0.000012
; residue   14 ccc rtp ccc q 0.0
  406         c3     14    ccc     C1    406 -0.33178800  12.010000   ; qtot -0.331800
  407         c3     14    ccc     C2    407 0.30606500  12.010000   ; qtot -0.025735
  408         h1     14    ccc     H1    408 0.11662300   1.008000   ; qtot 0.090888
  409         h1     14    ccc     H2    409 0.11526800   1.008000   ; qtot 0.206156
  410         c3     14    ccc     C3    410 0.15592700  12.010000   ; qtot 0.362083
  411         c3     14    ccc     C4    411 0.28383300  12.010000   ; qtot 0.645916
  412         c3     14    ccc     C5    412 0.32403300  12.010000   ; qtot 0.969949
  413         h1     14    ccc     H3    413 0.13386900   1.008000   ; qtot 1.103818
  414         h1     14    ccc     H4    414 0.10146700   1.008000   ; qtot 1.205285
  415         h2     14    ccc     H5    415 0.10960400   1.008000   ; qtot 1.314889
  416         os     14    ccc     O1    416 -0.28650000  16.000000   ; qtot 1.028389
  417         oh     14    ccc     O2    417 -0.86012500  16.000000   ; qtot 0.168264
  418         oh     14    ccc     O3    418 -0.83772800  16.000000   ; qtot -0.669464
  419         oh     14    ccc     O4    419 -0.77449700  16.000000   ; qtot -1.443961
  420         c3     14    ccc     C6    420 0.37576500  12.010000   ; qtot -1.068196
  421         ho     14    ccc     H6    421 0.53656000   1.008000   ; qtot -0.531636
  422         ho     14    ccc     H7    422 0.49492100   1.008000   ; qtot -0.036715
  423         ho     14    ccc     H8    423 0.51297200   1.008000   ; qtot 0.476257
  424         h1     14    ccc     H9    424 0.05653400   1.008000   ; qtot 0.532791
  425         h1     14    ccc    H10    425 0.05653400   1.008000   ; qtot 0.589325
  426         oh     14    ccc     O5    426 -0.84113600  16.000000   ; qtot -0.251811
  427         ho     14    ccc    H11    427 0.51201600   1.008000   ; qtot 0.260205
  428         os     14    ccc     O6    428 -0.26013600  16.000000   ; qtot 0.000069
; residue   15 ccc rtp ccc q 0.0
  429         c3     15    ccc     C1    429 -0.33178800  12.010000   ; qtot -0.331719
  430         c3     15    ccc     C2    430 0.30606500  12.010000   ; qtot -0.025654
  431         h1     15    ccc     H1    431 0.11662300   1.008000   ; qtot 0.090969
  432         h1     15    ccc     H2    432 0.11526800   1.008000   ; qtot 0.206237
  433         c3     15    ccc     C3    433 0.15592700  12.010000   ; qtot 0.362164
  434         c3     15    ccc     C4    434 0.28383300  12.010000   ; qtot 0.645997
  435         c3     15    ccc     C5    435 0.32403300  12.010000   ; qtot 0.970030
  436         h1     15    ccc     H3    436 0.13386900   1.008000   ; qtot 1.103899
  437         h1     15    ccc     H4    437 0.10146700   1.008000   ; qtot 1.205366
  438         h2     15    ccc     H5    438 0.10960400   1.008000   ; qtot 1.314970
  439         os     15    ccc     O1    439 -0.28650000  16.000000   ; qtot 1.028470
  440         oh     15    ccc     O2    440 -0.86012500  16.000000   ; qtot 0.168345
  441         oh     15    ccc     O3    441 -0.83772800  16.000000   ; qtot -0.669383
  442         oh     15    ccc     O4    442 -0.77449700  16.000000   ; qtot -1.443880
  443         c3     15    ccc     C6    443 0.37576500  12.010000   ; qtot -1.068115
  444         ho     15    ccc     H6    444 0.53656000   1.008000   ; qtot -0.531555
  445         ho     15    ccc     H7    445 0.49492100   1.008000   ; qtot -0.036634
  446         ho     15    ccc     H8    446 0.51297200   1.008000   ; qtot 0.476338
  447         h1     15    ccc     H9    447 0.05653400   1.008000   ; qtot 0.532872
  448         h1     15    ccc    H10    448 0.05653400   1.008000   ; qtot 0.589406
  449         oh     15    ccc     O5    449 -0.84113600  16.000000   ; qtot -0.251730
  450         ho     15    ccc    H11    450 0.51201600   1.008000   ; qtot 0.260286
  451         os     15    ccc     O6    451 -0.26013600  16.000000   ; qtot 0.000150
; residue   16 ccc rtp ccc q 0.0
  452         c3     16    ccc     C1    452 -0.33178800  12.010000   ; qtot -0.331638
  453         c3     16    ccc     C2    453 0.30606500  12.010000   ; qtot -0.025573
  454         h1     16    ccc     H1    454 0.11662300   1.008000   ; qtot 0.091050
  455         h1     16    ccc     H2    455 0.11526800   1.008000   ; qtot 0.206318
  456         c3     16    ccc     C3    456 0.15592700  12.010000   ; qtot 0.362245
  457         c3     16    ccc     C4    457 0.28383300  12.010000   ; qtot 0.646078
  458         c3     16    ccc     C5    458 0.32403300  12.010000   ; qtot 0.970111
  459         h1     16    ccc     H3    459 0.13386900   1.008000   ; qtot 1.103980
  460         h1     16    ccc     H4    460 0.10146700   1.008000   ; qtot 1.205447
  461         h2     16    ccc     H5    461 0.10960400   1.008000   ; qtot 1.315051
  462         os     16    ccc     O1    462 -0.28650000  16.000000   ; qtot 1.028551
  463         oh     16    ccc     O2    463 -0.86012500  16.000000   ; qtot 0.168426
  464         oh     16    ccc     O3    464 -0.83772800  16.000000   ; qtot -0.669302
  465         oh     16    ccc     O4    465 -0.77449700  16.000000   ; qtot -1.443799
  466         c3     16    ccc     C6    466 0.37576500  12.010000   ; qtot -1.068034
  467         ho     16    ccc     H6    467 0.53656000   1.008000   ; qtot -0.531474
  468         ho     16    ccc     H7    468 0.49492100   1.008000   ; qtot -0.036553
  469         ho     16    ccc     H8    469 0.51297200   1.008000   ; qtot 0.476419
  470         h1     16    ccc     H9    470 0.05653400   1.008000   ; qtot 0.532953
  471         h1     16    ccc    H10    471 0.05653400   1.008000   ; qtot 0.589487
  472         oh     16    ccc     O5    472 -0.84113600  16.000000   ; qtot -0.251649
  473         ho     16    ccc    H11    473 0.51201600   1.008000   ; qtot 0.260367
  474         os     16    ccc     O6    474 -0.26013600  16.000000   ; qtot 0.000231
; residue   17 ccc rtp ccc q 0.0
  475         c3     17    ccc     C1    475 -0.33178800  12.010000   ; qtot -0.331557
  476         c3     17    ccc     C2    476 0.30606500  12.010000   ; qtot -0.025492
  477         h1     17    ccc     H1    477 0.11662300   1.008000   ; qtot 0.091131
  478         h1     17    ccc     H2    478 0.11526800   1.008000   ; qtot 0.206399
  479         c3     17    ccc     C3    479 0.15592700  12.010000   ; qtot 0.362326
  480         c3     17    ccc     C4    480 0.28383300  12.010000   ; qtot 0.646159
  481         c3     17    ccc     C5    481 0.32403300  12.010000   ; qtot 0.970192
  482         h1     17    ccc     H3    482 0.13386900   1.008000   ; qtot 1.104061
  483         h1     17    ccc     H4    483 0.10146700   1.008000   ; qtot 1.205528
  484         h2     17    ccc     H5    484 0.10960400   1.008000   ; qtot 1.315132
  485         os     17    ccc     O1    485 -0.28650000  16.000000   ; qtot 1.028632
  486         oh     17    ccc     O2    486 -0.86012500  16.000000   ; qtot 0.168507
  487         oh     17    ccc     O3    487 -0.83772800  16.000000   ; qtot -0.669221
  488         oh     17    ccc     O4    488 -0.77449700  16.000000   ; qtot -1.443718
  489         c3     17    ccc     C6    489 0.37576500  12.010000   ; qtot -1.067953
  490         ho     17    ccc     H6    490 0.53656000   1.008000   ; qtot -0.531393
  491         ho     17    ccc     H7    491 0.49492100   1.008000   ; qtot -0.036472
  492         ho     17    ccc     H8    492 0.51297200   1.008000   ; qtot 0.476500
  493         h1     17    ccc     H9    493 0.05653400   1.008000   ; qtot 0.533034
  494         h1     17    ccc    H10    494 0.05653400   1.008000   ; qtot 0.589568
  495         oh     17    ccc     O5    495 -0.84113600  16.000000   ; qtot -0.251568
  496         ho     17    ccc    H11    496 0.51201600   1.008000   ; qtot 0.260448
  497         os     17    ccc     O6    497 -0.26013600  16.000000   ; qtot 0.000312
; residue   18 ccc rtp ccc q 0.0
  498         c3     18    ccc     C1    498 -0.33178800  12.010000   ; qtot -0.331476
  499         c3     18    ccc     C2    499 0.30606500  12.010000   ; qtot -0.025411
  500         h1     18    ccc     H1    500 0.11662300   1.008000   ; qtot 0.091212
  501         h1     18    ccc     H2    501 0.11526800   1.008000   ; qtot 0.206480
  502         c3     18    ccc     C3    502 0.15592700  12.010000   ; qtot 0.362407
  503         c3     18    ccc     C4    503 0.28383300  12.010000   ; qtot 0.646240
  504         c3     18    ccc     C5    504 0.32403300  12.010000   ; qtot 0.970273
  505         h1     18    ccc     H3    505 0.13386900   1.008000   ; qtot 1.104142
  506         h1     18    ccc     H4    506 0.10146700   1.008000   ; qtot 1.205609
  507         h2     18    ccc     H5    507 0.10960400   1.008000   ; qtot 1.315213
  508         os     18    ccc     O1    508 -0.28650000  16.000000   ; qtot 1.028713
  509         oh     18    ccc     O2    509 -0.86012500  16.000000   ; qtot 0.168588
  510         oh     18    ccc     O3    510 -0.83772800  16.000000   ; qtot -0.669140
  511         oh     18    ccc     O4    511 -0.77449700  16.000000   ; qtot -1.443637
  512         c3     18    ccc     C6    512 0.37576500  12.010000   ; qtot -1.067872
  513         ho     18    ccc     H6    513 0.53656000   1.008000   ; qtot -0.531312
  514         ho     18    ccc     H7    514 0.49492100   1.008000   ; qtot -0.036391
  515         ho     18    ccc     H8    515 0.51297200   1.008000   ; qtot 0.476581
  516         h1     18    ccc     H9    516 0.05653400   1.008000   ; qtot 0.533115
  517         h1     18    ccc    H10    517 0.05653400   1.008000   ; qtot 0.589649
  518         oh     18    ccc     O5    518 -0.84113600  16.000000   ; qtot -0.251487
  519         ho     18    ccc    H11    519 0.51201600   1.008000   ; qtot 0.260529
  520         os     18    ccc     O6    520 -0.26013600  16.000000   ; qtot 0.000393
; residue   19 ccc rtp ccc q 0.0
  521         c3     19    ccc     C1    521 -0.33178800  12.010000   ; qtot -0.331395
  522         c3     19    ccc     C2    522 0.30606500  12.010000   ; qtot -0.025330
  523         h1     19    ccc     H1    523 0.11662300   1.008000   ; qtot 0.091293
  524         h1     19    ccc     H2    524 0.11526800   1.008000   ; qtot 0.206561
  525         c3     19    ccc     C3    525 0.15592700  12.010000   ; qtot 0.362488
  526         c3     19    ccc     C4    526 0.28383300  12.010000   ; qtot 0.646321
  527         c3     19    ccc     C5    527 0.32403300  12.010000   ; qtot 0.970354
  528         h1     19    ccc     H3    528 0.13386900   1.008000   ; qtot 1.104223
  529         h1     19    ccc     H4    529 0.10146700   1.008000   ; qtot 1.205690
  530         h2     19    ccc     H5    530 0.10960400   1.008000   ; qtot 1.315294
  531         os     19    ccc     O1    531 -0.28650000  16.000000   ; qtot 1.028794
  532         oh     19    ccc     O2    532 -0.86012500  16.000000   ; qtot 0.168669
  533         oh     19    ccc     O3    533 -0.83772800  16.000000   ; qtot -0.669059
  534         oh     19    ccc     O4    534 -0.77449700  16.000000   ; qtot -1.443556
  535         c3     19    ccc     C6    535 0.37576500  12.010000   ; qtot -1.067791
  536         ho     19    ccc     H6    536 0.53656000   1.008000   ; qtot -0.531231
  537         ho     19    ccc     H7    537 0.49492100   1.008000   ; qtot -0.036310
  538         ho     19    ccc     H8    538 0.51297200   1.008000   ; qtot 0.476662
  539         h1     19    ccc     H9    539 0.05653400   1.008000   ; qtot 0.533196
  540         h1     19    ccc    H10    540 0.05653400   1.008000   ; qtot 0.589730
  541         oh     19    ccc     O5    541 -0.84113600  16.000000   ; qtot -0.251406
  542         ho     19    ccc    H11    542 0.51201600   1.008000   ; qtot 0.260610
  543         os     19    ccc     O6    543 -0.26013600  16.000000   ; qtot 0.000474
; residue   20 ccc rtp ccc q 0.0
  544         c3     20    ccc     C1    544 -0.33178800  12.010000   ; qtot -0.331314
  545         c3     20    ccc     C2    545 0.30606500  12.010000   ; qtot -0.025249
  546         h1     20    ccc     H1    546 0.11662300   1.008000   ; qtot 0.091374
  547         h1     20    ccc     H2    547 0.11526800   1.008000   ; qtot 0.206642
  548         c3     20    ccc     C3    548 0.15592700  12.010000   ; qtot 0.362569
  549         c3     20    ccc     C4    549 0.28383300  12.010000   ; qtot 0.646402
  550         c3     20    ccc     C5    550 0.32403300  12.010000   ; qtot 0.970435
  551         h1     20    ccc     H3    551 0.13386900   1.008000   ; qtot 1.104304
  552         h1     20    ccc     H4    552 0.10146700   1.008000   ; qtot 1.205771
  553         h2     20    ccc     H5    553 0.10960400   1.008000   ; qtot 1.315375
  554         os     20    ccc     O1    554 -0.28650000  16.000000   ; qtot 1.028875
  555         oh     20    ccc     O2    555 -0.86012500  16.000000   ; qtot 0.168750
  556         oh     20    ccc     O3    556 -0.83772800  16.000000   ; qtot -0.668978
  557         oh     20    ccc     O4    557 -0.77449700  16.000000   ; qtot -1.443475
  558         c3     20    ccc     C6    558 0.37576500  12.010000   ; qtot -1.067710
  559         ho     20    ccc     H6    559 0.53656000   1.008000   ; qtot -0.531150
  560         ho     20    ccc     H7    560 0.49492100   1.008000   ; qtot -0.036229
  561         ho     20    ccc     H8    561 0.51297200   1.008000   ; qtot 0.476743
  562         h1     20    ccc     H9    562 0.05653400   1.008000   ; qtot 0.533277
  563         h1     20    ccc    H10    563 0.05653400   1.008000   ; qtot 0.589811
  564         oh     20    ccc     O5    564 -0.84113600  16.000000   ; qtot -0.251325
  565         ho     20    ccc    H11    565 0.51201600   1.008000   ; qtot 0.260691
  566         os     20    ccc     O6    566 -0.26013600  16.000000   ; qtot 0.000555
; residue   21 ccc rtp ccc q 0.0
  567         c3     21    ccc     C1    567 -0.33178800  12.010000   ; qtot -0.331233
  568         c3     21    ccc     C2    568 0.30606500  12.010000   ; qtot -0.025168
  569         h1     21    ccc     H1    569 0.11662300   1.008000   ; qtot 0.091455
  570         h1     21    ccc     H2    570 0.11526800   1.008000   ; qtot 0.206723
  571         c3     21    ccc     C3    571 0.15592700  12.010000   ; qtot 0.362650
  572         c3     21    ccc     C4    572 0.28383300  12.010000   ; qtot 0.646483
  573         c3     21    ccc     C5    573 0.32403300  12.010000   ; qtot 0.970516
  574         h1     21    ccc     H3    574 0.13386900   1.008000   ; qtot 1.104385
  575         h1     21    ccc     H4    575 0.10146700   1.008000   ; qtot 1.205852
  576         h2     21    ccc     H5    576 0.10960400   1.008000   ; qtot 1.315456
  577         os     21    ccc     O1    577 -0.28650000  16.000000   ; qtot 1.028956
  578         oh     21    ccc     O2    578 -0.86012500  16.000000   ; qtot 0.168831
  579         oh     21    ccc     O3    579 -0.83772800  16.000000   ; qtot -0.668897
  580         oh     21    ccc     O4    580 -0.77449700  16.000000   ; qtot -1.443394
  581         c3     21    ccc     C6    581 0.37576500  12.010000   ; qtot -1.067629
  582         ho     21    ccc     H6    582 0.53656000   1.008000   ; qtot -0.531069
  583         ho     21    ccc     H7    583 0.49492100   1.008000   ; qtot -0.036148
  584         ho     21    ccc     H8    584 0.51297200   1.008000   ; qtot 0.476824
  585         h1     21    ccc     H9    585 0.05653400   1.008000   ; qtot 0.533358
  586         h1     21    ccc    H10    586 0.05653400   1.008000   ; qtot 0.589892
  587         oh     21    ccc     O5    587 -0.84113600  16.000000   ; qtot -0.251244
  588         ho     21    ccc    H11    588 0.51201600   1.008000   ; qtot 0.260772
  589         os     21    ccc     O6    589 -0.26013600  16.000000   ; qtot 0.000636
; residue   22 ccc rtp ccc q 0.0
  590         c3     22    ccc     C1    590 -0.33178800  12.010000   ; qtot -0.331152
  591         c3     22    ccc     C2    591 0.30606500  12.010000   ; qtot -0.025087
  592         h1     22    ccc     H1    592 0.11662300   1.008000   ; qtot 0.091536
  593         h1     22    ccc     H2    593 0.11526800   1.008000   ; qtot 0.206804
  594         c3     22    ccc     C3    594 0.15592700  12.010000   ; qtot 0.362731
  595         c3     22    ccc     C4    595 0.28383300  12.010000   ; qtot 0.646564
  596         c3     22    ccc     C5    596 0.32403300  12.010000   ; qtot 0.970597
  597         h1     22    ccc     H3    597 0.13386900   1.008000   ; qtot 1.104466
  598         h1     22    ccc     H4    598 0.10146700   1.008000   ; qtot 1.205933
  599         h2     22    ccc     H5    599 0.10960400   1.008000   ; qtot 1.315537
  600         os     22    ccc     O1    600 -0.28650000  16.000000   ; qtot 1.029037
  601         oh     22    ccc     O2    601 -0.86012500  16.000000   ; qtot 0.168912
  602         oh     22    ccc     O3    602 -0.83772800  16.000000   ; qtot -0.668816
  603         oh     22    ccc     O4    603 -0.77449700  16.000000   ; qtot -1.443313
  604         c3     22    ccc     C6    604 0.37576500  12.010000   ; qtot -1.067548
  605         ho     22    ccc     H6    605 0.53656000   1.008000   ; qtot -0.530988
  606         ho     22    ccc     H7    606 0.49492100   1.008000   ; qtot -0.036067
  607         ho     22    ccc     H8    607 0.51297200   1.008000   ; qtot 0.476905
  608         h1     22    ccc     H9    608 0.05653400   1.008000   ; qtot 0.533439
  609         h1     22    ccc    H10    609 0.05653400   1.008000   ; qtot 0.589973
  610         oh     22    ccc     O5    610 -0.84113600  16.000000   ; qtot -0.251163
  611         ho     22    ccc    H11    611 0.51201600   1.008000   ; qtot 0.260853
  612         os     22    ccc     O6    612 -0.26013600  16.000000   ; qtot 0.000717
; residue   23 ccc rtp ccc q 0.0
  613         c3     23    ccc     C1    613 -0.33178800  12.010000   ; qtot -0.331071
  614         c3     23    ccc     C2    614 0.30606500  12.010000   ; qtot -0.025006
  615         h1     23    ccc     H1    615 0.11662300   1.008000   ; qtot 0.091617
  616         h1     23    ccc     H2    616 0.11526800   1.008000   ; qtot 0.206885
  617         c3     23    ccc     C3    617 0.15592700  12.010000   ; qtot 0.362812
  618         c3     23    ccc     C4    618 0.28383300  12.010000   ; qtot 0.646645
  619         c3     23    ccc     C5    619 0.32403300  12.010000   ; qtot 0.970678
  620         h1     23    ccc     H3    620 0.13386900   1.008000   ; qtot 1.104547
  621         h1     23    ccc     H4    621 0.10146700   1.008000   ; qtot 1.206014
  622         h2     23    ccc     H5    622 0.10960400   1.008000   ; qtot 1.315618
  623         os     23    ccc     O1    623 -0.28650000  16.000000   ; qtot 1.029118
  624         oh     23    ccc     O2    624 -0.86012500  16.000000   ; qtot 0.168993
  625         oh     23    ccc     O3    625 -0.83772800  16.000000   ; qtot -0.668735
  626         oh     23    ccc     O4    626 -0.77449700  16.000000   ; qtot -1.443232
  627         c3     23    ccc     C6    627 0.37576500  12.010000   ; qtot -1.067467
  628         ho     23    ccc     H6    628 0.53656000   1.008000   ; qtot -0.530907
  629         ho     23    ccc     H7    629 0.49492100   1.008000   ; qtot -0.035986
  630         ho     23    ccc     H8    630 0.51297200   1.008000   ; qtot 0.476986
  631         h1     23    ccc     H9    631 0.05653400   1.008000   ; qtot 0.533520
  632         h1     23    ccc    H10    632 0.05653400   1.008000   ; qtot 0.590054
  633         oh     23    ccc     O5    633 -0.84113600  16.000000   ; qtot -0.251082
  634         ho     23    ccc    H11    634 0.51201600   1.008000   ; qtot 0.260934
  635         os     23    ccc     O6    635 -0.26013600  16.000000   ; qtot 0.000798
; residue   24 ccc rtp ccc q 0.0
  636         c3     24    ccc     C1    636 -0.33178800  12.010000   ; qtot -0.330990
  637         c3     24    ccc     C2    637 0.30606500  12.010000   ; qtot -0.024925
  638         h1     24    ccc     H1    638 0.11662300   1.008000   ; qtot 0.091698
  639         h1     24    ccc     H2    639 0.11526800   1.008000   ; qtot 0.206966
  640         c3     24    ccc     C3    640 0.15592700  12.010000   ; qtot 0.362893
  641         c3     24    ccc     C4    641 0.28383300  12.010000   ; qtot 0.646726
  642         c3     24    ccc     C5    642 0.32403300  12.010000   ; qtot 0.970759
  643         h1     24    ccc     H3    643 0.13386900   1.008000   ; qtot 1.104628
  644         h1     24    ccc     H4    644 0.10146700   1.008000   ; qtot 1.206095
  645         h2     24    ccc     H5    645 0.10960400   1.008000   ; qtot 1.315699
  646         os     24    ccc     O1    646 -0.28650000  16.000000   ; qtot 1.029199
  647         oh     24    ccc     O2    647 -0.86012500  16.000000   ; qtot 0.169074
  648         oh     24    ccc     O3    648 -0.83772800  16.000000   ; qtot -0.668654
  649         oh     24    ccc     O4    649 -0.77449700  16.000000   ; qtot -1.443151
  650         c3     24    ccc     C6    650 0.37576500  12.010000   ; qtot -1.067386
  651         ho     24    ccc     H6    651 0.53656000   1.008000   ; qtot -0.530826
  652         ho     24    ccc     H7    652 0.49492100   1.008000   ; qtot -0.035905
  653         ho     24    ccc     H8    653 0.51297200   1.008000   ; qtot 0.477067
  654         h1     24    ccc     H9    654 0.05653400   1.008000   ; qtot 0.533601
  655         h1     24    ccc    H10    655 0.05653400   1.008000   ; qtot 0.590135
  656         oh     24    ccc     O5    656 -0.84113600  16.000000   ; qtot -0.251001
  657         ho     24    ccc    H11    657 0.51201600   1.008000   ; qtot 0.261015
  658         os     24    ccc     O6    658 -0.26013600  16.000000   ; qtot 0.000879
; residue   25 ccc rtp ccc q 0.0
  659         c3     25    ccc     C1    659 -0.33178800  12.010000   ; qtot -0.330909
  660         c3     25    ccc     C2    660 0.30606500  12.010000   ; qtot -0.024844
  661         h1     25    ccc     H1    661 0.11662300   1.008000   ; qtot 0.091779
  662         h1     25    ccc     H2    662 0.11526800   1.008000   ; qtot 0.207047
  663         c3     25    ccc     C3    663 0.15592700  12.010000   ; qtot 0.362974
  664         c3     25    ccc     C4    664 0.28383300  12.010000   ; qtot 0.646807
  665         c3     25    ccc     C5    665 0.32403300  12.010000   ; qtot 0.970840
  666         h1     25    ccc     H3    666 0.13386900   1.008000   ; qtot 1.104709
  667         h1     25    ccc     H4    667 0.10146700   1.008000   ; qtot 1.206176
  668         h2     25    ccc     H5    668 0.10960400   1.008000   ; qtot 1.315780
  669         os     25    ccc     O1    669 -0.28650000  16.000000   ; qtot 1.029280
  670         oh     25    ccc     O2    670 -0.86012500  16.000000   ; qtot 0.169155
  671         oh     25    ccc     O3    671 -0.83772800  16.000000   ; qtot -0.668573
  672         oh     25    ccc     O4    672 -0.77449700  16.000000   ; qtot -1.443070
  673         c3     25    ccc     C6    673 0.37576500  12.010000   ; qtot -1.067305
  674         ho     25    ccc     H6    674 0.53656000   1.008000   ; qtot -0.530745
  675         ho     25    ccc     H7    675 0.49492100   1.008000   ; qtot -0.035824
  676         ho     25    ccc     H8    676 0.51297200   1.008000   ; qtot 0.477148
  677         h1     25    ccc     H9    677 0.05653400   1.008000   ; qtot 0.533682
  678         h1     25    ccc    H10    678 0.05653400   1.008000   ; qtot 0.590216
  679         oh     25    ccc     O5    679 -0.84113600  16.000000   ; qtot -0.250920
  680         ho     25    ccc    H11    680 0.51201600   1.008000   ; qtot 0.261096
  681         os     25    ccc     O6    681 -0.26013600  16.000000   ; qtot 0.000960
; residue   26 ccc rtp ccc q 0.0
  682         c3     26    ccc     C1    682 -0.33178800  12.010000   ; qtot -0.330828
  683         c3     26    ccc     C2    683 0.30606500  12.010000   ; qtot -0.024763
  684         h1     26    ccc     H1    684 0.11662300   1.008000   ; qtot 0.091860
  685         h1     26    ccc     H2    685 0.11526800   1.008000   ; qtot 0.207128
  686         c3     26    ccc     C3    686 0.15592700  12.010000   ; qtot 0.363055
  687         c3     26    ccc     C4    687 0.28383300  12.010000   ; qtot 0.646888
  688         c3     26    ccc     C5    688 0.32403300  12.010000   ; qtot 0.970921
  689         h1     26    ccc     H3    689 0.13386900   1.008000   ; qtot 1.104790
  690         h1     26    ccc     H4    690 0.10146700   1.008000   ; qtot 1.206257
  691         h2     26    ccc     H5    691 0.10960400   1.008000   ; qtot 1.315861
  692         os     26    ccc     O1    692 -0.28650000  16.000000   ; qtot 1.029361
  693         oh     26    ccc     O2    693 -0.86012500  16.000000   ; qtot 0.169236
  694         oh     26    ccc     O3    694 -0.83772800  16.000000   ; qtot -0.668492
  695         oh     26    ccc     O4    695 -0.77449700  16.000000   ; qtot -1.442989
  696         c3     26    ccc     C6    696 0.37576500  12.010000   ; qtot -1.067224
  697         ho     26    ccc     H6    697 0.53656000   1.008000   ; qtot -0.530664
  698         ho     26    ccc     H7    698 0.49492100   1.008000   ; qtot -0.035743
  699         ho     26    ccc     H8    699 0.51297200   1.008000   ; qtot 0.477229
  700         h1     26    ccc     H9    700 0.05653400   1.008000   ; qtot 0.533763
  701         h1     26    ccc    H10    701 0.05653400   1.008000   ; qtot 0.590297
  702         oh     26    ccc     O5    702 -0.84113600  16.000000   ; qtot -0.250839
  703         ho     26    ccc    H11    703 0.51201600   1.008000   ; qtot 0.261177
  704         os     26    ccc     O6    704 -0.26013600  16.000000   ; qtot 0.001041
; residue   27 ccc rtp ccc q 0.0
  705         c3     27    ccc     C1    705 -0.33178800  12.010000   ; qtot -0.330747
  706         c3     27    ccc     C2    706 0.30606500  12.010000   ; qtot -0.024682
  707         h1     27    ccc     H1    707 0.11662300   1.008000   ; qtot 0.091941
  708         h1     27    ccc     H2    708 0.11526800   1.008000   ; qtot 0.207209
  709         c3     27    ccc     C3    709 0.15592700  12.010000   ; qtot 0.363136
  710         c3     27    ccc     C4    710 0.28383300  12.010000   ; qtot 0.646969
  711         c3     27    ccc     C5    711 0.32403300  12.010000   ; qtot 0.971002
  712         h1     27    ccc     H3    712 0.13386900   1.008000   ; qtot 1.104871
  713         h1     27    ccc     H4    713 0.10146700   1.008000   ; qtot 1.206338
  714         h2     27    ccc     H5    714 0.10960400   1.008000   ; qtot 1.315942
  715         os     27    ccc     O1    715 -0.28650000  16.000000   ; qtot 1.029442
  716         oh     27    ccc     O2    716 -0.86012500  16.000000   ; qtot 0.169317
  717         oh     27    ccc     O3    717 -0.83772800  16.000000   ; qtot -0.668411
  718         oh     27    ccc     O4    718 -0.77449700  16.000000   ; qtot -1.442908
  719         c3     27    ccc     C6    719 0.37576500  12.010000   ; qtot -1.067143
  720         ho     27    ccc     H6    720 0.53656000   1.008000   ; qtot -0.530583
  721         ho     27    ccc     H7    721 0.49492100   1.008000   ; qtot -0.035662
  722         ho     27    ccc     H8    722 0.51297200   1.008000   ; qtot 0.477310
  723         h1     27    ccc     H9    723 0.05653400   1.008000   ; qtot 0.533844
  724         h1     27    ccc    H10    724 0.05653400   1.008000   ; qtot 0.590378
  725         oh     27    ccc     O5    725 -0.84113600  16.000000   ; qtot -0.250758
  726         ho     27    ccc    H11    726 0.51201600   1.008000   ; qtot 0.261258
  727         os     27    ccc     O6    727 -0.26013600  16.000000   ; qtot 0.001122
; residue   28 ccc rtp ccc q 0.0
  728         c3     28    ccc     C1    728 -0.33178800  12.010000   ; qtot -0.330666
  729         c3     28    ccc     C2    729 0.30606500  12.010000   ; qtot -0.024601
  730         h1     28    ccc     H1    730 0.11662300   1.008000   ; qtot 0.092022
  731         h1     28    ccc     H2    731 0.11526800   1.008000   ; qtot 0.207290
  732         c3     28    ccc     C3    732 0.15592700  12.010000   ; qtot 0.363217
  733         c3     28    ccc     C4    733 0.28383300  12.010000   ; qtot 0.647050
  734         c3     28    ccc     C5    734 0.32403300  12.010000   ; qtot 0.971083
  735         h1     28    ccc     H3    735 0.13386900   1.008000   ; qtot 1.104952
  736         h1     28    ccc     H4    736 0.10146700   1.008000   ; qtot 1.206419
  737         h2     28    ccc     H5    737 0.10960400   1.008000   ; qtot 1.316023
  738         os     28    ccc     O1    738 -0.28650000  16.000000   ; qtot 1.029523
  739         oh     28    ccc     O2    739 -0.86012500  16.000000   ; qtot 0.169398
  740         oh     28    ccc     O3    740 -0.83772800  16.000000   ; qtot -0.668330
  741         oh     28    ccc     O4    741 -0.77449700  16.000000   ; qtot -1.442827
  742         c3     28    ccc     C6    742 0.37576500  12.010000   ; qtot -1.067062
  743         ho     28    ccc     H6    743 0.53656000   1.008000   ; qtot -0.530502
  744         ho     28    ccc     H7    744 0.49492100   1.008000   ; qtot -0.035581
  745         ho     28    ccc     H8    745 0.51297200   1.008000   ; qtot 0.477391
  746         h1     28    ccc     H9    746 0.05653400   1.008000   ; qtot 0.533925
  747         h1     28    ccc    H10    747 0.05653400   1.008000   ; qtot 0.590459
  748         oh     28    ccc     O5    748 -0.84113600  16.000000   ; qtot -0.250677
  749         ho     28    ccc    H11    749 0.51201600   1.008000   ; qtot 0.261339
  750         os     28    ccc     O6    750 -0.26013600  16.000000   ; qtot 0.001203
; residue   29 ccc rtp ccc q 0.0
  751         c3     29    ccc     C1    751 -0.33178800  12.010000   ; qtot -0.330585
  752         c3     29    ccc     C2    752 0.30606500  12.010000   ; qtot -0.024520
  753         h1     29    ccc     H1    753 0.11662300   1.008000   ; qtot 0.092103
  754         h1     29    ccc     H2    754 0.11526800   1.008000   ; qtot 0.207371
  755         c3     29    ccc     C3    755 0.15592700  12.010000   ; qtot 0.363298
  756         c3     29    ccc     C4    756 0.28383300  12.010000   ; qtot 0.647131
  757         c3     29    ccc     C5    757 0.32403300  12.010000   ; qtot 0.971164
  758         h1     29    ccc     H3    758 0.13386900   1.008000   ; qtot 1.105033
  759         h1     29    ccc     H4    759 0.10146700   1.008000   ; qtot 1.206500
  760         h2     29    ccc     H5    760 0.10960400   1.008000   ; qtot 1.316104
  761         os     29    ccc     O1    761 -0.28650000  16.000000   ; qtot 1.029604
  762         oh     29    ccc     O2    762 -0.86012500  16.000000   ; qtot 0.169479
  763         oh     29    ccc     O3    763 -0.83772800  16.000000   ; qtot -0.668249
  764         oh     29    ccc     O4    764 -0.77449700  16.000000   ; qtot -1.442746
  765         c3     29    ccc     C6    765 0.37576500  12.010000   ; qtot -1.066981
  766         ho     29    ccc     H6    766 0.53656000   1.008000   ; qtot -0.530421
  767         ho     29    ccc     H7    767 0.49492100   1.008000   ; qtot -0.035500
  768         ho     29    ccc     H8    768 0.51297200   1.008000   ; qtot 0.477472
  769         h1     29    ccc     H9    769 0.05653400   1.008000   ; qtot 0.534006
  770         h1     29    ccc    H10    770 0.05653400   1.008000   ; qtot 0.590540
  771         oh     29    ccc     O5    771 -0.84113600  16.000000   ; qtot -0.250596
  772         ho     29    ccc    H11    772 0.51201600   1.008000   ; qtot 0.261420
  773         os     29    ccc     O6    773 -0.26013600  16.000000   ; qtot 0.001284

[ bonds ]
;    ai     aj funct         c0         c1         c2         c3
      1      2     1   0.14316 258236.480000
      1      5     1   0.14316 258236.480000
      2      8     1   0.15375 251793.120000
      5     11     1   0.15375 251793.120000
      8     14     1   0.15375 251793.120000
     11     17     1   0.15375 251793.120000
     14     20     1   0.14647 272713.120000
     17     21     1   0.14647 272713.120000
     20     28     1   0.14647 272713.120000
     20     31     1   0.14647 272713.120000
     21     22     1   0.14647 272713.120000
     21     25     1   0.14647 272713.120000
     22     34     1   0.15375 251793.120000
     25     37     1   0.15375 251793.120000
     28     40     1   0.15375 251793.120000
     31     43     1   0.15375 251793.120000
     34     55     1   0.15375 251793.120000
     37     52     1   0.15375 251793.120000
     40     49     1   0.15375 251793.120000
     43     46     1   0.15375 251793.120000
     46     86     1   0.14316 258236.480000
     49    115     1   0.14316 258236.480000
     52    144     1   0.14316 258236.480000
     55    173     1   0.14316 258236.480000
     58     59     1   0.14647 272713.120000
     58     62     1   0.14647 272713.120000
     58     65     1   0.14647 272713.120000
     59     71     1   0.15375 251793.120000
     62     74     1   0.15375 251793.120000
     65     68     1   0.15375 251793.120000
     68     77     1   0.15375 251793.120000
     71     83     1   0.15375 251793.120000
     74     80     1   0.15375 251793.120000
     77     86     1   0.14316 258236.480000
     80    202     1   0.14316 258236.480000
     83    231     1   0.14316 258236.480000
     87     88     1   0.14647 272713.120000
     87     91     1   0.14647 272713.120000
     87     94     1   0.14647 272713.120000
     88    100     1   0.15375 251793.120000
     91    103     1   0.15375 251793.120000
     94     97     1   0.15375 251793.120000
     97    106     1   0.15375 251793.120000
    100    112     1   0.15375 251793.120000
    103    109     1   0.15375 251793.120000
    106    115     1   0.14316 258236.480000
    109    260     1   0.14316 258236.480000
    112    289     1   0.14316 258236.480000
    116    117     1   0.14647 272713.120000
    116    120     1   0.14647 272713.120000
    116    123     1   0.14647 272713.120000
    117    129     1   0.15375 251793.120000
    120    132     1   0.15375 251793.120000
    123    126     1   0.15375 251793.120000
    126    135     1   0.15375 251793.120000
    129    141     1   0.15375 251793.120000
    132    138     1   0.15375 251793.120000
    135    144     1   0.14316 258236.480000
    138    318     1   0.14316 258236.480000
    141    347     1   0.14316 258236.480000
    145    146     1   0.14647 272713.120000
    145    149     1   0.14647 272713.120000
    145    152     1   0.14647 272713.120000
    146    158     1   0.15375 251793.120000
    149    161     1   0.15375 251793.120000
    152    155     1   0.15375 251793.120000
    155    164     1   0.15375 251793.120000
    158    170     1   0.15375 251793.120000
    161    167     1   0.15375 251793.120000
    164    173     1   0.14316 258236.480000
    167    376     1   0.14316 258236.480000
    170    405     1   0.14316 258236.480000
    174    175     1   0.14647 272713.120000
    174    178     1   0.14647 272713.120000
    174    181     1   0.14647 272713.120000
    175    187     1   0.15375 251793.120000
    178    190     1   0.15375 251793.120000
    181    184     1   0.15375 251793.120000
    184    193     1   0.15375 251793.120000
    187    199     1   0.15375 251793.120000
    190    196     1   0.15375 251793.120000
    193    202     1   0.14316 258236.480000
    196    416     1   0.14316 258236.480000
    199    439     1   0.14316 258236.480000
    203    204     1   0.14647 272713.120000
    203    207     1   0.14647 272713.120000
    203    210     1   0.14647 272713.120000
    204    216     1   0.15375 251793.120000
    207    219     1   0.15375 251793.120000
    210    213     1   0.15375 251793.120000
    213    222     1   0.15375 251793.120000
    216    228     1   0.15375 251793.120000
    219    225     1   0.15375 251793.120000
    222    231     1   0.14316 258236.480000
    225    462     1   0.14316 258236.480000
    228    485     1   0.14316 258236.480000
    232    233     1   0.14647 272713.120000
    232    236     1   0.14647 272713.120000
    232    239     1   0.14647 272713.120000
    233    245     1   0.15375 251793.120000
    236    248     1   0.15375 251793.120000
    239    242     1   0.15375 251793.120000
    242    251     1   0.15375 251793.120000
    245    257     1   0.15375 251793.120000
    248    254     1   0.15375 251793.120000
    251    260     1   0.14316 258236.480000
    254    508     1   0.14316 258236.480000
    257    531     1   0.14316 258236.480000
    261    262     1   0.14647 272713.120000
    261    265     1   0.14647 272713.120000
    261    268     1   0.14647 272713.120000
    262    274     1   0.15375 251793.120000
    265    277     1   0.15375 251793.120000
    268    271     1   0.15375 251793.120000
    271    280     1   0.15375 251793.120000
    274    286     1   0.15375 251793.120000
    277    283     1   0.15375 251793.120000
    280    289     1   0.14316 258236.480000
    283    554     1   0.14316 258236.480000
    286    577     1   0.14316 258236.480000
    290    291     1   0.14647 272713.120000
    290    294     1   0.14647 272713.120000
    290    297     1   0.14647 272713.120000
    291    303     1   0.15375 251793.120000
    294    306     1   0.15375 251793.120000
    297    300     1   0.15375 251793.120000
    300    309     1   0.15375 251793.120000
    303    315     1   0.15375 251793.120000
    306    312     1   0.15375 251793.120000
    309    318     1   0.14316 258236.480000
    312    600     1   0.14316 258236.480000
    315    623     1   0.14316 258236.480000
    319    320     1   0.14647 272713.120000
    319    323     1   0.14647 272713.120000
    319    326     1   0.14647 272713.120000
    320    332     1   0.15375 251793.120000
    323    335     1   0.15375 251793.120000
    326    329     1   0.15375 251793.120000
    329    338     1   0.15375 251793.120000
    332    344     1   0.15375 251793.120000
    335    341     1   0.15375 251793.120000
    338    347     1   0.14316 258236.480000
    341    646     1   0.14316 258236.480000
    344    669     1   0.14316 258236.480000
    348    349     1   0.14647 272713.120000
    348    352     1   0.14647 272713.120000
    348    355     1   0.14647 272713.120000
    349    361     1   0.15375 251793.120000
    352    364     1   0.15375 251793.120000
    355    358     1   0.15375 251793.120000
    358    367     1   0.15375 251793.120000
    361    373     1   0.15375 251793.120000
    364    370     1   0.15375 251793.120000
    367    376     1   0.14316 258236.480000
    370    692     1   0.14316 258236.480000
    373    715     1   0.14316 258236.480000
    377    378     1   0.14647 272713.120000
    377    381     1   0.14647 272713.120000
    377    384     1   0.14647 272713.120000
    378    390     1   0.15375 251793.120000
    381    393     1   0.15375 251793.120000
    384    387     1   0.15375 251793.120000
    387    396     1   0.15375 251793.120000
    390    402     1   0.15375 251793.120000
    393    399     1   0.15375 251793.120000
    396    405     1   0.14316 258236.480000
    399    738     1   0.14316 258236.480000
    402    761     1   0.14316 258236.480000
    406    407     1   0.15375 251793.120000
    406    420     1   0.15375 251793.120000
    406    428     1   0.14316 258236.480000
    407    410     1   0.15375 251793.120000
    407    419     1   0.14233 265014.560000
    410    411     1   0.15375 251793.120000
    410    418     1   0.14233 265014.560000
    411    412     1   0.15375 251793.120000
    411    417     1   0.14233 265014.560000
    412    416     1   0.14316 258236.480000
    412    428     1   0.14316 258236.480000
    420    426     1   0.14233 265014.560000
    429    430     1   0.15375 251793.120000
    429    443     1   0.15375 251793.120000
    429    451     1   0.14316 258236.480000
    430    433     1   0.15375 251793.120000
    430    442     1   0.14233 265014.560000
    433    434     1   0.15375 251793.120000
    433    441     1   0.14233 265014.560000
    434    435     1   0.15375 251793.120000
    434    440     1   0.14233 265014.560000
    435    439     1   0.14316 258236.480000
    435    451     1   0.14316 258236.480000
    443    449     1   0.14233 265014.560000
    452    453     1   0.15375 251793.120000
    452    466     1   0.15375 251793.120000
    452    474     1   0.14316 258236.480000
    453    456     1   0.15375 251793.120000
    453    465     1   0.14233 265014.560000
    456    457     1   0.15375 251793.120000
    456    464     1   0.14233 265014.560000
    457    458     1   0.15375 251793.120000
    457    463     1   0.14233 265014.560000
    458    462     1   0.14316 258236.480000
    458    474     1   0.14316 258236.480000
    466    472     1   0.14233 265014.560000
    475    476     1   0.15375 251793.120000
    475    489     1   0.15375 251793.120000
    475    497     1   0.14316 258236.480000
    476    479     1   0.15375 251793.120000
    476    488     1   0.14233 265014.560000
    479    480     1   0.15375 251793.120000
    479    487     1   0.14233 265014.560000
    480    481     1   0.15375 251793.120000
    480    486     1   0.14233 265014.560000
    481    485     1   0.14316 258236.480000
    481    497     1   0.14316 258236.480000
    489    495     1   0.14233 265014.560000
    498    499     1   0.15375 251793.120000
    498    512     1   0.15375 251793.120000
    498    520     1   0.14316 258236.480000
    499    502     1   0.15375 251793.120000
    499    511     1   0.14233 265014.560000
    502    503     1   0.15375 251793.120000
    502    510     1   0.14233 265014.560000
    503    504     1   0.15375 251793.120000
    503    509     1   0.14233 265014.560000
    504    508     1   0.14316 258236.480000
    504    520     1   0.14316 258236.480000
    512    518     1   0.14233 265014.560000
    521    522     1   0.15375 251793.120000
    521    535     1   0.15375 251793.120000
    521    543     1   0.14316 258236.480000
    522    525     1   0.15375 251793.120000
    522    534     1   0.14233 265014.560000
    525    526     1   0.15375 251793.120000
    525    533     1   0.14233 265014.560000
    526    527     1   0.15375 251793.120000
    526    532     1   0.14233 265014.560000
    527    531     1   0.14316 258236.480000
    527    543     1   0.14316 258236.480000
    535    541     1   0.14233 265014.560000
    544    545     1   0.15375 251793.120000
    544    558     1   0.15375 251793.120000
    544    566     1   0.14316 258236.480000
    545    548     1   0.15375 251793.120000
    545    557     1   0.14233 265014.560000
    548    549     1   0.15375 251793.120000
    548    556     1   0.14233 265014.560000
    549    550     1   0.15375 251793.120000
    549    555     1   0.14233 265014.560000
    550    554     1   0.14316 258236.480000
    550    566     1   0.14316 258236.480000
    558    564     1   0.14233 265014.560000
    567    568     1   0.15375 251793.120000
    567    581     1   0.15375 251793.120000
    567    589     1   0.14316 258236.480000
    568    571     1   0.15375 251793.120000
    568    580     1   0.14233 265014.560000
    571    572     1   0.15375 251793.120000
    571    579     1   0.14233 265014.560000
    572    573     1   0.15375 251793.120000
    572    578     1   0.14233 265014.560000
    573    577     1   0.14316 258236.480000
    573    589     1   0.14316 258236.480000
    581    587     1   0.14233 265014.560000
    590    591     1   0.15375 251793.120000
    590    604     1   0.15375 251793.120000
    590    612     1   0.14316 258236.480000
    591    594     1   0.15375 251793.120000
    591    603     1   0.14233 265014.560000
    594    595     1   0.15375 251793.120000
    594    602     1   0.14233 265014.560000
    595    596     1   0.15375 251793.120000
    595    601     1   0.14233 265014.560000
    596    600     1   0.14316 258236.480000
    596    612     1   0.14316 258236.480000
    604    610     1   0.14233 265014.560000
    613    614     1   0.15375 251793.120000
    613    627     1   0.15375 251793.120000
    613    635     1   0.14316 258236.480000
    614    617     1   0.15375 251793.120000
    614    626     1   0.14233 265014.560000
    617    618     1   0.15375 251793.120000
    617    625     1   0.14233 265014.560000
    618    619     1   0.15375 251793.120000
    618    624     1   0.14233 265014.560000
    619    623     1   0.14316 258236.480000
    619    635     1   0.14316 258236.480000
    627    633     1   0.14233 265014.560000
    636    637     1   0.15375 251793.120000
    636    650     1   0.15375 251793.120000
    636    658     1   0.14316 258236.480000
    637    640     1   0.15375 251793.120000
    637    649     1   0.14233 265014.560000
    640    641     1   0.15375 251793.120000
    640    648     1   0.14233 265014.560000
    641    642     1   0.15375 251793.120000
    641    647     1   0.14233 265014.560000
    642    646     1   0.14316 258236.480000
    642    658     1   0.14316 258236.480000
    650    656     1   0.14233 265014.560000
    659    660     1   0.15375 251793.120000
    659    673     1   0.15375 251793.120000
    659    681     1   0.14316 258236.480000
    660    663     1   0.15375 251793.120000
    660    672     1   0.14233 265014.560000
    663    664     1   0.15375 251793.120000
    663    671     1   0.14233 265014.560000
    664    665     1   0.15375 251793.120000
    664    670     1   0.14233 265014.560000
    665    669     1   0.14316 258236.480000
    665    681     1   0.14316 258236.480000
    673    679     1   0.14233 265014.560000
    682    683     1   0.15375 251793.120000
    682    696     1   0.15375 251793.120000
    682    704     1   0.14316 258236.480000
    683    686     1   0.15375 251793.120000
    683    695     1   0.14233 265014.560000
    686    687     1   0.15375 251793.120000
    686    694     1   0.14233 265014.560000
    687    688     1   0.15375 251793.120000
    687    693     1   0.14233 265014.560000
    688    692     1   0.14316 258236.480000
    688    704     1   0.14316 258236.480000
    696    702     1   0.14233 265014.560000
    705    706     1   0.15375 251793.120000
    705    719     1   0.15375 251793.120000
    705    727     1   0.14316 258236.480000
    706    709     1   0.15375 251793.120000
    706    718     1   0.14233 265014.560000
    709    710     1   0.15375 251793.120000
    709    717     1   0.14233 265014.560000
    710    711     1   0.15375 251793.120000
    710    716     1   0.14233 265014.560000
    711    715     1   0.14316 258236.480000
    711    727     1   0.14316 258236.480000
    719    725     1   0.14233 265014.560000
    728    729     1   0.15375 251793.120000
    728    742     1   0.15375 251793.120000
    728    750     1   0.14316 258236.480000
    729    732     1   0.15375 251793.120000
    729    741     1   0.14233 265014.560000
    732    733     1   0.15375 251793.120000
    732    740     1   0.14233 265014.560000
    733    734     1   0.15375 251793.120000
    733    739     1   0.14233 265014.560000
    734    738     1   0.14316 258236.480000
    734    750     1   0.14316 258236.480000
    742    748     1   0.14233 265014.560000
    751    752     1   0.15375 251793.120000
    751    765     1   0.15375 251793.120000
    751    773     1   0.14316 258236.480000
    752    755     1   0.15375 251793.120000
    752    764     1   0.14233 265014.560000
    755    756     1   0.15375 251793.120000
    755    763     1   0.14233 265014.560000
    756    757     1   0.15375 251793.120000
    756    762     1   0.14233 265014.560000
    757    761     1   0.14316 258236.480000
    757    773     1   0.14316 258236.480000
    765    771     1   0.14233 265014.560000
      2      3     1   0.10969 276646.080000
      2      4     1   0.10969 276646.080000
      5      6     1   0.10969 276646.080000
      5      7     1   0.10969 276646.080000
      8      9     1   0.10969 276646.080000
      8     10     1   0.10969 276646.080000
     11     12     1   0.10969 276646.080000
     11     13     1   0.10969 276646.080000
     14     15     1   0.10969 276646.080000
     14     16     1   0.10969 276646.080000
     17     18     1   0.10969 276646.080000
     17     19     1   0.10969 276646.080000
     22     23     1   0.10969 276646.080000
     22     24     1   0.10969 276646.080000
     25     26     1   0.10969 276646.080000
     25     27     1   0.10969 276646.080000
     28     29     1   0.10969 276646.080000
     28     30     1   0.10969 276646.080000
     31     32     1   0.10969 276646.080000
     31     33     1   0.10969 276646.080000
     34     35     1   0.10969 276646.080000
     34     36     1   0.10969 276646.080000
     37     38     1   0.10969 276646.080000
     37     39     1   0.10969 276646.080000
     40     41     1   0.10969 276646.080000
     40     42     1   0.10969 276646.080000
     43     44     1   0.10969 276646.080000
     43     45     1   0.10969 276646.080000
     46     47     1   0.10969 276646.080000
     46     48     1   0.10969 276646.080000
     49     50     1   0.10969 276646.080000
     49     51     1   0.10969 276646.080000
     52     53     1   0.10969 276646.080000
     52     54     1   0.10969 276646.080000
     55     56     1   0.10969 276646.080000
     55     57     1   0.10969 276646.080000
     59     60     1   0.10969 276646.080000
     59     61     1   0.10969 276646.080000
     62     63     1   0.10969 276646.080000
     62     64     1   0.10969 276646.080000
     65     66     1   0.10969 276646.080000
     65     67     1   0.10969 276646.080000
     68     69     1   0.10969 276646.080000
     68     70     1   0.10969 276646.080000
     71     72     1   0.10969 276646.080000
     71     73     1   0.10969 276646.080000
     74     75     1   0.10969 276646.080000
     74     76     1   0.10969 276646.080000
     77     78     1   0.10969 276646.080000
     77     79     1   0.10969 276646.080000
     80     81     1   0.10969 276646.080000
     80     82     1   0.10969 276646.080000
     83     84     1   0.10969 276646.080000
     83     85     1   0.10969 276646.080000
     88     89     1   0.10969 276646.080000
     88     90     1   0.10969 276646.080000
     91     92     1   0.10969 276646.080000
     91     93     1   0.10969 276646.080000
     94     95     1   0.10969 276646.080000
     94     96     1   0.10969 276646.080000
     97     98     1   0.10969 276646.080000
     97     99     1   0.10969 276646.080000
    100    101     1   0.10969 276646.080000
    100    102     1   0.10969 276646.080000
    103    104     1   0.10969 276646.080000
    103    105     1   0.10969 276646.080000
    106    107     1   0.10969 276646.080000
    106    108     1   0.10969 276646.080000
    109    110     1   0.10969 276646.080000
    109    111     1   0.10969 276646.080000
    112    113     1   0.10969 276646.080000
    112    114     1   0.10969 276646.080000
    117    118     1   0.10969 276646.080000
    117    119     1   0.10969 276646.080000
    120    121     1   0.10969 276646.080000
    120    122     1   0.10969 276646.080000
    123    124     1   0.10969 276646.080000
    123    125     1   0.10969 276646.080000
    126    127     1   0.10969 276646.080000
    126    128     1   0.10969 276646.080000
    129    130     1   0.10969 276646.080000
    129    131     1   0.10969 276646.080000
    132    133     1   0.10969 276646.080000
    132    134     1   0.10969 276646.080000
    135    136     1   0.10969 276646.080000
    135    137     1   0.10969 276646.080000
    138    139     1   0.10969 276646.080000
    138    140     1   0.10969 276646.080000
    141    142     1   0.10969 276646.080000
    141    143     1   0.10969 276646.080000
    146    147     1   0.10969 276646.080000
    146    148     1   0.10969 276646.080000
    149    150     1   0.10969 276646.080000
    149    151     1   0.10969 276646.080000
    152    153     1   0.10969 276646.080000
    152    154     1   0.10969 276646.080000
    155    156     1   0.10969 276646.080000
    155    157     1   0.10969 276646.080000
    158    159     1   0.10969 276646.080000
    158    160     1   0.10969 276646.080000
    161    162     1   0.10969 276646.080000
    161    163     1   0.10969 276646.080000
    164    165     1   0.10969 276646.080000
    164    166     1   0.10969 276646.080000
    167    168     1   0.10969 276646.080000
    167    169     1   0.10969 276646.080000
    170    171     1   0.10969 276646.080000
    170    172     1   0.10969 276646.080000
    175    176     1   0.10969 276646.080000
    175    177     1   0.10969 276646.080000
    178    179     1   0.10969 276646.080000
    178    180     1   0.10969 276646.080000
    181    182     1   0.10969 276646.080000
    181    183     1   0.10969 276646.080000
    184    185     1   0.10969 276646.080000
    184    186     1   0.10969 276646.080000
    187    188     1   0.10969 276646.080000
    187    189     1   0.10969 276646.080000
    190    191     1   0.10969 276646.080000
    190    192     1   0.10969 276646.080000
    193    194     1   0.10969 276646.080000
    193    195     1   0.10969 276646.080000
    196    197     1   0.10969 276646.080000
    196    198     1   0.10969 276646.080000
    199    200     1   0.10969 276646.080000
    199    201     1   0.10969 276646.080000
    204    205     1   0.10969 276646.080000
    204    206     1   0.10969 276646.080000
    207    208     1   0.10969 276646.080000
    207    209     1   0.10969 276646.080000
    210    211     1   0.10969 276646.080000
    210    212     1   0.10969 276646.080000
    213    214     1   0.10969 276646.080000
    213    215     1   0.10969 276646.080000
    216    217     1   0.10969 276646.080000
    216    218     1   0.10969 276646.080000
    219    220     1   0.10969 276646.080000
    219    221     1   0.10969 276646.080000
    222    223     1   0.10969 276646.080000
    222    224     1   0.10969 276646.080000
    225    226     1   0.10969 276646.080000
    225    227     1   0.10969 276646.080000
    228    229     1   0.10969 276646.080000
    228    230     1   0.10969 276646.080000
    233    234     1   0.10969 276646.080000
    233    235     1   0.10969 276646.080000
    236    237     1   0.10969 276646.080000
    236    238     1   0.10969 276646.080000
    239    240     1   0.10969 276646.080000
    239    241     1   0.10969 276646.080000
    242    243     1   0.10969 276646.080000
    242    244     1   0.10969 276646.080000
    245    246     1   0.10969 276646.080000
    245    247     1   0.10969 276646.080000
    248    249     1   0.10969 276646.080000
    248    250     1   0.10969 276646.080000
    251    252     1   0.10969 276646.080000
    251    253     1   0.10969 276646.080000
    254    255     1   0.10969 276646.080000
    254    256     1   0.10969 276646.080000
    257    258     1   0.10969 276646.080000
    257    259     1   0.10969 276646.080000
    262    263     1   0.10969 276646.080000
    262    264     1   0.10969 276646.080000
    265    266     1   0.10969 276646.080000
    265    267     1   0.10969 276646.080000
    268    269     1   0.10969 276646.080000
    268    270     1   0.10969 276646.080000
    271    272     1   0.10969 276646.080000
    271    273     1   0.10969 276646.080000
    274    275     1   0.10969 276646.080000
    274    276     1   0.10969 276646.080000
    277    278     1   0.10969 276646.080000
    277    279     1   0.10969 276646.080000
    280    281     1   0.10969 276646.080000
    280    282     1   0.10969 276646.080000
    283    284     1   0.10969 276646.080000
    283    285     1   0.10969 276646.080000
    286    287     1   0.10969 276646.080000
    286    288     1   0.10969 276646.080000
    291    292     1   0.10969 276646.080000
    291    293     1   0.10969 276646.080000
    294    295     1   0.10969 276646.080000
    294    296     1   0.10969 276646.080000
    297    298     1   0.10969 276646.080000
    297    299     1   0.10969 276646.080000
    300    301     1   0.10969 276646.080000
    300    302     1   0.10969 276646.080000
    303    304     1   0.10969 276646.080000
    303    305     1   0.10969 276646.080000
    306    307     1   0.10969 276646.080000
    306    308     1   0.10969 276646.080000
    309    310     1   0.10969 276646.080000
    309    311     1   0.10969 276646.080000
    312    313     1   0.10969 276646.080000
    312    314     1   0.10969 276646.080000
    315    316     1   0.10969 276646.080000
    315    317     1   0.10969 276646.080000
    320    321     1   0.10969 276646.080000
    320    322     1   0.10969 276646.080000
    323    324     1   0.10969 276646.080000
    323    325     1   0.10969 276646.080000
    326    327     1   0.10969 276646.080000
    326    328     1   0.10969 276646.080000
    329    330     1   0.10969 276646.080000
    329    331     1   0.10969 276646.080000
    332    333     1   0.10969 276646.080000
    332    334     1   0.10969 276646.080000
    335    336     1   0.10969 276646.080000
    335    337     1   0.10969 276646.080000
    338    339     1   0.10969 276646.080000
    338    340     1   0.10969 276646.080000
    341    342     1   0.10969 276646.080000
    341    343     1   0.10969 276646.080000
    344    345     1   0.10969 276646.080000
    344    346     1   0.10969 276646.080000
    349    350     1   0.10969 276646.080000
    349    351     1   0.10969 276646.080000
    352    353     1   0.10969 276646.080000
    352    354     1   0.10969 276646.080000
    355    356     1   0.10969 276646.080000
    355    357     1   0.10969 276646.080000
    358    359     1   0.10969 276646.080000
    358    360     1   0.10969 276646.080000
    361    362     1   0.10969 276646.080000
    361    363     1   0.10969 276646.080000
    364    365     1   0.10969 276646.080000
    364    366     1   0.10969 276646.080000
    367    368     1   0.10969 276646.080000
    367    369     1   0.10969 276646.080000
    370    371     1   0.10969 276646.080000
    370    372     1   0.10969 276646.080000
    373    374     1   0.10969 276646.080000
    373    375     1   0.10969 276646.080000
    378    379     1   0.10969 276646.080000
    378    380     1   0.10969 276646.080000
    381    382     1   0.10969 276646.080000
    381    383     1   0.10969 276646.080000
    384    385     1   0.10969 276646.080000
    384    386     1   0.10969 276646.080000
    387    388     1   0.10969 276646.080000
    387    389     1   0.10969 276646.080000
    390    391     1   0.10969 276646.080000
    390    392     1   0.10969 276646.080000
    393    394     1   0.10969 276646.080000
    393    395     1   0.10969 276646.080000
    396    397     1   0.10969 276646.080000
    396    398     1   0.10969 276646.080000
    399    400     1   0.10969 276646.080000
    399    401     1   0.10969 276646.080000
    402    403     1   0.10969 276646.080000
    402    404     1   0.10969 276646.080000
    406    408     1   0.10969 276646.080000
    407    409     1   0.10969 276646.080000
    410    414     1   0.10969 276646.080000
    411    413     1   0.10969 276646.080000
    412    415     1   0.10961 277566.560000
    417    423     1   0.09730 310787.520000
    418    421     1   0.09730 310787.520000
    419    422     1   0.09730 310787.520000
    420    424     1   0.10969 276646.080000
    420    425     1   0.10969 276646.080000
    426    427     1   0.09730 310787.520000
    429    431     1   0.10969 276646.080000
    430    432     1   0.10969 276646.080000
    433    437     1   0.10969 276646.080000
    434    436     1   0.10969 276646.080000
    435    438     1   0.10961 277566.560000
    440    446     1   0.09730 310787.520000
    441    444     1   0.09730 310787.520000
    442    445     1   0.09730 310787.520000
    443    447     1   0.10969 276646.080000
    443    448     1   0.10969 276646.080000
    449    450     1   0.09730 310787.520000
    452    454     1   0.10969 276646.080000
    453    455     1   0.10969 276646.080000
    456    460     1   0.10969 276646.080000
    457    459     1   0.10969 276646.080000
    458    461     1   0.10961 277566.560000
    463    469     1   0.09730 310787.520000
    464    467     1   0.09730 310787.520000
    465    468     1   0.09730 310787.520000
    466    470     1   0.10969 276646.080000
    466    471     1   0.10969 276646.080000
    472    473     1   0.09730 310787.520000
    475    477     1   0.10969 276646.080000
    476    478     1   0.10969 276646.080000
    479    483     1   0.10969 276646.080000
    480    482     1   0.10969 276646.080000
    481    484     1   0.10961 277566.560000
    486    492     1   0.09730 310787.520000
    487    490     1   0.09730 310787.520000
    488    491     1   0.09730 310787.520000
    489    493     1   0.10969 276646.080000
    489    494     1   0.10969 276646.080000
    495    496     1   0.09730 310787.520000
    498    500     1   0.10969 276646.080000
    499    501     1   0.10969 276646.080000
    502    506     1   0.10969 276646.080000
    503    505     1   0.10969 276646.080000
    504    507     1   0.10961 277566.560000
    509    515     1   0.09730 310787.520000
    510    513     1   0.09730 310787.520000
    511    514     1   0.09730 310787.520000
    512    516     1   0.10969 276646.080000
    512    517     1   0.10969 276646.080000
    518    519     1   0.09730 310787.520000
    521    523     1   0.10969 276646.080000
    522    524     1   0.10969 276646.080000
    525    529     1   0.10969 276646.080000
    526    528     1   0.10969 276646.080000
    527    530     1   0.10961 277566.560000
    532    538     1   0.09730 310787.520000
    533    536     1   0.09730 310787.520000
    534    537     1   0.09730 310787.520000
    535    539     1   0.10969 276646.080000
    535    540     1   0.10969 276646.080000
    541    542     1   0.09730 310787.520000
    544    546     1   0.10969 276646.080000
    545    547     1   0.10969 276646.080000
    548    552     1   0.10969 276646.080000
    549    551     1   0.10969 276646.080000
    550    553     1   0.10961 277566.560000
    555    561     1   0.09730 310787.520000
    556    559     1   0.09730 310787.520000
    557    560     1   0.09730 310787.520000
    558    562     1   0.10969 276646.080000
    558    563     1   0.10969 276646.080000
    564    565     1   0.09730 310787.520000
    567    569     1   0.10969 276646.080000
    568    570     1   0.10969 276646.080000
    571    575     1   0.10969 276646.080000
    572    574     1   0.10969 276646.080000
    573    576     1   0.10961 277566.560000
    578    584     1   0.09730 310787.520000
    579    582     1   0.09730 310787.520000
    580    583     1   0.09730 310787.520000
    581    585     1   0.10969 276646.080000
    581    586     1   0.10969 276646.080000
    587    588     1   0.09730 310787.520000
    590    592     1   0.10969 276646.080000
    591    593     1   0.10969 276646.080000
    594    598     1   0.10969 276646.080000
    595    597     1   0.10969 276646.080000
    596    599     1   0.10961 277566.560000
    601    607     1   0.09730 310787.520000
    602    605     1   0.09730 310787.520000
    603    606     1   0.09730 310787.520000
    604    608     1   0.10969 276646.080000
    604    609     1   0.10969 276646.080000
    610    611     1   0.09730 310787.520000
    613    615     1   0.10969 276646.080000
    614    616     1   0.10969 276646.080000
    617    621     1   0.10969 276646.080000
    618    620     1   0.10969 276646.080000
    619    622     1   0.10961 277566.560000
    624    630     1   0.09730 310787.520000
    625    628     1   0.09730 310787.520000
    626    629     1   0.09730 310787.520000
    627    631     1   0.10969 276646.080000
    627    632     1   0.10969 276646.080000
    633    634     1   0.09730 310787.520000
    636    638     1   0.10969 276646.080000
    637    639     1   0.10969 276646.080000
    640    644     1   0.10969 276646.080000
    641    643     1   0.10969 276646.080000
    642    645     1   0.10961 277566.560000
    647    653     1   0.09730 310787.520000
    648    651     1   0.09730 310787.520000
    649    652     1   0.09730 310787.520000
    650    654     1   0.10969 276646.080000
    650    655     1   0.10969 276646.080000
    656    657     1   0.09730 310787.520000
    659    661     1   0.10969 276646.080000
    660    662     1   0.10969 276646.080000
    663    667     1   0.10969 276646.080000
    664    666     1   0.10969 276646.080000
    665    668     1   0.10961 277566.560000
    670    676     1   0.09730 310787.520000
    671    674     1   0.09730 310787.520000
    672    675     1   0.09730 310787.520000
    673    677     1   0.10969 276646.080000
    673    678     1   0.10969 276646.080000
    679    680     1   0.09730 310787.520000
    682    684     1   0.10969 276646.080000
    683    685     1   0.10969 276646.080000
    686    690     1   0.10969 276646.080000
    687    689     1   0.10969 276646.080000
    688    691     1   0.10961 277566.560000
    693    699     1   0.09730 310787.520000
    694    697     1   0.09730 310787.520000
    695    698     1   0.09730 310787.520000
    696    700     1   0.10969 276646.080000
    696    701     1   0.10969 276646.080000
    702    703     1   0.09730 310787.520000
    705    707     1   0.10969 276646.080000
    706    708     1   0.10969 276646.080000
    709    713     1   0.10969 276646.080000
    710    712     1   0.10969 276646.080000
    711    714     1   0.10961 277566.560000
    716    722     1   0.09730 310787.520000
    717    720     1   0.09730 310787.520000
    718    721     1   0.09730 310787.520000
    719    723     1   0.10969 276646.080000
    719    724     1   0.10969 276646.080000
    725    726     1   0.09730 310787.520000
    728    730     1   0.10969 276646.080000
    729    731     1   0.10969 276646.080000
    732    736     1   0.10969 276646.080000
    733    735     1   0.10969 276646.080000
    734    737     1   0.10961 277566.560000
    739    745     1   0.09730 310787.520000
    740    743     1   0.09730 310787.520000
    741    744     1   0.09730 310787.520000
    742    746     1   0.10969 276646.080000
    742    747     1   0.10969 276646.080000
    748    749     1   0.09730 310787.520000
    751    753     1   0.10969 276646.080000
    752    754     1   0.10969 276646.080000
    755    759     1   0.10969 276646.080000
    756    758     1   0.10969 276646.080000
    757    760     1   0.10961 277566.560000
    762    768     1   0.09730 310787.520000
    763    766     1   0.09730 310787.520000
    764    767     1   0.09730 310787.520000
    765    769     1   0.10969 276646.080000
    765    770     1   0.10969 276646.080000
    771    772     1   0.09730 310787.520000

[ pairs ]
;    ai     aj funct         c0         c1         c2         c3
      1     14     1
      1     17     1
      2     11     1
      2     20     1
      5      8     1
      5     21     1
      8     28     1
      8     31     1
     11     22     1
     11     25     1
     14     40     1
     14     43     1
     17     34     1
     17     37     1
     20     49     1
     20     46     1
     21     55     1
     21     52     1
     22     37     1
     22    173     1
     25     34     1
     25    144     1
     28     43     1
     28    115     1
     31     40     1
     31     86     1
     34    164     1
     37    135     1
     40    106     1
     43     77     1
     46     68     1
     49     97     1
     52    126     1
     55    155     1
     58     83     1
     58     80     1
     58     77     1
     59     74     1
     59     68     1
     59    231     1
     62     71     1
     62     68     1
     62    202     1
     65     71     1
     65     74     1
     65     86     1
     71    222     1
     74    193     1
     80    184     1
     83    213     1
     87    112     1
     87    109     1
     87    106     1
     88    103     1
     88     97     1
     88    289     1
     91    100     1
     91     97     1
     91    260     1
     94    100     1
     94    103     1
     94    115     1
    100    280     1
    103    251     1
    109    242     1
    112    271     1
    116    141     1
    116    138     1
    116    135     1
    117    132     1
    117    126     1
    117    347     1
    120    129     1
    120    126     1
    120    318     1
    123    129     1
    123    132     1
    123    144     1
    129    338     1
    132    309     1
    138    300     1
    141    329     1
    145    170     1
    145    167     1
    145    164     1
    146    161     1
    146    155     1
    146    405     1
    149    158     1
    149    155     1
    149    376     1
    152    158     1
    152    161     1
    152    173     1
    158    396     1
    161    367     1
    167    358     1
    170    387     1
    174    199     1
    174    196     1
    174    193     1
    175    190     1
    175    184     1
    175    439     1
    178    187     1
    178    184     1
    178    416     1
    181    187     1
    181    190     1
    181    202     1
    187    435     1
    190    412     1
    196    411     1
    196    428     1
    199    451     1
    199    434     1
    203    228     1
    203    225     1
    203    222     1
    204    219     1
    204    213     1
    204    485     1
    207    216     1
    207    213     1
    207    462     1
    210    216     1
    210    219     1
    210    231     1
    216    481     1
    219    458     1
    225    457     1
    225    474     1
    228    497     1
    228    480     1
    232    257     1
    232    254     1
    232    251     1
    233    248     1
    233    242     1
    233    531     1
    236    245     1
    236    242     1
    236    508     1
    239    245     1
    239    248     1
    239    260     1
    245    527     1
    248    504     1
    254    503     1
    254    520     1
    257    543     1
    257    526     1
    261    286     1
    261    283     1
    261    280     1
    262    277     1
    262    271     1
    262    577     1
    265    274     1
    265    271     1
    265    554     1
    268    274     1
    268    277     1
    268    289     1
    274    573     1
    277    550     1
    283    549     1
    283    566     1
    286    589     1
    286    572     1
    290    315     1
    290    312     1
    290    309     1
    291    306     1
    291    300     1
    291    623     1
    294    303     1
    294    300     1
    294    600     1
    297    303     1
    297    306     1
    297    318     1
    303    619     1
    306    596     1
    312    595     1
    312    612     1
    315    635     1
    315    618     1
    319    344     1
    319    341     1
    319    338     1
    320    335     1
    320    329     1
    320    669     1
    323    332     1
    323    329     1
    323    646     1
    326    332     1
    326    335     1
    326    347     1
    332    665     1
    335    642     1
    341    641     1
    341    658     1
    344    681     1
    344    664     1
    348    373     1
    348    370     1
    348    367     1
    349    364     1
    349    358     1
    349    715     1
    352    361     1
    352    358     1
    352    692     1
    355    361     1
    355    364     1
    355    376     1
    361    711     1
    364    688     1
    370    687     1
    370    704     1
    373    727     1
    373    710     1
    377    402     1
    377    399     1
    377    396     1
    378    393     1
    378    387     1
    378    761     1
    381    390     1
    381    387     1
    381    738     1
    384    390     1
    384    393     1
    384    405     1
    390    757     1
    393    734     1
    399    733     1
    399    750     1
    402    773     1
    402    756     1
    406    411     1
    406    418     1
    406    416     1
    407    426     1
    407    412     1
    407    417     1
    410    420     1
    410    428     1
    410    416     1
    411    419     1
    412    418     1
    412    420     1
    416    417     1
    417    418     1
    417    428     1
    418    419     1
    419    420     1
    419    428     1
    426    428     1
    429    434     1
    429    441     1
    429    439     1
    430    435     1
    430    440     1
    430    449     1
    433    439     1
    433    451     1
    433    443     1
    434    442     1
    435    443     1
    435    441     1
    439    440     1
    440    451     1
    440    441     1
    441    442     1
    442    443     1
    442    451     1
    449    451     1
    452    457     1
    452    464     1
    452    462     1
    453    472     1
    453    458     1
    453    463     1
    456    466     1
    456    474     1
    456    462     1
    457    465     1
    458    464     1
    458    466     1
    462    463     1
    463    464     1
    463    474     1
    464    465     1
    465    466     1
    465    474     1
    472    474     1
    475    480     1
    475    487     1
    475    485     1
    476    481     1
    476    486     1
    476    495     1
    479    485     1
    479    497     1
    479    489     1
    480    488     1
    481    489     1
    481    487     1
    485    486     1
    486    497     1
    486    487     1
    487    488     1
    488    489     1
    488    497     1
    495    497     1
    498    503     1
    498    510     1
    498    508     1
    499    518     1
    499    504     1
    499    509     1
    502    512     1
    502    520     1
    502    508     1
    503    511     1
    504    510     1
    504    512     1
    508    509     1
    509    510     1
    509    520     1
    510    511     1
    511    512     1
    511    520     1
    518    520     1
    521    526     1
    521    533     1
    521    531     1
    522    527     1
    522    532     1
    522    541     1
    525    531     1
    525    543     1
    525    535     1
    526    534     1
    527    535     1
    527    533     1
    531    532     1
    532    543     1
    532    533     1
    533    534     1
    534    535     1
    534    543     1
    541    543     1
    544    549     1
    544    556     1
    544    554     1
    545    564     1
    545    550     1
    545    555     1
    548    558     1
    548    566     1
    548    554     1
    549    557     1
    550    556     1
    550    558     1
    554    555     1
    555    556     1
    555    566     1
    556    557     1
    557    558     1
    557    566     1
    564    566     1
    567    572     1
    567    579     1
    567    577     1
    568    573     1
    568    578     1
    568    587     1
    571    577     1
    571    589     1
    571    581     1
    572    580     1
    573    581     1
    573    579     1
    577    578     1
    578    589     1
    578    579     1
    579    580     1
    580    581     1
    580    589     1
    587    589     1
    590    595     1
    590    602     1
    590    600     1
    591    610     1
    591    596     1
    591    601     1
    594    604     1
    594    612     1
    594    600     1
    595    603     1
    596    602     1
    596    604     1
    600    601     1
    601    602     1
    601    612     1
    602    603     1
    603    604     1
    603    612     1
    610    612     1
    613    618     1
    613    625     1
    613    623     1
    614    619     1
    614    624     1
    614    633     1
    617    623     1
    617    635     1
    617    627     1
    618    626     1
    619    627     1
    619    625     1
    623    624     1
    624    635     1
    624    625     1
    625    626     1
    626    627     1
    626    635     1
    633    635     1
    636    641     1
    636    648     1
    636    646     1
    637    656     1
    637    642     1
    637    647     1
    640    650     1
    640    658     1
    640    646     1
    641    649     1
    642    648     1
    642    650     1
    646    647     1
    647    648     1
    647    658     1
    648    649     1
    649    650     1
    649    658     1
    656    658     1
    659    664     1
    659    671     1
    659    669     1
    660    665     1
    660    670     1
    660    679     1
    663    669     1
    663    681     1
    663    673     1
    664    672     1
    665    673     1
    665    671     1
    669    670     1
    670    681     1
    670    671     1
    671    672     1
    672    673     1
    672    681     1
    679    681     1
    682    687     1
    682    694     1
    682    692     1
    683    702     1
    683    688     1
    683    693     1
    686    696     1
    686    704     1
    686    692     1
    687    695     1
    688    694     1
    688    696     1
    692    693     1
    693    694     1
    693    704     1
    694    695     1
    695    696     1
    695    704     1
    702    704     1
    705    710     1
    705    717     1
    705    715     1
    706    711     1
    706    716     1
    706    725     1
    709    715     1
    709    727     1
    709    719     1
    710    718     1
    711    719     1
    711    717     1
    715    716     1
    716    727     1
    716    717     1
    717    718     1
    718    719     1
    718    727     1
    725    727     1
    728    733     1
    728    740     1
    728    738     1
    729    748     1
    729    734     1
    729    739     1
    732    742     1
    732    750     1
    732    738     1
    733    741     1
    734    740     1
    734    742     1
    738    739     1
    739    740     1
    739    750     1
    740    741     1
    741    742     1
    741    750     1
    748    750     1
    751    756     1
    751    763     1
    751    761     1
    752    757     1
    752    762     1
    752    771     1
    755    761     1
    755    773     1
    755    765     1
    756    764     1
    757    765     1
    757    763     1
    761    762     1
    762    773     1
    762    763     1
    763    764     1
    764    765     1
    764    773     1
    771    773     1
      1      9     1
      1     10     1
      1     12     1
      1     13     1
      2      6     1
      2      7     1
      2     15     1
      2     16     1
      5      3     1
      3     14     1
      3      9     1
      3     10     1
      5      4     1
      4     14     1
      4      9     1
      4     10     1
      5     18     1
      5     19     1
      6     17     1
      6     12     1
      6     13     1
      7     17     1
      7     12     1
      7     13     1
      9     20     1
      9     15     1
      9     16     1
     10     20     1
     10     15     1
     10     16     1
     12     21     1
     12     18     1
     12     19     1
     13     21     1
     13     18     1
     13     19     1
     14     29     1
     14     30     1
     14     32     1
     14     33     1
     15     28     1
     15     31     1
     16     28     1
     16     31     1
     17     23     1
     17     24     1
     17     26     1
     17     27     1
     18     22     1
     18     25     1
     19     22     1
     19     25     1
     20     41     1
     20     42     1
     20     44     1
     20     45     1
     21     35     1
     21     36     1
     21     38     1
     21     39     1
     22     26     1
     22     27     1
     22     56     1
     22     57     1
     23     25     1
     23     55     1
     23     35     1
     23     36     1
     24     25     1
     24     55     1
     24     35     1
     24     36     1
     25     53     1
     25     54     1
     26     52     1
     26     38     1
     26     39     1
     27     52     1
     27     38     1
     27     39     1
     28     32     1
     28     33     1
     28     50     1
     28     51     1
     29     31     1
     29     49     1
     29     41     1
     29     42     1
     30     31     1
     30     49     1
     30     41     1
     30     42     1
     31     47     1
     31     48     1
     32     46     1
     32     44     1
     32     45     1
     33     46     1
     33     44     1
     33     45     1
     35    173     1
     35     56     1
     35     57     1
     36    173     1
     36     56     1
     36     57     1
     38    144     1
     38     53     1
     38     54     1
     39    144     1
     39     53     1
     39     54     1
     41    115     1
     41     50     1
     41     51     1
     42    115     1
     42     50     1
     42     51     1
     44     86     1
     44     47     1
     44     48     1
     45     86     1
     45     47     1
     45     48     1
     46     78     1
     46     79     1
     47     77     1
     48     77     1
     49    107     1
     49    108     1
     50    106     1
     51    106     1
     52    136     1
     52    137     1
     53    135     1
     54    135     1
     55    165     1
     55    166     1
     56    164     1
     57    164     1
     58     72     1
     58     73     1
     58     75     1
     58     76     1
     58     69     1
     58     70     1
     59     63     1
     59     64     1
     59     66     1
     59     67     1
     59     84     1
     59     85     1
     60     62     1
     60     65     1
     60     83     1
     60     72     1
     60     73     1
     61     62     1
     61     65     1
     61     83     1
     61     72     1
     61     73     1
     62     66     1
     62     67     1
     62     81     1
     62     82     1
     63     65     1
     63     80     1
     63     75     1
     63     76     1
     64     65     1
     64     80     1
     64     75     1
     64     76     1
     65     78     1
     65     79     1
     66     77     1
     66     69     1
     66     70     1
     67     77     1
     67     69     1
     67     70     1
     69     86     1
     69     78     1
     69     79     1
     70     86     1
     70     78     1
     70     79     1
     72    231     1
     72     84     1
     72     85     1
     73    231     1
     73     84     1
     73     85     1
     75    202     1
     75     81     1
     75     82     1
     76    202     1
     76     81     1
     76     82     1
     80    194     1
     80    195     1
     81    193     1
     82    193     1
     83    223     1
     83    224     1
     84    222     1
     85    222     1
     87    101     1
     87    102     1
     87    104     1
     87    105     1
     87     98     1
     87     99     1
     88     92     1
     88     93     1
     88     95     1
     88     96     1
     88    113     1
     88    114     1
     89     91     1
     89     94     1
     89    112     1
     89    101     1
     89    102     1
     90     91     1
     90     94     1
     90    112     1
     90    101     1
     90    102     1
     91     95     1
     91     96     1
     91    110     1
     91    111     1
     92     94     1
     92    109     1
     92    104     1
     92    105     1
     93     94     1
     93    109     1
     93    104     1
     93    105     1
     94    107     1
     94    108     1
     95    106     1
     95     98     1
     95     99     1
     96    106     1
     96     98     1
     96     99     1
     98    115     1
     98    107     1
     98    108     1
     99    115     1
     99    107     1
     99    108     1
    101    289     1
    101    113     1
    101    114     1
    102    289     1
    102    113     1
    102    114     1
    104    260     1
    104    110     1
    104    111     1
    105    260     1
    105    110     1
    105    111     1
    109    252     1
    109    253     1
    110    251     1
    111    251     1
    112    281     1
    112    282     1
    113    280     1
    114    280     1
    116    130     1
    116    131     1
    116    133     1
    116    134     1
    116    127     1
    116    128     1
    117    121     1
    117    122     1
    117    124     1
    117    125     1
    117    142     1
    117    143     1
    118    120     1
    118    123     1
    118    141     1
    118    130     1
    118    131     1
    119    120     1
    119    123     1
    119    141     1
    119    130     1
    119    131     1
    120    124     1
    120    125     1
    120    139     1
    120    140     1
    121    123     1
    121    138     1
    121    133     1
    121    134     1
    122    123     1
    122    138     1
    122    133     1
    122    134     1
    123    136     1
    123    137     1
    124    135     1
    124    127     1
    124    128     1
    125    135     1
    125    127     1
    125    128     1
    127    144     1
    127    136     1
    127    137     1
    128    144     1
    128    136     1
    128    137     1
    130    347     1
    130    142     1
    130    143     1
    131    347     1
    131    142     1
    131    143     1
    133    318     1
    133    139     1
    133    140     1
    134    318     1
    134    139     1
    134    140     1
    138    310     1
    138    311     1
    139    309     1
    140    309     1
    141    339     1
    141    340     1
    142    338     1
    143    338     1
    145    159     1
    145    160     1
    145    162     1
    145    163     1
    145    156     1
    145    157     1
    146    150     1
    146    151     1
    146    153     1
    146    154     1
    146    171     1
    146    172     1
    147    149     1
    147    152     1
    147    170     1
    147    159     1
    147    160     1
    148    149     1
    148    152     1
    148    170     1
    148    159     1
    148    160     1
    149    153     1
    149    154     1
    149    168     1
    149    169     1
    150    152     1
    150    167     1
    150    162     1
    150    163     1
    151    152     1
    151    167     1
    151    162     1
    151    163     1
    152    165     1
    152    166     1
    153    164     1
    153    156     1
    153    157     1
    154    164     1
    154    156     1
    154    157     1
    156    173     1
    156    165     1
    156    166     1
    157    173     1
    157    165     1
    157    166     1
    159    405     1
    159    171     1
    159    172     1
    160    405     1
    160    171     1
    160    172     1
    162    376     1
    162    168     1
    162    169     1
    163    376     1
    163    168     1
    163    169     1
    167    368     1
    167    369     1
    168    367     1
    169    367     1
    170    397     1
    170    398     1
    171    396     1
    172    396     1
    174    188     1
    174    189     1
    174    191     1
    174    192     1
    174    185     1
    174    186     1
    175    179     1
    175    180     1
    175    182     1
    175    183     1
    175    200     1
    175    201     1
    176    178     1
    176    181     1
    176    199     1
    176    188     1
    176    189     1
    177    178     1
    177    181     1
    177    199     1
    177    188     1
    177    189     1
    178    182     1
    178    183     1
    178    197     1
    178    198     1
    179    181     1
    179    196     1
    179    191     1
    179    192     1
    180    181     1
    180    196     1
    180    191     1
    180    192     1
    181    194     1
    181    195     1
    182    193     1
    182    185     1
    182    186     1
    183    193     1
    183    185     1
    183    186     1
    185    202     1
    185    194     1
    185    195     1
    186    202     1
    186    194     1
    186    195     1
    188    439     1
    188    200     1
    188    201     1
    189    439     1
    189    200     1
    189    201     1
    191    416     1
    191    197     1
    191    198     1
    192    416     1
    192    197     1
    192    198     1
    196    415     1
    197    412     1
    198    412     1
    199    438     1
    200    435     1
    201    435     1
    203    217     1
    203    218     1
    203    220     1
    203    221     1
    203    214     1
    203    215     1
    204    208     1
    204    209     1
    204    211     1
    204    212     1
    204    229     1
    204    230     1
    205    207     1
    205    210     1
    205    228     1
    205    217     1
    205    218     1
    206    207     1
    206    210     1
    206    228     1
    206    217     1
    206    218     1
    207    211     1
    207    212     1
    207    226     1
    207    227     1
    208    210     1
    208    225     1
    208    220     1
    208    221     1
    209    210     1
    209    225     1
    209    220     1
    209    221     1
    210    223     1
    210    224     1
    211    222     1
    211    214     1
    211    215     1
    212    222     1
    212    214     1
    212    215     1
    214    231     1
    214    223     1
    214    224     1
    215    231     1
    215    223     1
    215    224     1
    217    485     1
    217    229     1
    217    230     1
    218    485     1
    218    229     1
    218    230     1
    220    462     1
    220    226     1
    220    227     1
    221    462     1
    221    226     1
    221    227     1
    225    461     1
    226    458     1
    227    458     1
    228    484     1
    229    481     1
    230    481     1
    232    246     1
    232    247     1
    232    249     1
    232    250     1
    232    243     1
    232    244     1
    233    237     1
    233    238     1
    233    240     1
    233    241     1
    233    258     1
    233    259     1
    234    236     1
    234    239     1
    234    257     1
    234    246     1
    234    247     1
    235    236     1
    235    239     1
    235    257     1
    235    246     1
    235    247     1
    236    240     1
    236    241     1
    236    255     1
    236    256     1
    237    239     1
    237    254     1
    237    249     1
    237    250     1
    238    239     1
    238    254     1
    238    249     1
    238    250     1
    239    252     1
    239    253     1
    240    251     1
    240    243     1
    240    244     1
    241    251     1
    241    243     1
    241    244     1
    243    260     1
    243    252     1
    243    253     1
    244    260     1
    244    252     1
    244    253     1
    246    531     1
    246    258     1
    246    259     1
    247    531     1
    247    258     1
    247    259     1
    249    508     1
    249    255     1
    249    256     1
    250    508     1
    250    255     1
    250    256     1
    254    507     1
    255    504     1
    256    504     1
    257    530     1
    258    527     1
    259    527     1
    261    275     1
    261    276     1
    261    278     1
    261    279     1
    261    272     1
    261    273     1
    262    266     1
    262    267     1
    262    269     1
    262    270     1
    262    287     1
    262    288     1
    263    265     1
    263    268     1
    263    286     1
    263    275     1
    263    276     1
    264    265     1
    264    268     1
    264    286     1
    264    275     1
    264    276     1
    265    269     1
    265    270     1
    265    284     1
    265    285     1
    266    268     1
    266    283     1
    266    278     1
    266    279     1
    267    268     1
    267    283     1
    267    278     1
    267    279     1
    268    281     1
    268    282     1
    269    280     1
    269    272     1
    269    273     1
    270    280     1
    270    272     1
    270    273     1
    272    289     1
    272    281     1
    272    282     1
    273    289     1
    273    281     1
    273    282     1
    275    577     1
    275    287     1
    275    288     1
    276    577     1
    276    287     1
    276    288     1
    278    554     1
    278    284     1
    278    285     1
    279    554     1
    279    284     1
    279    285     1
    283    553     1
    284    550     1
    285    550     1
    286    576     1
    287    573     1
    288    573     1
    290    304     1
    290    305     1
    290    307     1
    290    308     1
    290    301     1
    290    302     1
    291    295     1
    291    296     1
    291    298     1
    291    299     1
    291    316     1
    291    317     1
    292    294     1
    292    297     1
    292    315     1
    292    304     1
    292    305     1
    293    294     1
    293    297     1
    293    315     1
    293    304     1
    293    305     1
    294    298     1
    294    299     1
    294    313     1
    294    314     1
    295    297     1
    295    312     1
    295    307     1
    295    308     1
    296    297     1
    296    312     1
    296    307     1
    296    308     1
    297    310     1
    297    311     1
    298    309     1
    298    301     1
    298    302     1
    299    309     1
    299    301     1
    299    302     1
    301    318     1
    301    310     1
    301    311     1
    302    318     1
    302    310     1
    302    311     1
    304    623     1
    304    316     1
    304    317     1
    305    623     1
    305    316     1
    305    317     1
    307    600     1
    307    313     1
    307    314     1
    308    600     1
    308    313     1
    308    314     1
    312    599     1
    313    596     1
    314    596     1
    315    622     1
    316    619     1
    317    619     1
    319    333     1
    319    334     1
    319    336     1
    319    337     1
    319    330     1
    319    331     1
    320    324     1
    320    325     1
    320    327     1
    320    328     1
    320    345     1
    320    346     1
    321    323     1
    321    326     1
    321    344     1
    321    333     1
    321    334     1
    322    323     1
    322    326     1
    322    344     1
    322    333     1
    322    334     1
    323    327     1
    323    328     1
    323    342     1
    323    343     1
    324    326     1
    324    341     1
    324    336     1
    324    337     1
    325    326     1
    325    341     1
    325    336     1
    325    337     1
    326    339     1
    326    340     1
    327    338     1
    327    330     1
    327    331     1
    328    338     1
    328    330     1
    328    331     1
    330    347     1
    330    339     1
    330    340     1
    331    347     1
    331    339     1
    331    340     1
    333    669     1
    333    345     1
    333    346     1
    334    669     1
    334    345     1
    334    346     1
    336    646     1
    336    342     1
    336    343     1
    337    646     1
    337    342     1
    337    343     1
    341    645     1
    342    642     1
    343    642     1
    344    668     1
    345    665     1
    346    665     1
    348    362     1
    348    363     1
    348    365     1
    348    366     1
    348    359     1
    348    360     1
    349    353     1
    349    354     1
    349    356     1
    349    357     1
    349    374     1
    349    375     1
    350    352     1
    350    355     1
    350    373     1
    350    362     1
    350    363     1
    351    352     1
    351    355     1
    351    373     1
    351    362     1
    351    363     1
    352    356     1
    352    357     1
    352    371     1
    352    372     1
    353    355     1
    353    370     1
    353    365     1
    353    366     1
    354    355     1
    354    370     1
    354    365     1
    354    366     1
    355    368     1
    355    369     1
    356    367     1
    356    359     1
    356    360     1
    357    367     1
    357    359     1
    357    360     1
    359    376     1
    359    368     1
    359    369     1
    360    376     1
    360    368     1
    360    369     1
    362    715     1
    362    374     1
    362    375     1
    363    715     1
    363    374     1
    363    375     1
    365    692     1
    365    371     1
    365    372     1
    366    692     1
    366    371     1
    366    372     1
    370    691     1
    371    688     1
    372    688     1
    373    714     1
    374    711     1
    375    711     1
    377    391     1
    377    392     1
    377    394     1
    377    395     1
    377    388     1
    377    389     1
    378    382     1
    378    383     1
    378    385     1
    378    386     1
    378    403     1
    378    404     1
    379    381     1
    379    384     1
    379    402     1
    379    391     1
    379    392     1
    380    381     1
    380    384     1
    380    402     1
    380    391     1
    380    392     1
    381    385     1
    381    386     1
    381    400     1
    381    401     1
    382    384     1
    382    399     1
    382    394     1
    382    395     1
    383    384     1
    383    399     1
    383    394     1
    383    395     1
    384    397     1
    384    398     1
    385    396     1
    385    388     1
    385    389     1
    386    396     1
    386    388     1
    386    389     1
    388    405     1
    388    397     1
    388    398     1
    389    405     1
    389    397     1
    389    398     1
    391    761     1
    391    403     1
    391    404     1
    392    761     1
    392    403     1
    392    404     1
    394    738     1
    394    400     1
    394    401     1
    395    738     1
    395    400     1
    395    401     1
    399    737     1
    400    734     1
    401    734     1
    402    760     1
    403    757     1
    404    757     1
    406    414     1
    406    422     1
    406    427     1
    406    415     1
    407    424     1
    407    425     1
    407    413     1
    407    421     1
    408    410     1
    408    419     1
    408    409     1
    408    426     1
    408    424     1
    408    425     1
    408    412     1
    409    420     1
    409    428     1
    409    411     1
    409    418     1
    409    414     1
    409    422     1
    410    422     1
    410    415     1
    410    423     1
    411    421     1
    412    414     1
    412    423     1
    413    418     1
    413    414     1
    413    416     1
    413    428     1
    413    415     1
    413    423     1
    414    419     1
    414    417     1
    414    421     1
    415    417     1
    424    428     1
    424    427     1
    425    428     1
    425    427     1
    429    437     1
    429    445     1
    429    450     1
    429    438     1
    430    436     1
    430    444     1
    430    447     1
    430    448     1
    431    433     1
    431    442     1
    431    432     1
    431    449     1
    431    447     1
    431    448     1
    431    435     1
    432    434     1
    432    441     1
    432    437     1
    432    445     1
    432    443     1
    432    451     1
    433    438     1
    433    446     1
    433    445     1
    434    444     1
    435    446     1
    435    437     1
    436    439     1
    436    451     1
    436    438     1
    436    446     1
    436    441     1
    436    437     1
    437    440     1
    437    444     1
    437    442     1
    438    440     1
    447    450     1
    447    451     1
    448    450     1
    448    451     1
    452    460     1
    452    468     1
    452    473     1
    452    461     1
    453    470     1
    453    471     1
    453    459     1
    453    467     1
    454    456     1
    454    465     1
    454    455     1
    454    472     1
    454    470     1
    454    471     1
    454    458     1
    455    466     1
    455    474     1
    455    457     1
    455    464     1
    455    460     1
    455    468     1
    456    468     1
    456    461     1
    456    469     1
    457    467     1
    458    460     1
    458    469     1
    459    464     1
    459    460     1
    459    462     1
    459    474     1
    459    461     1
    459    469     1
    460    465     1
    460    463     1
    460    467     1
    461    463     1
    470    474     1
    470    473     1
    471    474     1
    471    473     1
    475    483     1
    475    491     1
    475    496     1
    475    484     1
    476    482     1
    476    490     1
    476    493     1
    476    494     1
    477    479     1
    477    488     1
    477    478     1
    477    495     1
    477    493     1
    477    494     1
    477    481     1
    478    480     1
    478    487     1
    478    483     1
    478    491     1
    478    489     1
    478    497     1
    479    484     1
    479    492     1
    479    491     1
    480    490     1
    481    492     1
    481    483     1
    482    485     1
    482    497     1
    482    484     1
    482    492     1
    482    487     1
    482    483     1
    483    486     1
    483    490     1
    483    488     1
    484    486     1
    493    496     1
    493    497     1
    494    496     1
    494    497     1
    498    506     1
    498    514     1
    498    519     1
    498    507     1
    499    516     1
    499    517     1
    499    505     1
    499    513     1
    500    502     1
    500    511     1
    500    501     1
    500    518     1
    500    516     1
    500    517     1
    500    504     1
    501    512     1
    501    520     1
    501    503     1
    501    510     1
    501    506     1
    501    514     1
    502    514     1
    502    507     1
    502    515     1
    503    513     1
    504    506     1
    504    515     1
    505    510     1
    505    506     1
    505    508     1
    505    520     1
    505    507     1
    505    515     1
    506    511     1
    506    509     1
    506    513     1
    507    509     1
    516    520     1
    516    519     1
    517    520     1
    517    519     1
    521    529     1
    521    537     1
    521    542     1
    521    530     1
    522    528     1
    522    536     1
    522    539     1
    522    540     1
    523    525     1
    523    534     1
    523    524     1
    523    541     1
    523    539     1
    523    540     1
    523    527     1
    524    526     1
    524    533     1
    524    529     1
    524    537     1
    524    535     1
    524    543     1
    525    530     1
    525    538     1
    525    537     1
    526    536     1
    527    538     1
    527    529     1
    528    531     1
    528    543     1
    528    530     1
    528    538     1
    528    533     1
    528    529     1
    529    532     1
    529    536     1
    529    534     1
    530    532     1
    539    542     1
    539    543     1
    540    542     1
    540    543     1
    544    552     1
    544    560     1
    544    565     1
    544    553     1
    545    562     1
    545    563     1
    545    551     1
    545    559     1
    546    548     1
    546    557     1
    546    547     1
    546    564     1
    546    562     1
    546    563     1
    546    550     1
    547    558     1
    547    566     1
    547    549     1
    547    556     1
    547    552     1
    547    560     1
    548    560     1
    548    553     1
    548    561     1
    549    559     1
    550    552     1
    550    561     1
    551    556     1
    551    552     1
    551    554     1
    551    566     1
    551    553     1
    551    561     1
    552    557     1
    552    555     1
    552    559     1
    553    555     1
    562    566     1
    562    565     1
    563    566     1
    563    565     1
    567    575     1
    567    583     1
    567    588     1
    567    576     1
    568    574     1
    568    582     1
    568    585     1
    568    586     1
    569    571     1
    569    580     1
    569    570     1
    569    587     1
    569    585     1
    569    586     1
    569    573     1
    570    572     1
    570    579     1
    570    575     1
    570    583     1
    570    581     1
    570    589     1
    571    576     1
    571    584     1
    571    583     1
    572    582     1
    573    584     1
    573    575     1
    574    577     1
    574    589     1
    574    576     1
    574    584     1
    574    579     1
    574    575     1
    575    578     1
    575    582     1
    575    580     1
    576    578     1
    585    588     1
    585    589     1
    586    588     1
    586    589     1
    590    598     1
    590    606     1
    590    611     1
    590    599     1
    591    608     1
    591    609     1
    591    597     1
    591    605     1
    592    594     1
    592    603     1
    592    593     1
    592    610     1
    592    608     1
    592    609     1
    592    596     1
    593    604     1
    593    612     1
    593    595     1
    593    602     1
    593    598     1
    593    606     1
    594    606     1
    594    599     1
    594    607     1
    595    605     1
    596    598     1
    596    607     1
    597    602     1
    597    598     1
    597    600     1
    597    612     1
    597    599     1
    597    607     1
    598    603     1
    598    601     1
    598    605     1
    599    601     1
    608    612     1
    608    611     1
    609    612     1
    609    611     1
    613    621     1
    613    629     1
    613    634     1
    613    622     1
    614    620     1
    614    628     1
    614    631     1
    614    632     1
    615    617     1
    615    626     1
    615    616     1
    615    633     1
    615    631     1
    615    632     1
    615    619     1
    616    618     1
    616    625     1
    616    621     1
    616    629     1
    616    627     1
    616    635     1
    617    622     1
    617    630     1
    617    629     1
    618    628     1
    619    630     1
    619    621     1
    620    623     1
    620    635     1
    620    622     1
    620    630     1
    620    625     1
    620    621     1
    621    624     1
    621    628     1
    621    626     1
    622    624     1
    631    634     1
    631    635     1
    632    634     1
    632    635     1
    636    644     1
    636    652     1
    636    657     1
    636    645     1
    637    654     1
    637    655     1
    637    643     1
    637    651     1
    638    640     1
    638    649     1
    638    639     1
    638    656     1
    638    654     1
    638    655     1
    638    642     1
    639    650     1
    639    658     1
    639    641     1
    639    648     1
    639    644     1
    639    652     1
    640    652     1
    640    645     1
    640    653     1
    641    651     1
    642    644     1
    642    653     1
    643    648     1
    643    644     1
    643    646     1
    643    658     1
    643    645     1
    643    653     1
    644    649     1
    644    647     1
    644    651     1
    645    647     1
    654    658     1
    654    657     1
    655    658     1
    655    657     1
    659    667     1
    659    675     1
    659    680     1
    659    668     1
    660    666     1
    660    674     1
    660    677     1
    660    678     1
    661    663     1
    661    672     1
    661    662     1
    661    679     1
    661    677     1
    661    678     1
    661    665     1
    662    664     1
    662    671     1
    662    667     1
    662    675     1
    662    673     1
    662    681     1
    663    668     1
    663    676     1
    663    675     1
    664    674     1
    665    676     1
    665    667     1
    666    669     1
    666    681     1
    666    668     1
    666    676     1
    666    671     1
    666    667     1
    667    670     1
    667    674     1
    667    672     1
    668    670     1
    677    680     1
    677    681     1
    678    680     1
    678    681     1
    682    690     1
    682    698     1
    682    703     1
    682    691     1
    683    700     1
    683    701     1
    683    689     1
    683    697     1
    684    686     1
    684    695     1
    684    685     1
    684    702     1
    684    700     1
    684    701     1
    684    688     1
    685    696     1
    685    704     1
    685    687     1
    685    694     1
    685    690     1
    685    698     1
    686    698     1
    686    691     1
    686    699     1
    687    697     1
    688    690     1
    688    699     1
    689    694     1
    689    690     1
    689    692     1
    689    704     1
    689    691     1
    689    699     1
    690    695     1
    690    693     1
    690    697     1
    691    693     1
    700    704     1
    700    703     1
    701    704     1
    701    703     1
    705    713     1
    705    721     1
    705    726     1
    705    714     1
    706    712     1
    706    720     1
    706    723     1
    706    724     1
    707    709     1
    707    718     1
    707    708     1
    707    725     1
    707    723     1
    707    724     1
    707    711     1
    708    710     1
    708    717     1
    708    713     1
    708    721     1
    708    719     1
    708    727     1
    709    714     1
    709    722     1
    709    721     1
    710    720     1
    711    722     1
    711    713     1
    712    715     1
    712    727     1
    712    714     1
    712    722     1
    712    717     1
    712    713     1
    713    716     1
    713    720     1
    713    718     1
    714    716     1
    723    726     1
    723    727     1
    724    726     1
    724    727     1
    728    736     1
    728    744     1
    728    749     1
    728    737     1
    729    746     1
    729    747     1
    729    735     1
    729    743     1
    730    732     1
    730    741     1
    730    731     1
    730    748     1
    730    746     1
    730    747     1
    730    734     1
    731    742     1
    731    750     1
    731    733     1
    731    740     1
    731    736     1
    731    744     1
    732    744     1
    732    737     1
    732    745     1
    733    743     1
    734    736     1
    734    745     1
    735    740     1
    735    736     1
    735    738     1
    735    750     1
    735    737     1
    735    745     1
    736    741     1
    736    739     1
    736    743     1
    737    739     1
    746    750     1
    746    749     1
    747    750     1
    747    749     1
    751    759     1
    751    767     1
    751    772     1
    751    760     1
    752    758     1
    752    766     1
    752    769     1
    752    770     1
    753    755     1
    753    764     1
    753    754     1
    753    771     1
    753    769     1
    753    770     1
    753    757     1
    754    756     1
    754    763     1
    754    759     1
    754    767     1
    754    765     1
    754    773     1
    755    760     1
    755    768     1
    755    767     1
    756    766     1
    757    768     1
    757    759     1
    758    761     1
    758    773     1
    758    760     1
    758    768     1
    758    763     1
    758    759     1
    759    762     1
    759    766     1
    759    764     1
    760    762     1
    769    772     1
    769    773     1
    770    772     1
    770    773     1

[ angles ]
;    ai     aj     ak funct         c0         c1         c2         c3
      1      2      8     1   107.9700462 569.024000
      1      5     11     1   107.9700462 569.024000
      2      1      5     1   112.4800480 524.673600
      2      8     14     1   111.5100476 526.347200
      5     11     17     1   111.5100476 526.347200
      8     14     20     1   111.0400475 552.288000
     11     17     21     1   111.0400475 552.288000
     14     20     28     1   112.3500484 533.878400
     14     20     31     1   112.3500484 533.878400
     17     21     22     1   112.3500484 533.878400
     17     21     25     1   112.3500484 533.878400
     20     28     40     1   111.0400475 552.288000
     20     31     43     1   111.0400475 552.288000
     21     22     34     1   111.0400475 552.288000
     21     25     37     1   111.0400475 552.288000
     22     21     25     1   112.3500484 533.878400
     22     34     55     1   111.5100476 526.347200
     25     37     52     1   111.5100476 526.347200
     28     20     31     1   112.3500484 533.878400
     28     40     49     1   111.5100476 526.347200
     31     43     46     1   111.5100476 526.347200
     34     55    173     1   107.9700462 569.024000
     37     52    144     1   107.9700462 569.024000
     40     49    115     1   107.9700462 569.024000
     43     46     86     1   107.9700462 569.024000
     46     86     77     1   112.4800480 524.673600
     49    115    106     1   112.4800480 524.673600
     52    144    135     1   112.4800480 524.673600
     55    173    164     1   112.4800480 524.673600
     58     59     71     1   111.0400475 552.288000
     58     62     74     1   111.0400475 552.288000
     58     65     68     1   111.0400475 552.288000
     59     58     62     1   112.3500484 533.878400
     59     58     65     1   112.3500484 533.878400
     59     71     83     1   111.5100476 526.347200
     62     58     65     1   112.3500484 533.878400
     62     74     80     1   111.5100476 526.347200
     65     68     77     1   111.5100476 526.347200
     68     77     86     1   107.9700462 569.024000
     71     83    231     1   107.9700462 569.024000
     74     80    202     1   107.9700462 569.024000
     80    202    193     1   112.4800480 524.673600
     83    231    222     1   112.4800480 524.673600
     87     88    100     1   111.0400475 552.288000
     87     91    103     1   111.0400475 552.288000
     87     94     97     1   111.0400475 552.288000
     88     87     91     1   112.3500484 533.878400
     88     87     94     1   112.3500484 533.878400
     88    100    112     1   111.5100476 526.347200
     91     87     94     1   112.3500484 533.878400
     91    103    109     1   111.5100476 526.347200
     94     97    106     1   111.5100476 526.347200
     97    106    115     1   107.9700462 569.024000
    100    112    289     1   107.9700462 569.024000
    103    109    260     1   107.9700462 569.024000
    109    260    251     1   112.4800480 524.673600
    112    289    280     1   112.4800480 524.673600
    116    117    129     1   111.0400475 552.288000
    116    120    132     1   111.0400475 552.288000
    116    123    126     1   111.0400475 552.288000
    117    116    120     1   112.3500484 533.878400
    117    116    123     1   112.3500484 533.878400
    117    129    141     1   111.5100476 526.347200
    120    116    123     1   112.3500484 533.878400
    120    132    138     1   111.5100476 526.347200
    123    126    135     1   111.5100476 526.347200
    126    135    144     1   107.9700462 569.024000
    129    141    347     1   107.9700462 569.024000
    132    138    318     1   107.9700462 569.024000
    138    318    309     1   112.4800480 524.673600
    141    347    338     1   112.4800480 524.673600
    145    146    158     1   111.0400475 552.288000
    145    149    161     1   111.0400475 552.288000
    145    152    155     1   111.0400475 552.288000
    146    145    149     1   112.3500484 533.878400
    146    145    152     1   112.3500484 533.878400
    146    158    170     1   111.5100476 526.347200
    149    145    152     1   112.3500484 533.878400
    149    161    167     1   111.5100476 526.347200
    152    155    164     1   111.5100476 526.347200
    155    164    173     1   107.9700462 569.024000
    158    170    405     1   107.9700462 569.024000
    161    167    376     1   107.9700462 569.024000
    167    376    367     1   112.4800480 524.673600
    170    405    396     1   112.4800480 524.673600
    174    175    187     1   111.0400475 552.288000
    174    178    190     1   111.0400475 552.288000
    174    181    184     1   111.0400475 552.288000
    175    174    178     1   112.3500484 533.878400
    175    174    181     1   112.3500484 533.878400
    175    187    199     1   111.5100476 526.347200
    178    174    181     1   112.3500484 533.878400
    178    190    196     1   111.5100476 526.347200
    181    184    193     1   111.5100476 526.347200
    184    193    202     1   107.9700462 569.024000
    187    199    439     1   107.9700462 569.024000
    190    196    416     1   107.9700462 569.024000
    196    416    412     1   112.4800480 524.673600
    199    439    435     1   112.4800480 524.673600
    203    204    216     1   111.0400475 552.288000
    203    207    219     1   111.0400475 552.288000
    203    210    213     1   111.0400475 552.288000
    204    203    207     1   112.3500484 533.878400
    204    203    210     1   112.3500484 533.878400
    204    216    228     1   111.5100476 526.347200
    207    203    210     1   112.3500484 533.878400
    207    219    225     1   111.5100476 526.347200
    210    213    222     1   111.5100476 526.347200
    213    222    231     1   107.9700462 569.024000
    216    228    485     1   107.9700462 569.024000
    219    225    462     1   107.9700462 569.024000
    225    462    458     1   112.4800480 524.673600
    228    485    481     1   112.4800480 524.673600
    232    233    245     1   111.0400475 552.288000
    232    236    248     1   111.0400475 552.288000
    232    239    242     1   111.0400475 552.288000
    233    232    236     1   112.3500484 533.878400
    233    232    239     1   112.3500484 533.878400
    233    245    257     1   111.5100476 526.347200
    236    232    239     1   112.3500484 533.878400
    236    248    254     1   111.5100476 526.347200
    239    242    251     1   111.5100476 526.347200
    242    251    260     1   107.9700462 569.024000
    245    257    531     1   107.9700462 569.024000
    248    254    508     1   107.9700462 569.024000
    254    508    504     1   112.4800480 524.673600
    257    531    527     1   112.4800480 524.673600
    261    262    274     1   111.0400475 552.288000
    261    265    277     1   111.0400475 552.288000
    261    268    271     1   111.0400475 552.288000
    262    261    265     1   112.3500484 533.878400
    262    261    268     1   112.3500484 533.878400
    262    274    286     1   111.5100476 526.347200
    265    261    268     1   112.3500484 533.878400
    265    277    283     1   111.5100476 526.347200
    268    271    280     1   111.5100476 526.347200
    271    280    289     1   107.9700462 569.024000
    274    286    577     1   107.9700462 569.024000
    277    283    554     1   107.9700462 569.024000
    283    554    550     1   112.4800480 524.673600
    286    577    573     1   112.4800480 524.673600
    290    291    303     1   111.0400475 552.288000
    290    294    306     1   111.0400475 552.288000
    290    297    300     1   111.0400475 552.288000
    291    290    294     1   112.3500484 533.878400
    291    290    297     1   112.3500484 533.878400
    291    303    315     1   111.5100476 526.347200
    294    290    297     1   112.3500484 533.878400
    294    306    312     1   111.5100476 526.347200
    297    300    309     1   111.5100476 526.347200
    300    309    318     1   107.9700462 569.024000
    303    315    623     1   107.9700462 569.024000
    306    312    600     1   107.9700462 569.024000
    312    600    596     1   112.4800480 524.673600
    315    623    619     1   112.4800480 524.673600
    319    320    332     1   111.0400475 552.288000
    319    323    335     1   111.0400475 552.288000
    319    326    329     1   111.0400475 552.288000
    320    319    323     1   112.3500484 533.878400
    320    319    326     1   112.3500484 533.878400
    320    332    344     1   111.5100476 526.347200
    323    319    326     1   112.3500484 533.878400
    323    335    341     1   111.5100476 526.347200
    326    329    338     1   111.5100476 526.347200
    329    338    347     1   107.9700462 569.024000
    332    344    669     1   107.9700462 569.024000
    335    341    646     1   107.9700462 569.024000
    341    646    642     1   112.4800480 524.673600
    344    669    665     1   112.4800480 524.673600
    348    349    361     1   111.0400475 552.288000
    348    352    364     1   111.0400475 552.288000
    348    355    358     1   111.0400475 552.288000
    349    348    352     1   112.3500484 533.878400
    349    348    355     1   112.3500484 533.878400
    349    361    373     1   111.5100476 526.347200
    352    348    355     1   112.3500484 533.878400
    352    364    370     1   111.5100476 526.347200
    355    358    367     1   111.5100476 526.347200
    358    367    376     1   107.9700462 569.024000
    361    373    715     1   107.9700462 569.024000
    364    370    692     1   107.9700462 569.024000
    370    692    688     1   112.4800480 524.673600
    373    715    711     1   112.4800480 524.673600
    377    378    390     1   111.0400475 552.288000
    377    381    393     1   111.0400475 552.288000
    377    384    387     1   111.0400475 552.288000
    378    377    381     1   112.3500484 533.878400
    378    377    384     1   112.3500484 533.878400
    378    390    402     1   111.5100476 526.347200
    381    377    384     1   112.3500484 533.878400
    381    393    399     1   111.5100476 526.347200
    384    387    396     1   111.5100476 526.347200
    387    396    405     1   107.9700462 569.024000
    390    402    761     1   107.9700462 569.024000
    393    399    738     1   107.9700462 569.024000
    399    738    734     1   112.4800480 524.673600
    402    761    757     1   112.4800480 524.673600
    406    407    410     1   111.5100476 526.347200
    406    407    419     1   110.1900474 564.840000
    406    420    426     1   110.1900474 564.840000
    406    428    412     1   112.4800480 524.673600
    407    406    420     1   111.5100476 526.347200
    407    406    428     1   107.9700462 569.024000
    407    410    411     1   111.5100476 526.347200
    407    410    418     1   110.1900474 564.840000
    410    407    419     1   110.1900474 564.840000
    410    411    412     1   111.5100476 526.347200
    410    411    417     1   110.1900474 564.840000
    411    410    418     1   110.1900474 564.840000
    411    412    416     1   107.9700462 569.024000
    411    412    428     1   107.9700462 569.024000
    412    411    417     1   110.1900474 564.840000
    416    412    428     1   108.2900466 608.353600
    420    406    428     1   107.9700462 569.024000
    429    430    433     1   111.5100476 526.347200
    429    430    442     1   110.1900474 564.840000
    429    443    449     1   110.1900474 564.840000
    429    451    435     1   112.4800480 524.673600
    430    433    434     1   111.5100476 526.347200
    430    433    441     1   110.1900474 564.840000
    430    429    443     1   111.5100476 526.347200
    430    429    451     1   107.9700462 569.024000
    433    434    435     1   111.5100476 526.347200
    433    434    440     1   110.1900474 564.840000
    433    430    442     1   110.1900474 564.840000
    434    435    439     1   107.9700462 569.024000
    434    435    451     1   107.9700462 569.024000
    434    433    441     1   110.1900474 564.840000
    435    434    440     1   110.1900474 564.840000
    439    435    451     1   108.2900466 608.353600
    443    429    451     1   107.9700462 569.024000
    452    453    456     1   111.5100476 526.347200
    452    453    465     1   110.1900474 564.840000
    452    466    472     1   110.1900474 564.840000
    452    474    458     1   112.4800480 524.673600
    453    452    466     1   111.5100476 526.347200
    453    452    474     1   107.9700462 569.024000
    453    456    457     1   111.5100476 526.347200
    453    456    464     1   110.1900474 564.840000
    456    453    465     1   110.1900474 564.840000
    456    457    458     1   111.5100476 526.347200
    456    457    463     1   110.1900474 564.840000
    457    456    464     1   110.1900474 564.840000
    457    458    462     1   107.9700462 569.024000
    457    458    474     1   107.9700462 569.024000
    458    457    463     1   110.1900474 564.840000
    462    458    474     1   108.2900466 608.353600
    466    452    474     1   107.9700462 569.024000
    475    476    479     1   111.5100476 526.347200
    475    476    488     1   110.1900474 564.840000
    475    489    495     1   110.1900474 564.840000
    475    497    481     1   112.4800480 524.673600
    476    479    480     1   111.5100476 526.347200
    476    479    487     1   110.1900474 564.840000
    476    475    489     1   111.5100476 526.347200
    476    475    497     1   107.9700462 569.024000
    479    480    481     1   111.5100476 526.347200
    479    480    486     1   110.1900474 564.840000
    479    476    488     1   110.1900474 564.840000
    480    481    485     1   107.9700462 569.024000
    480    481    497     1   107.9700462 569.024000
    480    479    487     1   110.1900474 564.840000
    481    480    486     1   110.1900474 564.840000
    485    481    497     1   108.2900466 608.353600
    489    475    497     1   107.9700462 569.024000
    498    499    502     1   111.5100476 526.347200
    498    499    511     1   110.1900474 564.840000
    498    512    518     1   110.1900474 564.840000
    498    520    504     1   112.4800480 524.673600
    499    498    512     1   111.5100476 526.347200
    499    498    520     1   107.9700462 569.024000
    499    502    503     1   111.5100476 526.347200
    499    502    510     1   110.1900474 564.840000
    502    499    511     1   110.1900474 564.840000
    502    503    504     1   111.5100476 526.347200
    502    503    509     1   110.1900474 564.840000
    503    502    510     1   110.1900474 564.840000
    503    504    508     1   107.9700462 569.024000
    503    504    520     1   107.9700462 569.024000
    504    503    509     1   110.1900474 564.840000
    508    504    520     1   108.2900466 608.353600
    512    498    520     1   107.9700462 569.024000
    521    522    525     1   111.5100476 526.347200
    521    522    534     1   110.1900474 564.840000
    521    535    541     1   110.1900474 564.840000
    521    543    527     1   112.4800480 524.673600
    522    525    526     1   111.5100476 526.347200
    522    525    533     1   110.1900474 564.840000
    522    521    535     1   111.5100476 526.347200
    522    521    543     1   107.9700462 569.024000
    525    526    527     1   111.5100476 526.347200
    525    526    532     1   110.1900474 564.840000
    525    522    534     1   110.1900474 564.840000
    526    527    531     1   107.9700462 569.024000
    526    527    543     1   107.9700462 569.024000
    526    525    533     1   110.1900474 564.840000
    527    526    532     1   110.1900474 564.840000
    531    527    543     1   108.2900466 608.353600
    535    521    543     1   107.9700462 569.024000
    544    545    548     1   111.5100476 526.347200
    544    545    557     1   110.1900474 564.840000
    544    558    564     1   110.1900474 564.840000
    544    566    550     1   112.4800480 524.673600
    545    544    558     1   111.5100476 526.347200
    545    544    566     1   107.9700462 569.024000
    545    548    549     1   111.5100476 526.347200
    545    548    556     1   110.1900474 564.840000
    548    545    557     1   110.1900474 564.840000
    548    549    550     1   111.5100476 526.347200
    548    549    555     1   110.1900474 564.840000
    549    548    556     1   110.1900474 564.840000
    549    550    554     1   107.9700462 569.024000
    549    550    566     1   107.9700462 569.024000
    550    549    555     1   110.1900474 564.840000
    554    550    566     1   108.2900466 608.353600
    558    544    566     1   107.9700462 569.024000
    567    568    571     1   111.5100476 526.347200
    567    568    580     1   110.1900474 564.840000
    567    581    587     1   110.1900474 564.840000
    567    589    573     1   112.4800480 524.673600
    568    571    572     1   111.5100476 526.347200
    568    571    579     1   110.1900474 564.840000
    568    567    581     1   111.5100476 526.347200
    568    567    589     1   107.9700462 569.024000
    571    572    573     1   111.5100476 526.347200
    571    572    578     1   110.1900474 564.840000
    571    568    580     1   110.1900474 564.840000
    572    573    577     1   107.9700462 569.024000
    572    573    589     1   107.9700462 569.024000
    572    571    579     1   110.1900474 564.840000
    573    572    578     1   110.1900474 564.840000
    577    573    589     1   108.2900466 608.353600
    581    567    589     1   107.9700462 569.024000
    590    591    594     1   111.5100476 526.347200
    590    591    603     1   110.1900474 564.840000
    590    604    610     1   110.1900474 564.840000
    590    612    596     1   112.4800480 524.673600
    591    590    604     1   111.5100476 526.347200
    591    590    612     1   107.9700462 569.024000
    591    594    595     1   111.5100476 526.347200
    591    594    602     1   110.1900474 564.840000
    594    591    603     1   110.1900474 564.840000
    594    595    596     1   111.5100476 526.347200
    594    595    601     1   110.1900474 564.840000
    595    594    602     1   110.1900474 564.840000
    595    596    600     1   107.9700462 569.024000
    595    596    612     1   107.9700462 569.024000
    596    595    601     1   110.1900474 564.840000
    600    596    612     1   108.2900466 608.353600
    604    590    612     1   107.9700462 569.024000
    613    614    617     1   111.5100476 526.347200
    613    614    626     1   110.1900474 564.840000
    613    627    633     1   110.1900474 564.840000
    613    635    619     1   112.4800480 524.673600
    614    617    618     1   111.5100476 526.347200
    614    617    625     1   110.1900474 564.840000
    614    613    627     1   111.5100476 526.347200
    614    613    635     1   107.9700462 569.024000
    617    618    619     1   111.5100476 526.347200
    617    618    624     1   110.1900474 564.840000
    617    614    626     1   110.1900474 564.840000
    618    619    623     1   107.9700462 569.024000
    618    619    635     1   107.9700462 569.024000
    618    617    625     1   110.1900474 564.840000
    619    618    624     1   110.1900474 564.840000
    623    619    635     1   108.2900466 608.353600
    627    613    635     1   107.9700462 569.024000
    636    637    640     1   111.5100476 526.347200
    636    637    649     1   110.1900474 564.840000
    636    650    656     1   110.1900474 564.840000
    636    658    642     1   112.4800480 524.673600
    637    636    650     1   111.5100476 526.347200
    637    636    658     1   107.9700462 569.024000
    637    640    641     1   111.5100476 526.347200
    637    640    648     1   110.1900474 564.840000
    640    637    649     1   110.1900474 564.840000
    640    641    642     1   111.5100476 526.347200
    640    641    647     1   110.1900474 564.840000
    641    640    648     1   110.1900474 564.840000
    641    642    646     1   107.9700462 569.024000
    641    642    658     1   107.9700462 569.024000
    642    641    647     1   110.1900474 564.840000
    646    642    658     1   108.2900466 608.353600
    650    636    658     1   107.9700462 569.024000
    659    660    663     1   111.5100476 526.347200
    659    660    672     1   110.1900474 564.840000
    659    673    679     1   110.1900474 564.840000
    659    681    665     1   112.4800480 524.673600
    660    663    664     1   111.5100476 526.347200
    660    663    671     1   110.1900474 564.840000
    660    659    673     1   111.5100476 526.347200
    660    659    681     1   107.9700462 569.024000
    663    664    665     1   111.5100476 526.347200
    663    664    670     1   110.1900474 564.840000
    663    660    672     1   110.1900474 564.840000
    664    665    669     1   107.9700462 569.024000
    664    665    681     1   107.9700462 569.024000
    664    663    671     1   110.1900474 564.840000
    665    664    670     1   110.1900474 564.840000
    669    665    681     1   108.2900466 608.353600
    673    659    681     1   107.9700462 569.024000
    682    683    686     1   111.5100476 526.347200
    682    683    695     1   110.1900474 564.840000
    682    696    702     1   110.1900474 564.840000
    682    704    688     1   112.4800480 524.673600
    683    682    696     1   111.5100476 526.347200
    683    682    704     1   107.9700462 569.024000
    683    686    687     1   111.5100476 526.347200
    683    686    694     1   110.1900474 564.840000
    686    683    695     1   110.1900474 564.840000
    686    687    688     1   111.5100476 526.347200
    686    687    693     1   110.1900474 564.840000
    687    686    694     1   110.1900474 564.840000
    687    688    692     1   107.9700462 569.024000
    687    688    704     1   107.9700462 569.024000
    688    687    693     1   110.1900474 564.840000
    692    688    704     1   108.2900466 608.353600
    696    682    704     1   107.9700462 569.024000
    705    706    709     1   111.5100476 526.347200
    705    706    718     1   110.1900474 564.840000
    705    719    725     1   110.1900474 564.840000
    705    727    711     1   112.4800480 524.673600
    706    709    710     1   111.5100476 526.347200
    706    709    717     1   110.1900474 564.840000
    706    705    719     1   111.5100476 526.347200
    706    705    727     1   107.9700462 569.024000
    709    710    711     1   111.5100476 526.347200
    709    710    716     1   110.1900474 564.840000
    709    706    718     1   110.1900474 564.840000
    710    711    715     1   107.9700462 569.024000
    710    711    727     1   107.9700462 569.024000
    710    709    717     1   110.1900474 564.840000
    711    710    716     1   110.1900474 564.840000
    715    711    727     1   108.2900466 608.353600
    719    705    727     1   107.9700462 569.024000
    728    729    732     1   111.5100476 526.347200
    728    729    741     1   110.1900474 564.840000
    728    742    748     1   110.1900474 564.840000
    728    750    734     1   112.4800480 524.673600
    729    728    742     1   111.5100476 526.347200
    729    728    750     1   107.9700462 569.024000
    729    732    733     1   111.5100476 526.347200
    729    732    740     1   110.1900474 564.840000
    732    729    741     1   110.1900474 564.840000
    732    733    734     1   111.5100476 526.347200
    732    733    739     1   110.1900474 564.840000
    733    732    740     1   110.1900474 564.840000
    733    734    738     1   107.9700462 569.024000
    733    734    750     1   107.9700462 569.024000
    734    733    739     1   110.1900474 564.840000
    738    734    750     1   108.2900466 608.353600
    742    728    750     1   107.9700462 569.024000
    751    752    755     1   111.5100476 526.347200
    751    752    764     1   110.1900474 564.840000
    751    765    771     1   110.1900474 564.840000
    751    773    757     1   112.4800480 524.673600
    752    755    756     1   111.5100476 526.347200
    752    755    763     1   110.1900474 564.840000
    752    751    765     1   111.5100476 526.347200
    752    751    773     1   107.9700462 569.024000
    755    756    757     1   111.5100476 526.347200
    755    756    762     1   110.1900474 564.840000
    755    752    764     1   110.1900474 564.840000
    756    757    761     1   107.9700462 569.024000
    756    757    773     1   107.9700462 569.024000
    756    755    763     1   110.1900474 564.840000
    757    756    762     1   110.1900474 564.840000
    761    757    773     1   108.2900466 608.353600
    765    751    773     1   107.9700462 569.024000
      1      2      3     1   109.7800468 425.094400
      1      2      4     1   109.7800468 425.094400
      1      5      6     1   109.7800468 425.094400
      1      5      7     1   109.7800468 425.094400
      2      8      9     1   109.8000471 387.438400
      2      8     10     1   109.8000471 387.438400
      3      2      8     1   109.5600471 388.275200
      3      2      4     1   108.4600466 328.025600
      4      2      8     1   109.5600471 388.275200
      5     11     12     1   109.8000471 387.438400
      5     11     13     1   109.8000471 387.438400
      6      5     11     1   109.5600471 388.275200
      6      5      7     1   108.4600466 328.025600
      7      5     11     1   109.5600471 388.275200
      8     14     15     1   109.5600471 388.275200
      8     14     16     1   109.5600471 388.275200
      9      8     14     1   109.8000471 387.438400
      9      8     10     1   107.5800459 329.699200
     10      8     14     1   109.8000471 387.438400
     11     17     18     1   109.5600471 388.275200
     11     17     19     1   109.5600471 388.275200
     12     11     17     1   109.8000471 387.438400
     12     11     13     1   107.5800459 329.699200
     13     11     17     1   109.8000471 387.438400
     15     14     20     1   109.8800469 414.216000
     15     14     16     1   108.4600466 328.025600
     16     14     20     1   109.8800469 414.216000
     18     17     21     1   109.8800469 414.216000
     18     17     19     1   108.4600466 328.025600
     19     17     21     1   109.8800469 414.216000
     20     28     29     1   109.8800469 414.216000
     20     28     30     1   109.8800469 414.216000
     20     31     32     1   109.8800469 414.216000
     20     31     33     1   109.8800469 414.216000
     21     22     23     1   109.8800469 414.216000
     21     22     24     1   109.8800469 414.216000
     21     25     26     1   109.8800469 414.216000
     21     25     27     1   109.8800469 414.216000
     22     34     35     1   109.8000471 387.438400
     22     34     36     1   109.8000471 387.438400
     23     22     34     1   109.5600471 388.275200
     23     22     24     1   108.4600466 328.025600
     24     22     34     1   109.5600471 388.275200
     25     37     38     1   109.8000471 387.438400
     25     37     39     1   109.8000471 387.438400
     26     25     37     1   109.5600471 388.275200
     26     25     27     1   108.4600466 328.025600
     27     25     37     1   109.5600471 388.275200
     28     40     41     1   109.8000471 387.438400
     28     40     42     1   109.8000471 387.438400
     29     28     40     1   109.5600471 388.275200
     29     28     30     1   108.4600466 328.025600
     30     28     40     1   109.5600471 388.275200
     31     43     44     1   109.8000471 387.438400
     31     43     45     1   109.8000471 387.438400
     32     31     43     1   109.5600471 388.275200
     32     31     33     1   108.4600466 328.025600
     33     31     43     1   109.5600471 388.275200
     34     55     56     1   109.5600471 388.275200
     34     55     57     1   109.5600471 388.275200
     35     34     55     1   109.8000471 387.438400
     35     34     36     1   107.5800459 329.699200
     36     34     55     1   109.8000471 387.438400
     37     52     53     1   109.5600471 388.275200
     37     52     54     1   109.5600471 388.275200
     38     37     52     1   109.8000471 387.438400
     38     37     39     1   107.5800459 329.699200
     39     37     52     1   109.8000471 387.438400
     40     49     50     1   109.5600471 388.275200
     40     49     51     1   109.5600471 388.275200
     41     40     49     1   109.8000471 387.438400
     41     40     42     1   107.5800459 329.699200
     42     40     49     1   109.8000471 387.438400
     43     46     47     1   109.5600471 388.275200
     43     46     48     1   109.5600471 388.275200
     44     43     46     1   109.8000471 387.438400
     44     43     45     1   107.5800459 329.699200
     45     43     46     1   109.8000471 387.438400
     47     46     86     1   109.7800468 425.094400
     47     46     48     1   108.4600466 328.025600
     48     46     86     1   109.7800468 425.094400
     50     49    115     1   109.7800468 425.094400
     50     49     51     1   108.4600466 328.025600
     51     49    115     1   109.7800468 425.094400
     53     52    144     1   109.7800468 425.094400
     53     52     54     1   108.4600466 328.025600
     54     52    144     1   109.7800468 425.094400
     56     55    173     1   109.7800468 425.094400
     56     55     57     1   108.4600466 328.025600
     57     55    173     1   109.7800468 425.094400
     58     59     60     1   109.8800469 414.216000
     58     59     61     1   109.8800469 414.216000
     58     62     63     1   109.8800469 414.216000
     58     62     64     1   109.8800469 414.216000
     58     65     66     1   109.8800469 414.216000
     58     65     67     1   109.8800469 414.216000
     59     71     72     1   109.8000471 387.438400
     59     71     73     1   109.8000471 387.438400
     60     59     71     1   109.5600471 388.275200
     60     59     61     1   108.4600466 328.025600
     61     59     71     1   109.5600471 388.275200
     62     74     75     1   109.8000471 387.438400
     62     74     76     1   109.8000471 387.438400
     63     62     74     1   109.5600471 388.275200
     63     62     64     1   108.4600466 328.025600
     64     62     74     1   109.5600471 388.275200
     65     68     69     1   109.8000471 387.438400
     65     68     70     1   109.8000471 387.438400
     66     65     68     1   109.5600471 388.275200
     66     65     67     1   108.4600466 328.025600
     67     65     68     1   109.5600471 388.275200
     68     77     78     1   109.5600471 388.275200
     68     77     79     1   109.5600471 388.275200
     69     68     77     1   109.8000471 387.438400
     69     68     70     1   107.5800459 329.699200
     70     68     77     1   109.8000471 387.438400
     71     83     84     1   109.5600471 388.275200
     71     83     85     1   109.5600471 388.275200
     72     71     83     1   109.8000471 387.438400
     72     71     73     1   107.5800459 329.699200
     73     71     83     1   109.8000471 387.438400
     74     80     81     1   109.5600471 388.275200
     74     80     82     1   109.5600471 388.275200
     75     74     80     1   109.8000471 387.438400
     75     74     76     1   107.5800459 329.699200
     76     74     80     1   109.8000471 387.438400
     78     77     86     1   109.7800468 425.094400
     78     77     79     1   108.4600466 328.025600
     79     77     86     1   109.7800468 425.094400
     81     80    202     1   109.7800468 425.094400
     81     80     82     1   108.4600466 328.025600
     82     80    202     1   109.7800468 425.094400
     84     83    231     1   109.7800468 425.094400
     84     83     85     1   108.4600466 328.025600
     85     83    231     1   109.7800468 425.094400
     87     88     89     1   109.8800469 414.216000
     87     88     90     1   109.8800469 414.216000
     87     91     92     1   109.8800469 414.216000
     87     91     93     1   109.8800469 414.216000
     87     94     95     1   109.8800469 414.216000
     87     94     96     1   109.8800469 414.216000
     88    100    101     1   109.8000471 387.438400
     88    100    102     1   109.8000471 387.438400
     89     88    100     1   109.5600471 388.275200
     89     88     90     1   108.4600466 328.025600
     90     88    100     1   109.5600471 388.275200
     91    103    104     1   109.8000471 387.438400
     91    103    105     1   109.8000471 387.438400
     92     91    103     1   109.5600471 388.275200
     92     91     93     1   108.4600466 328.025600
     93     91    103     1   109.5600471 388.275200
     94     97     98     1   109.8000471 387.438400
     94     97     99     1   109.8000471 387.438400
     95     94     97     1   109.5600471 388.275200
     95     94     96     1   108.4600466 328.025600
     96     94     97     1   109.5600471 388.275200
     97    106    107     1   109.5600471 388.275200
     97    106    108     1   109.5600471 388.275200
     98     97    106     1   109.8000471 387.438400
     98     97     99     1   107.5800459 329.699200
     99     97    106     1   109.8000471 387.438400
    100    112    113     1   109.5600471 388.275200
    100    112    114     1   109.5600471 388.275200
    101    100    112     1   109.8000471 387.438400
    101    100    102     1   107.5800459 329.699200
    102    100    112     1   109.8000471 387.438400
    103    109    110     1   109.5600471 388.275200
    103    109    111     1   109.5600471 388.275200
    104    103    109     1   109.8000471 387.438400
    104    103    105     1   107.5800459 329.699200
    105    103    109     1   109.8000471 387.438400
    107    106    115     1   109.7800468 425.094400
    107    106    108     1   108.4600466 328.025600
    108    106    115     1   109.7800468 425.094400
    110    109    260     1   109.7800468 425.094400
    110    109    111     1   108.4600466 328.025600
    111    109    260     1   109.7800468 425.094400
    113    112    289     1   109.7800468 425.094400
    113    112    114     1   108.4600466 328.025600
    114    112    289     1   109.7800468 425.094400
    116    117    118     1   109.8800469 414.216000
    116    117    119     1   109.8800469 414.216000
    116    120    121     1   109.8800469 414.216000
    116    120    122     1   109.8800469 414.216000
    116    123    124     1   109.8800469 414.216000
    116    123    125     1   109.8800469 414.216000
    117    129    130     1   109.8000471 387.438400
    117    129    131     1   109.8000471 387.438400
    118    117    129     1   109.5600471 388.275200
    118    117    119     1   108.4600466 328.025600
    119    117    129     1   109.5600471 388.275200
    120    132    133     1   109.8000471 387.438400
    120    132    134     1   109.8000471 387.438400
    121    120    132     1   109.5600471 388.275200
    121    120    122     1   108.4600466 328.025600
    122    120    132     1   109.5600471 388.275200
    123    126    127     1   109.8000471 387.438400
    123    126    128     1   109.8000471 387.438400
    124    123    126     1   109.5600471 388.275200
    124    123    125     1   108.4600466 328.025600
    125    123    126     1   109.5600471 388.275200
    126    135    136     1   109.5600471 388.275200
    126    135    137     1   109.5600471 388.275200
    127    126    135     1   109.8000471 387.438400
    127    126    128     1   107.5800459 329.699200
    128    126    135     1   109.8000471 387.438400
    129    141    142     1   109.5600471 388.275200
    129    141    143     1   109.5600471 388.275200
    130    129    141     1   109.8000471 387.438400
    130    129    131     1   107.5800459 329.699200
    131    129    141     1   109.8000471 387.438400
    132    138    139     1   109.5600471 388.275200
    132    138    140     1   109.5600471 388.275200
    133    132    138     1   109.8000471 387.438400
    133    132    134     1   107.5800459 329.699200
    134    132    138     1   109.8000471 387.438400
    136    135    144     1   109.7800468 425.094400
    136    135    137     1   108.4600466 328.025600
    137    135    144     1   109.7800468 425.094400
    139    138    318     1   109.7800468 425.094400
    139    138    140     1   108.4600466 328.025600
    140    138    318     1   109.7800468 425.094400
    142    141    347     1   109.7800468 425.094400
    142    141    143     1   108.4600466 328.025600
    143    141    347     1   109.7800468 425.094400
    145    146    147     1   109.8800469 414.216000
    145    146    148     1   109.8800469 414.216000
    145    149    150     1   109.8800469 414.216000
    145    149    151     1   109.8800469 414.216000
    145    152    153     1   109.8800469 414.216000
    145    152    154     1   109.8800469 414.216000
    146    158    159     1   109.8000471 387.438400
    146    158    160     1   109.8000471 387.438400
    147    146    158     1   109.5600471 388.275200
    147    146    148     1   108.4600466 328.025600
    148    146    158     1   109.5600471 388.275200
    149    161    162     1   109.8000471 387.438400
    149    161    163     1   109.8000471 387.438400
    150    149    161     1   109.5600471 388.275200
    150    149    151     1   108.4600466 328.025600
    151    149    161     1   109.5600471 388.275200
    152    155    156     1   109.8000471 387.438400
    152    155    157     1   109.8000471 387.438400
    153    152    155     1   109.5600471 388.275200
    153    152    154     1   108.4600466 328.025600
    154    152    155     1   109.5600471 388.275200
    155    164    165     1   109.5600471 388.275200
    155    164    166     1   109.5600471 388.275200
    156    155    164     1   109.8000471 387.438400
    156    155    157     1   107.5800459 329.699200
    157    155    164     1   109.8000471 387.438400
    158    170    171     1   109.5600471 388.275200
    158    170    172     1   109.5600471 388.275200
    159    158    170     1   109.8000471 387.438400
    159    158    160     1   107.5800459 329.699200
    160    158    170     1   109.8000471 387.438400
    161    167    168     1   109.5600471 388.275200
    161    167    169     1   109.5600471 388.275200
    162    161    167     1   109.8000471 387.438400
    162    161    163     1   107.5800459 329.699200
    163    161    167     1   109.8000471 387.438400
    165    164    173     1   109.7800468 425.094400
    165    164    166     1   108.4600466 328.025600
    166    164    173     1   109.7800468 425.094400
    168    167    376     1   109.7800468 425.094400
    168    167    169     1   108.4600466 328.025600
    169    167    376     1   109.7800468 425.094400
    171    170    405     1   109.7800468 425.094400
    171    170    172     1   108.4600466 328.025600
    172    170    405     1   109.7800468 425.094400
    174    175    176     1   109.8800469 414.216000
    174    175    177     1   109.8800469 414.216000
    174    178    179     1   109.8800469 414.216000
    174    178    180     1   109.8800469 414.216000
    174    181    182     1   109.8800469 414.216000
    174    181    183     1   109.8800469 414.216000
    175    187    188     1   109.8000471 387.438400
    175    187    189     1   109.8000471 387.438400
    176    175    187     1   109.5600471 388.275200
    176    175    177     1   108.4600466 328.025600
    177    175    187     1   109.5600471 388.275200
    178    190    191     1   109.8000471 387.438400
    178    190    192     1   109.8000471 387.438400
    179    178    190     1   109.5600471 388.275200
    179    178    180     1   108.4600466 328.025600
    180    178    190     1   109.5600471 388.275200
    181    184    185     1   109.8000471 387.438400
    181    184    186     1   109.8000471 387.438400
    182    181    184     1   109.5600471 388.275200
    182    181    183     1   108.4600466 328.025600
    183    181    184     1   109.5600471 388.275200
    184    193    194     1   109.5600471 388.275200
    184    193    195     1   109.5600471 388.275200
    185    184    193     1   109.8000471 387.438400
    185    184    186     1   107.5800459 329.699200
    186    184    193     1   109.8000471 387.438400
    187    199    200     1   109.5600471 388.275200
    187    199    201     1   109.5600471 388.275200
    188    187    199     1   109.8000471 387.438400
    188    187    189     1   107.5800459 329.699200
    189    187    199     1   109.8000471 387.438400
    190    196    197     1   109.5600471 388.275200
    190    196    198     1   109.5600471 388.275200
    191    190    196     1   109.8000471 387.438400
    191    190    192     1   107.5800459 329.699200
    192    190    196     1   109.8000471 387.438400
    194    193    202     1   109.7800468 425.094400
    194    193    195     1   108.4600466 328.025600
    195    193    202     1   109.7800468 425.094400
    197    196    416     1   109.7800468 425.094400
    197    196    198     1   108.4600466 328.025600
    198    196    416     1   109.7800468 425.094400
    200    199    439     1   109.7800468 425.094400
    200    199    201     1   108.4600466 328.025600
    201    199    439     1   109.7800468 425.094400
    203    204    205     1   109.8800469 414.216000
    203    204    206     1   109.8800469 414.216000
    203    207    208     1   109.8800469 414.216000
    203    207    209     1   109.8800469 414.216000
    203    210    211     1   109.8800469 414.216000
    203    210    212     1   109.8800469 414.216000
    204    216    217     1   109.8000471 387.438400
    204    216    218     1   109.8000471 387.438400
    205    204    216     1   109.5600471 388.275200
    205    204    206     1   108.4600466 328.025600
    206    204    216     1   109.5600471 388.275200
    207    219    220     1   109.8000471 387.438400
    207    219    221     1   109.8000471 387.438400
    208    207    219     1   109.5600471 388.275200
    208    207    209     1   108.4600466 328.025600
    209    207    219     1   109.5600471 388.275200
    210    213    214     1   109.8000471 387.438400
    210    213    215     1   109.8000471 387.438400
    211    210    213     1   109.5600471 388.275200
    211    210    212     1   108.4600466 328.025600
    212    210    213     1   109.5600471 388.275200
    213    222    223     1   109.5600471 388.275200
    213    222    224     1   109.5600471 388.275200
    214    213    222     1   109.8000471 387.438400
    214    213    215     1   107.5800459 329.699200
    215    213    222     1   109.8000471 387.438400
    216    228    229     1   109.5600471 388.275200
    216    228    230     1   109.5600471 388.275200
    217    216    228     1   109.8000471 387.438400
    217    216    218     1   107.5800459 329.699200
    218    216    228     1   109.8000471 387.438400
    219    225    226     1   109.5600471 388.275200
    219    225    227     1   109.5600471 388.275200
    220    219    225     1   109.8000471 387.438400
    220    219    221     1   107.5800459 329.699200
    221    219    225     1   109.8000471 387.438400
    223    222    231     1   109.7800468 425.094400
    223    222    224     1   108.4600466 328.025600
    224    222    231     1   109.7800468 425.094400
    226    225    462     1   109.7800468 425.094400
    226    225    227     1   108.4600466 328.025600
    227    225    462     1   109.7800468 425.094400
    229    228    485     1   109.7800468 425.094400
    229    228    230     1   108.4600466 328.025600
    230    228    485     1   109.7800468 425.094400
    232    233    234     1   109.8800469 414.216000
    232    233    235     1   109.8800469 414.216000
    232    236    237     1   109.8800469 414.216000
    232    236    238     1   109.8800469 414.216000
    232    239    240     1   109.8800469 414.216000
    232    239    241     1   109.8800469 414.216000
    233    245    246     1   109.8000471 387.438400
    233    245    247     1   109.8000471 387.438400
    234    233    245     1   109.5600471 388.275200
    234    233    235     1   108.4600466 328.025600
    235    233    245     1   109.5600471 388.275200
    236    248    249     1   109.8000471 387.438400
    236    248    250     1   109.8000471 387.438400
    237    236    248     1   109.5600471 388.275200
    237    236    238     1   108.4600466 328.025600
    238    236    248     1   109.5600471 388.275200
    239    242    243     1   109.8000471 387.438400
    239    242    244     1   109.8000471 387.438400
    240    239    242     1   109.5600471 388.275200
    240    239    241     1   108.4600466 328.025600
    241    239    242     1   109.5600471 388.275200
    242    251    252     1   109.5600471 388.275200
    242    251    253     1   109.5600471 388.275200
    243    242    251     1   109.8000471 387.438400
    243    242    244     1   107.5800459 329.699200
    244    242    251     1   109.8000471 387.438400
    245    257    258     1   109.5600471 388.275200
    245    257    259     1   109.5600471 388.275200
    246    245    257     1   109.8000471 387.438400
    246    245    247     1   107.5800459 329.699200
    247    245    257     1   109.8000471 387.438400
    248    254    255     1   109.5600471 388.275200
    248    254    256     1   109.5600471 388.275200
    249    248    254     1   109.8000471 387.438400
    249    248    250     1   107.5800459 329.699200
    250    248    254     1   109.8000471 387.438400
    252    251    260     1   109.7800468 425.094400
    252    251    253     1   108.4600466 328.025600
    253    251    260     1   109.7800468 425.094400
    255    254    508     1   109.7800468 425.094400
    255    254    256     1   108.4600466 328.025600
    256    254    508     1   109.7800468 425.094400
    258    257    531     1   109.7800468 425.094400
    258    257    259     1   108.4600466 328.025600
    259    257    531     1   109.7800468 425.094400
    261    262    263     1   109.8800469 414.216000
    261    262    264     1   109.8800469 414.216000
    261    265    266     1   109.8800469 414.216000
    261    265    267     1   109.8800469 414.216000
    261    268    269     1   109.8800469 414.216000
    261    268    270     1   109.8800469 414.216000
    262    274    275     1   109.8000471 387.438400
    262    274    276     1   109.8000471 387.438400
    263    262    274     1   109.5600471 388.275200
    263    262    264     1   108.4600466 328.025600
    264    262    274     1   109.5600471 388.275200
    265    277    278     1   109.8000471 387.438400
    265    277    279     1   109.8000471 387.438400
    266    265    277     1   109.5600471 388.275200
    266    265    267     1   108.4600466 328.025600
    267    265    277     1   109.5600471 388.275200
    268    271    272     1   109.8000471 387.438400
    268    271    273     1   109.8000471 387.438400
    269    268    271     1   109.5600471 388.275200
    269    268    270     1   108.4600466 328.025600
    270    268    271     1   109.5600471 388.275200
    271    280    281     1   109.5600471 388.275200
    271    280    282     1   109.5600471 388.275200
    272    271    280     1   109.8000471 387.438400
    272    271    273     1   107.5800459 329.699200
    273    271    280     1   109.8000471 387.438400
    274    286    287     1   109.5600471 388.275200
    274    286    288     1   109.5600471 388.275200
    275    274    286     1   109.8000471 387.438400
    275    274    276     1   107.5800459 329.699200
    276    274    286     1   109.8000471 387.438400
    277    283    284     1   109.5600471 388.275200
    277    283    285     1   109.5600471 388.275200
    278    277    283     1   109.8000471 387.438400
    278    277    279     1   107.5800459 329.699200
    279    277    283     1   109.8000471 387.438400
    281    280    289     1   109.7800468 425.094400
    281    280    282     1   108.4600466 328.025600
    282    280    289     1   109.7800468 425.094400
    284    283    554     1   109.7800468 425.094400
    284    283    285     1   108.4600466 328.025600
    285    283    554     1   109.7800468 425.094400
    287    286    577     1   109.7800468 425.094400
    287    286    288     1   108.4600466 328.025600
    288    286    577     1   109.7800468 425.094400
    290    291    292     1   109.8800469 414.216000
    290    291    293     1   109.8800469 414.216000
    290    294    295     1   109.8800469 414.216000
    290    294    296     1   109.8800469 414.216000
    290    297    298     1   109.8800469 414.216000
    290    297    299     1   109.8800469 414.216000
    291    303    304     1   109.8000471 387.438400
    291    303    305     1   109.8000471 387.438400
    292    291    303     1   109.5600471 388.275200
    292    291    293     1   108.4600466 328.025600
    293    291    303     1   109.5600471 388.275200
    294    306    307     1   109.8000471 387.438400
    294    306    308     1   109.8000471 387.438400
    295    294    306     1   109.5600471 388.275200
    295    294    296     1   108.4600466 328.025600
    296    294    306     1   109.5600471 388.275200
    297    300    301     1   109.8000471 387.438400
    297    300    302     1   109.8000471 387.438400
    298    297    300     1   109.5600471 388.275200
    298    297    299     1   108.4600466 328.025600
    299    297    300     1   109.5600471 388.275200
    300    309    310     1   109.5600471 388.275200
    300    309    311     1   109.5600471 388.275200
    301    300    309     1   109.8000471 387.438400
    301    300    302     1   107.5800459 329.699200
    302    300    309     1   109.8000471 387.438400
    303    315    316     1   109.5600471 388.275200
    303    315    317     1   109.5600471 388.275200
    304    303    315     1   109.8000471 387.438400
    304    303    305     1   107.5800459 329.699200
    305    303    315     1   109.8000471 387.438400
    306    312    313     1   109.5600471 388.275200
    306    312    314     1   109.5600471 388.275200
    307    306    312     1   109.8000471 387.438400
    307    306    308     1   107.5800459 329.699200
    308    306    312     1   109.8000471 387.438400
    310    309    318     1   109.7800468 425.094400
    310    309    311     1   108.4600466 328.025600
    311    309    318     1   109.7800468 425.094400
    313    312    600     1   109.7800468 425.094400
    313    312    314     1   108.4600466 328.025600
    314    312    600     1   109.7800468 425.094400
    316    315    623     1   109.7800468 425.094400
    316    315    317     1   108.4600466 328.025600
    317    315    623     1   109.7800468 425.094400
    319    320    321     1   109.8800469 414.216000
    319    320    322     1   109.8800469 414.216000
    319    323    324     1   109.8800469 414.216000
    319    323    325     1   109.8800469 414.216000
    319    326    327     1   109.8800469 414.216000
    319    326    328     1   109.8800469 414.216000
    320    332    333     1   109.8000471 387.438400
    320    332    334     1   109.8000471 387.438400
    321    320    332     1   109.5600471 388.275200
    321    320    322     1   108.4600466 328.025600
    322    320    332     1   109.5600471 388.275200
    323    335    336     1   109.8000471 387.438400
    323    335    337     1   109.8000471 387.438400
    324    323    335     1   109.5600471 388.275200
    324    323    325     1   108.4600466 328.025600
    325    323    335     1   109.5600471 388.275200
    326    329    330     1   109.8000471 387.438400
    326    329    331     1   109.8000471 387.438400
    327    326    329     1   109.5600471 388.275200
    327    326    328     1   108.4600466 328.025600
    328    326    329     1   109.5600471 388.275200
    329    338    339     1   109.5600471 388.275200
    329    338    340     1   109.5600471 388.275200
    330    329    338     1   109.8000471 387.438400
    330    329    331     1   107.5800459 329.699200
    331    329    338     1   109.8000471 387.438400
    332    344    345     1   109.5600471 388.275200
    332    344    346     1   109.5600471 388.275200
    333    332    344     1   109.8000471 387.438400
    333    332    334     1   107.5800459 329.699200
    334    332    344     1   109.8000471 387.438400
    335    341    342     1   109.5600471 388.275200
    335    341    343     1   109.5600471 388.275200
    336    335    341     1   109.8000471 387.438400
    336    335    337     1   107.5800459 329.699200
    337    335    341     1   109.8000471 387.438400
    339    338    347     1   109.7800468 425.094400
    339    338    340     1   108.4600466 328.025600
    340    338    347     1   109.7800468 425.094400
    342    341    646     1   109.7800468 425.094400
    342    341    343     1   108.4600466 328.025600
    343    341    646     1   109.7800468 425.094400
    345    344    669     1   109.7800468 425.094400
    345    344    346     1   108.4600466 328.025600
    346    344    669     1   109.7800468 425.094400
    348    349    350     1   109.8800469 414.216000
    348    349    351     1   109.8800469 414.216000
    348    352    353     1   109.8800469 414.216000
    348    352    354     1   109.8800469 414.216000
    348    355    356     1   109.8800469 414.216000
    348    355    357     1   109.8800469 414.216000
    349    361    362     1   109.8000471 387.438400
    349    361    363     1   109.8000471 387.438400
    350    349    361     1   109.5600471 388.275200
    350    349    351     1   108.4600466 328.025600
    351    349    361     1   109.5600471 388.275200
    352    364    365     1   109.8000471 387.438400
    352    364    366     1   109.8000471 387.438400
    353    352    364     1   109.5600471 388.275200
    353    352    354     1   108.4600466 328.025600
    354    352    364     1   109.5600471 388.275200
    355    358    359     1   109.8000471 387.438400
    355    358    360     1   109.8000471 387.438400
    356    355    358     1   109.5600471 388.275200
    356    355    357     1   108.4600466 328.025600
    357    355    358     1   109.5600471 388.275200
    358    367    368     1   109.5600471 388.275200
    358    367    369     1   109.5600471 388.275200
    359    358    367     1   109.8000471 387.438400
    359    358    360     1   107.5800459 329.699200
    360    358    367     1   109.8000471 387.438400
    361    373    374     1   109.5600471 388.275200
    361    373    375     1   109.5600471 388.275200
    362    361    373     1   109.8000471 387.438400
    362    361    363     1   107.5800459 329.699200
    363    361    373     1   109.8000471 387.438400
    364    370    371     1   109.5600471 388.275200
    364    370    372     1   109.5600471 388.275200
    365    364    370     1   109.8000471 387.438400
    365    364    366     1   107.5800459 329.699200
    366    364    370     1   109.8000471 387.438400
    368    367    376     1   109.7800468 425.094400
    368    367    369     1   108.4600466 328.025600
    369    367    376     1   109.7800468 425.094400
    371    370    692     1   109.7800468 425.094400
    371    370    372     1   108.4600466 328.025600
    372    370    692     1   109.7800468 425.094400
    374    373    715     1   109.7800468 425.094400
    374    373    375     1   108.4600466 328.025600
    375    373    715     1   109.7800468 425.094400
    377    378    379     1   109.8800469 414.216000
    377    378    380     1   109.8800469 414.216000
    377    381    382     1   109.8800469 414.216000
    377    381    383     1   109.8800469 414.216000
    377    384    385     1   109.8800469 414.216000
    377    384    386     1   109.8800469 414.216000
    378    390    391     1   109.8000471 387.438400
    378    390    392     1   109.8000471 387.438400
    379    378    390     1   109.5600471 388.275200
    379    378    380     1   108.4600466 328.025600
    380    378    390     1   109.5600471 388.275200
    381    393    394     1   109.8000471 387.438400
    381    393    395     1   109.8000471 387.438400
    382    381    393     1   109.5600471 388.275200
    382    381    383     1   108.4600466 328.025600
    383    381    393     1   109.5600471 388.275200
    384    387    388     1   109.8000471 387.438400
    384    387    389     1   109.8000471 387.438400
    385    384    387     1   109.5600471 388.275200
    385    384    386     1   108.4600466 328.025600
    386    384    387     1   109.5600471 388.275200
    387    396    397     1   109.5600471 388.275200
    387    396    398     1   109.5600471 388.275200
    388    387    396     1   109.8000471 387.438400
    388    387    389     1   107.5800459 329.699200
    389    387    396     1   109.8000471 387.438400
    390    402    403     1   109.5600471 388.275200
    390    402    404     1   109.5600471 388.275200
    391    390    402     1   109.8000471 387.438400
    391    390    392     1   107.5800459 329.699200
    392    390    402     1   109.8000471 387.438400
    393    399    400     1   109.5600471 388.275200
    393    399    401     1   109.5600471 388.275200
    394    393    399     1   109.8000471 387.438400
    394    393    395     1   107.5800459 329.699200
    395    393    399     1   109.8000471 387.438400
    397    396    405     1   109.7800468 425.094400
    397    396    398     1   108.4600466 328.025600
    398    396    405     1   109.7800468 425.094400
    400    399    738     1   109.7800468 425.094400
    400    399    401     1   108.4600466 328.025600
    401    399    738     1   109.7800468 425.094400
    403    402    761     1   109.7800468 425.094400
    403    402    404     1   108.4600466 328.025600
    404    402    761     1   109.7800468 425.094400
    406    407    409     1   109.5600471 388.275200
    406    420    424     1   109.5600471 388.275200
    406    420    425     1   109.5600471 388.275200
    407    406    408     1   109.5600471 388.275200
    407    410    414     1   109.5600471 388.275200
    407    419    422     1   107.2600461 396.643200
    408    406    420     1   109.5600471 388.275200
    408    406    428     1   109.7800468 425.094400
    409    407    410     1   109.5600471 388.275200
    409    407    419     1   110.2600474 425.931200
    410    411    413     1   109.5600471 388.275200
    410    418    421     1   107.2600461 396.643200
    411    410    414     1   109.5600471 388.275200
    411    412    415     1   110.2200475 386.601600
    411    417    423     1   107.2600461 396.643200
    412    411    413     1   109.5600471 388.275200
    413    411    417     1   110.2600474 425.931200
    414    410    418     1   110.2600474 425.931200
    415    412    416     1   109.5800467 425.931200
    415    412    428     1   109.5800467 425.931200
    420    426    427     1   107.2600461 396.643200
    424    420    426     1   110.2600474 425.931200
    424    420    425     1   108.4600466 328.025600
    425    420    426     1   110.2600474 425.931200
    429    430    432     1   109.5600471 388.275200
    429    443    447     1   109.5600471 388.275200
    429    443    448     1   109.5600471 388.275200
    430    433    437     1   109.5600471 388.275200
    430    442    445     1   107.2600461 396.643200
    430    429    431     1   109.5600471 388.275200
    431    429    443     1   109.5600471 388.275200
    431    429    451     1   109.7800468 425.094400
    432    430    433     1   109.5600471 388.275200
    432    430    442     1   110.2600474 425.931200
    433    434    436     1   109.5600471 388.275200
    433    441    444     1   107.2600461 396.643200
    434    435    438     1   110.2200475 386.601600
    434    440    446     1   107.2600461 396.643200
    434    433    437     1   109.5600471 388.275200
    435    434    436     1   109.5600471 388.275200
    436    434    440     1   110.2600474 425.931200
    437    433    441     1   110.2600474 425.931200
    438    435    439     1   109.5800467 425.931200
    438    435    451     1   109.5800467 425.931200
    443    449    450     1   107.2600461 396.643200
    447    443    449     1   110.2600474 425.931200
    447    443    448     1   108.4600466 328.025600
    448    443    449     1   110.2600474 425.931200
    452    453    455     1   109.5600471 388.275200
    452    466    470     1   109.5600471 388.275200
    452    466    471     1   109.5600471 388.275200
    453    452    454     1   109.5600471 388.275200
    453    456    460     1   109.5600471 388.275200
    453    465    468     1   107.2600461 396.643200
    454    452    466     1   109.5600471 388.275200
    454    452    474     1   109.7800468 425.094400
    455    453    456     1   109.5600471 388.275200
    455    453    465     1   110.2600474 425.931200
    456    457    459     1   109.5600471 388.275200
    456    464    467     1   107.2600461 396.643200
    457    456    460     1   109.5600471 388.275200
    457    458    461     1   110.2200475 386.601600
    457    463    469     1   107.2600461 396.643200
    458    457    459     1   109.5600471 388.275200
    459    457    463     1   110.2600474 425.931200
    460    456    464     1   110.2600474 425.931200
    461    458    462     1   109.5800467 425.931200
    461    458    474     1   109.5800467 425.931200
    466    472    473     1   107.2600461 396.643200
    470    466    472     1   110.2600474 425.931200
    470    466    471     1   108.4600466 328.025600
    471    466    472     1   110.2600474 425.931200
    475    476    478     1   109.5600471 388.275200
    475    489    493     1   109.5600471 388.275200
    475    489    494     1   109.5600471 388.275200
    476    479    483     1   109.5600471 388.275200
    476    488    491     1   107.2600461 396.643200
    476    475    477     1   109.5600471 388.275200
    477    475    489     1   109.5600471 388.275200
    477    475    497     1   109.7800468 425.094400
    478    476    479     1   109.5600471 388.275200
    478    476    488     1   110.2600474 425.931200
    479    480    482     1   109.5600471 388.275200
    479    487    490     1   107.2600461 396.643200
    480    481    484     1   110.2200475 386.601600
    480    486    492     1   107.2600461 396.643200
    480    479    483     1   109.5600471 388.275200
    481    480    482     1   109.5600471 388.275200
    482    480    486     1   110.2600474 425.931200
    483    479    487     1   110.2600474 425.931200
    484    481    485     1   109.5800467 425.931200
    484    481    497     1   109.5800467 425.931200
    489    495    496     1   107.2600461 396.643200
    493    489    495     1   110.2600474 425.931200
    493    489    494     1   108.4600466 328.025600
    494    489    495     1   110.2600474 425.931200
    498    499    501     1   109.5600471 388.275200
    498    512    516     1   109.5600471 388.275200
    498    512    517     1   109.5600471 388.275200
    499    498    500     1   109.5600471 388.275200
    499    502    506     1   109.5600471 388.275200
    499    511    514     1   107.2600461 396.643200
    500    498    512     1   109.5600471 388.275200
    500    498    520     1   109.7800468 425.094400
    501    499    502     1   109.5600471 388.275200
    501    499    511     1   110.2600474 425.931200
    502    503    505     1   109.5600471 388.275200
    502    510    513     1   107.2600461 396.643200
    503    502    506     1   109.5600471 388.275200
    503    504    507     1   110.2200475 386.601600
    503    509    515     1   107.2600461 396.643200
    504    503    505     1   109.5600471 388.275200
    505    503    509     1   110.2600474 425.931200
    506    502    510     1   110.2600474 425.931200
    507    504    508     1   109.5800467 425.931200
    507    504    520     1   109.5800467 425.931200
    512    518    519     1   107.2600461 396.643200
    516    512    518     1   110.2600474 425.931200
    516    512    517     1   108.4600466 328.025600
    517    512    518     1   110.2600474 425.931200
    521    522    524     1   109.5600471 388.275200
    521    535    539     1   109.5600471 388.275200
    521    535    540     1   109.5600471 388.275200
    522    525    529     1   109.5600471 388.275200
    522    534    537     1   107.2600461 396.643200
    522    521    523     1   109.5600471 388.275200
    523    521    535     1   109.5600471 388.275200
    523    521    543     1   109.7800468 425.094400
    524    522    525     1   109.5600471 388.275200
    524    522    534     1   110.2600474 425.931200
    525    526    528     1   109.5600471 388.275200
    525    533    536     1   107.2600461 396.643200
    526    527    530     1   110.2200475 386.601600
    526    532    538     1   107.2600461 396.643200
    526    525    529     1   109.5600471 388.275200
    527    526    528     1   109.5600471 388.275200
    528    526    532     1   110.2600474 425.931200
    529    525    533     1   110.2600474 425.931200
    530    527    531     1   109.5800467 425.931200
    530    527    543     1   109.5800467 425.931200
    535    541    542     1   107.2600461 396.643200
    539    535    541     1   110.2600474 425.931200
    539    535    540     1   108.4600466 328.025600
    540    535    541     1   110.2600474 425.931200
    544    545    547     1   109.5600471 388.275200
    544    558    562     1   109.5600471 388.275200
    544    558    563     1   109.5600471 388.275200
    545    544    546     1   109.5600471 388.275200
    545    548    552     1   109.5600471 388.275200
    545    557    560     1   107.2600461 396.643200
    546    544    558     1   109.5600471 388.275200
    546    544    566     1   109.7800468 425.094400
    547    545    548     1   109.5600471 388.275200
    547    545    557     1   110.2600474 425.931200
    548    549    551     1   109.5600471 388.275200
    548    556    559     1   107.2600461 396.643200
    549    548    552     1   109.5600471 388.275200
    549    550    553     1   110.2200475 386.601600
    549    555    561     1   107.2600461 396.643200
    550    549    551     1   109.5600471 388.275200
    551    549    555     1   110.2600474 425.931200
    552    548    556     1   110.2600474 425.931200
    553    550    554     1   109.5800467 425.931200
    553    550    566     1   109.5800467 425.931200
    558    564    565     1   107.2600461 396.643200
    562    558    564     1   110.2600474 425.931200
    562    558    563     1   108.4600466 328.025600
    563    558    564     1   110.2600474 425.931200
    567    568    570     1   109.5600471 388.275200
    567    581    585     1   109.5600471 388.275200
    567    581    586     1   109.5600471 388.275200
    568    571    575     1   109.5600471 388.275200
    568    580    583     1   107.2600461 396.643200
    568    567    569     1   109.5600471 388.275200
    569    567    581     1   109.5600471 388.275200
    569    567    589     1   109.7800468 425.094400
    570    568    571     1   109.5600471 388.275200
    570    568    580     1   110.2600474 425.931200
    571    572    574     1   109.5600471 388.275200
    571    579    582     1   107.2600461 396.643200
    572    573    576     1   110.2200475 386.601600
    572    578    584     1   107.2600461 396.643200
    572    571    575     1   109.5600471 388.275200
    573    572    574     1   109.5600471 388.275200
    574    572    578     1   110.2600474 425.931200
    575    571    579     1   110.2600474 425.931200
    576    573    577     1   109.5800467 425.931200
    576    573    589     1   109.5800467 425.931200
    581    587    588     1   107.2600461 396.643200
    585    581    587     1   110.2600474 425.931200
    585    581    586     1   108.4600466 328.025600
    586    581    587     1   110.2600474 425.931200
    590    591    593     1   109.5600471 388.275200
    590    604    608     1   109.5600471 388.275200
    590    604    609     1   109.5600471 388.275200
    591    590    592     1   109.5600471 388.275200
    591    594    598     1   109.5600471 388.275200
    591    603    606     1   107.2600461 396.643200
    592    590    604     1   109.5600471 388.275200
    592    590    612     1   109.7800468 425.094400
    593    591    594     1   109.5600471 388.275200
    593    591    603     1   110.2600474 425.931200
    594    595    597     1   109.5600471 388.275200
    594    602    605     1   107.2600461 396.643200
    595    594    598     1   109.5600471 388.275200
    595    596    599     1   110.2200475 386.601600
    595    601    607     1   107.2600461 396.643200
    596    595    597     1   109.5600471 388.275200
    597    595    601     1   110.2600474 425.931200
    598    594    602     1   110.2600474 425.931200
    599    596    600     1   109.5800467 425.931200
    599    596    612     1   109.5800467 425.931200
    604    610    611     1   107.2600461 396.643200
    608    604    610     1   110.2600474 425.931200
    608    604    609     1   108.4600466 328.025600
    609    604    610     1   110.2600474 425.931200
    613    614    616     1   109.5600471 388.275200
    613    627    631     1   109.5600471 388.275200
    613    627    632     1   109.5600471 388.275200
    614    617    621     1   109.5600471 388.275200
    614    626    629     1   107.2600461 396.643200
    614    613    615     1   109.5600471 388.275200
    615    613    627     1   109.5600471 388.275200
    615    613    635     1   109.7800468 425.094400
    616    614    617     1   109.5600471 388.275200
    616    614    626     1   110.2600474 425.931200
    617    618    620     1   109.5600471 388.275200
    617    625    628     1   107.2600461 396.643200
    618    619    622     1   110.2200475 386.601600
    618    624    630     1   107.2600461 396.643200
    618    617    621     1   109.5600471 388.275200
    619    618    620     1   109.5600471 388.275200
    620    618    624     1   110.2600474 425.931200
    621    617    625     1   110.2600474 425.931200
    622    619    623     1   109.5800467 425.931200
    622    619    635     1   109.5800467 425.931200
    627    633    634     1   107.2600461 396.643200
    631    627    633     1   110.2600474 425.931200
    631    627    632     1   108.4600466 328.025600
    632    627    633     1   110.2600474 425.931200
    636    637    639     1   109.5600471 388.275200
    636    650    654     1   109.5600471 388.275200
    636    650    655     1   109.5600471 388.275200
    637    636    638     1   109.5600471 388.275200
    637    640    644     1   109.5600471 388.275200
    637    649    652     1   107.2600461 396.643200
    638    636    650     1   109.5600471 388.275200
    638    636    658     1   109.7800468 425.094400
    639    637    640     1   109.5600471 388.275200
    639    637    649     1   110.2600474 425.931200
    640    641    643     1   109.5600471 388.275200
    640    648    651     1   107.2600461 396.643200
    641    640    644     1   109.5600471 388.275200
    641    642    645     1   110.2200475 386.601600
    641    647    653     1   107.2600461 396.643200
    642    641    643     1   109.5600471 388.275200
    643    641    647     1   110.2600474 425.931200
    644    640    648     1   110.2600474 425.931200
    645    642    646     1   109.5800467 425.931200
    645    642    658     1   109.5800467 425.931200
    650    656    657     1   107.2600461 396.643200
    654    650    656     1   110.2600474 425.931200
    654    650    655     1   108.4600466 328.025600
    655    650    656     1   110.2600474 425.931200
    659    660    662     1   109.5600471 388.275200
    659    673    677     1   109.5600471 388.275200
    659    673    678     1   109.5600471 388.275200
    660    663    667     1   109.5600471 388.275200
    660    672    675     1   107.2600461 396.643200
    660    659    661     1   109.5600471 388.275200
    661    659    673     1   109.5600471 388.275200
    661    659    681     1   109.7800468 425.094400
    662    660    663     1   109.5600471 388.275200
    662    660    672     1   110.2600474 425.931200
    663    664    666     1   109.5600471 388.275200
    663    671    674     1   107.2600461 396.643200
    664    665    668     1   110.2200475 386.601600
    664    670    676     1   107.2600461 396.643200
    664    663    667     1   109.5600471 388.275200
    665    664    666     1   109.5600471 388.275200
    666    664    670     1   110.2600474 425.931200
    667    663    671     1   110.2600474 425.931200
    668    665    669     1   109.5800467 425.931200
    668    665    681     1   109.5800467 425.931200
    673    679    680     1   107.2600461 396.643200
    677    673    679     1   110.2600474 425.931200
    677    673    678     1   108.4600466 328.025600
    678    673    679     1   110.2600474 425.931200
    682    683    685     1   109.5600471 388.275200
    682    696    700     1   109.5600471 388.275200
    682    696    701     1   109.5600471 388.275200
    683    682    684     1   109.5600471 388.275200
    683    686    690     1   109.5600471 388.275200
    683    695    698     1   107.2600461 396.643200
    684    682    696     1   109.5600471 388.275200
    684    682    704     1   109.7800468 425.094400
    685    683    686     1   109.5600471 388.275200
    685    683    695     1   110.2600474 425.931200
    686    687    689     1   109.5600471 388.275200
    686    694    697     1   107.2600461 396.643200
    687    686    690     1   109.5600471 388.275200
    687    688    691     1   110.2200475 386.601600
    687    693    699     1   107.2600461 396.643200
    688    687    689     1   109.5600471 388.275200
    689    687    693     1   110.2600474 425.931200
    690    686    694     1   110.2600474 425.931200
    691    688    692     1   109.5800467 425.931200
    691    688    704     1   109.5800467 425.931200
    696    702    703     1   107.2600461 396.643200
    700    696    702     1   110.2600474 425.931200
    700    696    701     1   108.4600466 328.025600
    701    696    702     1   110.2600474 425.931200
    705    706    708     1   109.5600471 388.275200
    705    719    723     1   109.5600471 388.275200
    705    719    724     1   109.5600471 388.275200
    706    709    713     1   109.5600471 388.275200
    706    718    721     1   107.2600461 396.643200
    706    705    707     1   109.5600471 388.275200
    707    705    719     1   109.5600471 388.275200
    707    705    727     1   109.7800468 425.094400
    708    706    709     1   109.5600471 388.275200
    708    706    718     1   110.2600474 425.931200
    709    710    712     1   109.5600471 388.275200
    709    717    720     1   107.2600461 396.643200
    710    711    714     1   110.2200475 386.601600
    710    716    722     1   107.2600461 396.643200
    710    709    713     1   109.5600471 388.275200
    711    710    712     1   109.5600471 388.275200
    712    710    716     1   110.2600474 425.931200
    713    709    717     1   110.2600474 425.931200
    714    711    715     1   109.5800467 425.931200
    714    711    727     1   109.5800467 425.931200
    719    725    726     1   107.2600461 396.643200
    723    719    725     1   110.2600474 425.931200
    723    719    724     1   108.4600466 328.025600
    724    719    725     1   110.2600474 425.931200
    728    729    731     1   109.5600471 388.275200
    728    742    746     1   109.5600471 388.275200
    728    742    747     1   109.5600471 388.275200
    729    728    730     1   109.5600471 388.275200
    729    732    736     1   109.5600471 388.275200
    729    741    744     1   107.2600461 396.643200
    730    728    742     1   109.5600471 388.275200
    730    728    750     1   109.7800468 425.094400
    731    729    732     1   109.5600471 388.275200
    731    729    741     1   110.2600474 425.931200
    732    733    735     1   109.5600471 388.275200
    732    740    743     1   107.2600461 396.643200
    733    732    736     1   109.5600471 388.275200
    733    734    737     1   110.2200475 386.601600
    733    739    745     1   107.2600461 396.643200
    734    733    735     1   109.5600471 388.275200
    735    733    739     1   110.2600474 425.931200
    736    732    740     1   110.2600474 425.931200
    737    734    738     1   109.5800467 425.931200
    737    734    750     1   109.5800467 425.931200
    742    748    749     1   107.2600461 396.643200
    746    742    748     1   110.2600474 425.931200
    746    742    747     1   108.4600466 328.025600
    747    742    748     1   110.2600474 425.931200
    751    752    754     1   109.5600471 388.275200
    751    765    769     1   109.5600471 388.275200
    751    765    770     1   109.5600471 388.275200
    752    755    759     1   109.5600471 388.275200
    752    764    767     1   107.2600461 396.643200
    752    751    753     1   109.5600471 388.275200
    753    751    765     1   109.5600471 388.275200
    753    751    773     1   109.7800468 425.094400
    754    752    755     1   109.5600471 388.275200
    754    752    764     1   110.2600474 425.931200
    755    756    758     1   109.5600471 388.275200
    755    763    766     1   107.2600461 396.643200
    756    757    760     1   110.2200475 386.601600
    756    762    768     1   107.2600461 396.643200
    756    755    759     1   109.5600471 388.275200
    757    756    758     1   109.5600471 388.275200
    758    756    762     1   110.2600474 425.931200
    759    755    763     1   110.2600474 425.931200
    760    757    761     1   109.5800467 425.931200
    760    757    773     1   109.5800467 425.931200
    765    771    772     1   107.2600461 396.643200
    769    765    771     1   110.2600474 425.931200
    769    765    770     1   108.4600466 328.025600
    770    765    771     1   110.2600474 425.931200

[ dihedrals ]
;    ai     aj     ak     al funct         c0         c1         c2         c3         c4         c5
      1      2      8     14     1  0.0000000  0.6508444  3
      1      5     11     17     1  0.0000000  0.6508444  3
      2      1      5     11     1  180.0000771  0.4184000  2
      2      1      5     11     1  0.0000000  1.6024720  3
      2      8     14     20     1  0.0000000  0.6508444  3
      5      1      2      8     1  180.0000771  0.4184000  2
      5      1      2      8     1  0.0000000  1.6024720  3
      5     11     17     21     1  0.0000000  0.6508444  3
      8     14     20     28     1  180.0000771  2.0083200  2
      8     14     20     28     1  0.0000000  1.2552000  3
      8     14     20     31     1  180.0000771  2.0083200  2
      8     14     20     31     1  0.0000000  1.2552000  3
     11     17     21     22     1  180.0000771  2.0083200  2
     11     17     21     22     1  0.0000000  1.2552000  3
     11     17     21     25     1  180.0000771  2.0083200  2
     11     17     21     25     1  0.0000000  1.2552000  3
     14     20     28     40     1  180.0000771  2.0083200  2
     14     20     28     40     1  0.0000000  1.2552000  3
     14     20     31     43     1  180.0000771  2.0083200  2
     14     20     31     43     1  0.0000000  1.2552000  3
     17     21     22     34     1  180.0000771  2.0083200  2
     17     21     22     34     1  0.0000000  1.2552000  3
     17     21     25     37     1  180.0000771  2.0083200  2
     17     21     25     37     1  0.0000000  1.2552000  3
     20     28     40     49     1  0.0000000  0.6508444  3
     20     31     43     46     1  0.0000000  0.6508444  3
     21     22     34     55     1  0.0000000  0.6508444  3
     21     25     37     52     1  0.0000000  0.6508444  3
     22     21     25     37     1  180.0000771  2.0083200  2
     22     21     25     37     1  0.0000000  1.2552000  3
     22     34     55    173     1  0.0000000  0.6508444  3
     25     21     22     34     1  180.0000771  2.0083200  2
     25     21     22     34     1  0.0000000  1.2552000  3
     25     37     52    144     1  0.0000000  0.6508444  3
     28     20     31     43     1  180.0000771  2.0083200  2
     28     20     31     43     1  0.0000000  1.2552000  3
     28     40     49    115     1  0.0000000  0.6508444  3
     31     20     28     40     1  180.0000771  2.0083200  2
     31     20     28     40     1  0.0000000  1.2552000  3
     31     43     46     86     1  0.0000000  0.6508444  3
     34     55    173    164     1  180.0000771  0.4184000  2
     34     55    173    164     1  0.0000000  1.6024720  3
     37     52    144    135     1  180.0000771  0.4184000  2
     37     52    144    135     1  0.0000000  1.6024720  3
     40     49    115    106     1  180.0000771  0.4184000  2
     40     49    115    106     1  0.0000000  1.6024720  3
     43     46     86     77     1  180.0000771  0.4184000  2
     43     46     86     77     1  0.0000000  1.6024720  3
     46     86     77     68     1  180.0000771  0.4184000  2
     46     86     77     68     1  0.0000000  1.6024720  3
     49    115    106     97     1  180.0000771  0.4184000  2
     49    115    106     97     1  0.0000000  1.6024720  3
     52    144    135    126     1  180.0000771  0.4184000  2
     52    144    135    126     1  0.0000000  1.6024720  3
     55    173    164    155     1  180.0000771  0.4184000  2
     55    173    164    155     1  0.0000000  1.6024720  3
     58     59     71     83     1  0.0000000  0.6508444  3
     58     62     74     80     1  0.0000000  0.6508444  3
     58     65     68     77     1  0.0000000  0.6508444  3
     59     58     62     74     1  180.0000771  2.0083200  2
     59     58     62     74     1  0.0000000  1.2552000  3
     59     58     65     68     1  180.0000771  2.0083200  2
     59     58     65     68     1  0.0000000  1.2552000  3
     59     71     83    231     1  0.0000000  0.6508444  3
     62     58     59     71     1  180.0000771  2.0083200  2
     62     58     59     71     1  0.0000000  1.2552000  3
     62     58     65     68     1  180.0000771  2.0083200  2
     62     58     65     68     1  0.0000000  1.2552000  3
     62     74     80    202     1  0.0000000  0.6508444  3
     65     58     59     71     1  180.0000771  2.0083200  2
     65     58     59     71     1  0.0000000  1.2552000  3
     65     58     62     74     1  180.0000771  2.0083200  2
     65     58     62     74     1  0.0000000  1.2552000  3
     65     68     77     86     1  0.0000000  0.6508444  3
     71     83    231    222     1  180.0000771  0.4184000  2
     71     83    231    222     1  0.0000000  1.6024720  3
     74     80    202    193     1  180.0000771  0.4184000  2
     74     80    202    193     1  0.0000000  1.6024720  3
     80    202    193    184     1  180.0000771  0.4184000  2
     80    202    193    184     1  0.0000000  1.6024720  3
     83    231    222    213     1  180.0000771  0.4184000  2
     83    231    222    213     1  0.0000000  1.6024720  3
     87     88    100    112     1  0.0000000  0.6508444  3
     87     91    103    109     1  0.0000000  0.6508444  3
     87     94     97    106     1  0.0000000  0.6508444  3
     88     87     91    103     1  180.0000771  2.0083200  2
     88     87     91    103     1  0.0000000  1.2552000  3
     88     87     94     97     1  180.0000771  2.0083200  2
     88     87     94     97     1  0.0000000  1.2552000  3
     88    100    112    289     1  0.0000000  0.6508444  3
     91     87     88    100     1  180.0000771  2.0083200  2
     91     87     88    100     1  0.0000000  1.2552000  3
     91     87     94     97     1  180.0000771  2.0083200  2
     91     87     94     97     1  0.0000000  1.2552000  3
     91    103    109    260     1  0.0000000  0.6508444  3
     94     87     88    100     1  180.0000771  2.0083200  2
     94     87     88    100     1  0.0000000  1.2552000  3
     94     87     91    103     1  180.0000771  2.0083200  2
     94     87     91    103     1  0.0000000  1.2552000  3
     94     97    106    115     1  0.0000000  0.6508444  3
    100    112    289    280     1  180.0000771  0.4184000  2
    100    112    289    280     1  0.0000000  1.6024720  3
    103    109    260    251     1  180.0000771  0.4184000  2
    103    109    260    251     1  0.0000000  1.6024720  3
    109    260    251    242     1  180.0000771  0.4184000  2
    109    260    251    242     1  0.0000000  1.6024720  3
    112    289    280    271     1  180.0000771  0.4184000  2
    112    289    280    271     1  0.0000000  1.6024720  3
    116    117    129    141     1  0.0000000  0.6508444  3
    116    120    132    138     1  0.0000000  0.6508444  3
    116    123    126    135     1  0.0000000  0.6508444  3
    117    116    120    132     1  180.0000771  2.0083200  2
    117    116    120    132     1  0.0000000  1.2552000  3
    117    116    123    126     1  180.0000771  2.0083200  2
    117    116    123    126     1  0.0000000  1.2552000  3
    117    129    141    347     1  0.0000000  0.6508444  3
    120    116    117    129     1  180.0000771  2.0083200  2
    120    116    117    129     1  0.0000000  1.2552000  3
    120    116    123    126     1  180.0000771  2.0083200  2
    120    116    123    126     1  0.0000000  1.2552000  3
    120    132    138    318     1  0.0000000  0.6508444  3
    123    116    117    129     1  180.0000771  2.0083200  2
    123    116    117    129     1  0.0000000  1.2552000  3
    123    116    120    132     1  180.0000771  2.0083200  2
    123    116    120    132     1  0.0000000  1.2552000  3
    123    126    135    144     1  0.0000000  0.6508444  3
    129    141    347    338     1  180.0000771  0.4184000  2
    129    141    347    338     1  0.0000000  1.6024720  3
    132    138    318    309     1  180.0000771  0.4184000  2
    132    138    318    309     1  0.0000000  1.6024720  3
    138    318    309    300     1  180.0000771  0.4184000  2
    138    318    309    300     1  0.0000000  1.6024720  3
    141    347    338    329     1  180.0000771  0.4184000  2
    141    347    338    329     1  0.0000000  1.6024720  3
    145    146    158    170     1  0.0000000  0.6508444  3
    145    149    161    167     1  0.0000000  0.6508444  3
    145    152    155    164     1  0.0000000  0.6508444  3
    146    145    149    161     1  180.0000771  2.0083200  2
    146    145    149    161     1  0.0000000  1.2552000  3
    146    145    152    155     1  180.0000771  2.0083200  2
    146    145    152    155     1  0.0000000  1.2552000  3
    146    158    170    405     1  0.0000000  0.6508444  3
    149    145    146    158     1  180.0000771  2.0083200  2
    149    145    146    158     1  0.0000000  1.2552000  3
    149    145    152    155     1  180.0000771  2.0083200  2
    149    145    152    155     1  0.0000000  1.2552000  3
    149    161    167    376     1  0.0000000  0.6508444  3
    152    145    146    158     1  180.0000771  2.0083200  2
    152    145    146    158     1  0.0000000  1.2552000  3
    152    145    149    161     1  180.0000771  2.0083200  2
    152    145    149    161     1  0.0000000  1.2552000  3
    152    155    164    173     1  0.0000000  0.6508444  3
    158    170    405    396     1  180.0000771  0.4184000  2
    158    170    405    396     1  0.0000000  1.6024720  3
    161    167    376    367     1  180.0000771  0.4184000  2
    161    167    376    367     1  0.0000000  1.6024720  3
    167    376    367    358     1  180.0000771  0.4184000  2
    167    376    367    358     1  0.0000000  1.6024720  3
    170    405    396    387     1  180.0000771  0.4184000  2
    170    405    396    387     1  0.0000000  1.6024720  3
    174    175    187    199     1  0.0000000  0.6508444  3
    174    178    190    196     1  0.0000000  0.6508444  3
    174    181    184    193     1  0.0000000  0.6508444  3
    175    174    178    190     1  180.0000771  2.0083200  2
    175    174    178    190     1  0.0000000  1.2552000  3
    175    174    181    184     1  180.0000771  2.0083200  2
    175    174    181    184     1  0.0000000  1.2552000  3
    175    187    199    439     1  0.0000000  0.6508444  3
    178    174    175    187     1  180.0000771  2.0083200  2
    178    174    175    187     1  0.0000000  1.2552000  3
    178    174    181    184     1  180.0000771  2.0083200  2
    178    174    181    184     1  0.0000000  1.2552000  3
    178    190    196    416     1  0.0000000  0.6508444  3
    181    174    175    187     1  180.0000771  2.0083200  2
    181    174    175    187     1  0.0000000  1.2552000  3
    181    174    178    190     1  180.0000771  2.0083200  2
    181    174    178    190     1  0.0000000  1.2552000  3
    181    184    193    202     1  0.0000000  0.6508444  3
    187    199    439    435     1  180.0000771  0.4184000  2
    187    199    439    435     1  0.0000000  1.6024720  3
    190    196    416    412     1  180.0000771  0.4184000  2
    190    196    416    412     1  0.0000000  1.6024720  3
    196    416    412    411     1  180.0000771  0.4184000  2
    196    416    412    411     1  0.0000000  1.6024720  3
    196    416    412    428     1  180.0000771  5.6484000  1
    196    416    412    428     1  180.0000771  3.5564000  2
    196    416    412    428     1  0.0000000  0.4184000  3
    199    439    435    451     1  180.0000771  5.6484000  1
    199    439    435    451     1  180.0000771  3.5564000  2
    199    439    435    451     1  0.0000000  0.4184000  3
    199    439    435    434     1  180.0000771  0.4184000  2
    199    439    435    434     1  0.0000000  1.6024720  3
    203    204    216    228     1  0.0000000  0.6508444  3
    203    207    219    225     1  0.0000000  0.6508444  3
    203    210    213    222     1  0.0000000  0.6508444  3
    204    203    207    219     1  180.0000771  2.0083200  2
    204    203    207    219     1  0.0000000  1.2552000  3
    204    203    210    213     1  180.0000771  2.0083200  2
    204    203    210    213     1  0.0000000  1.2552000  3
    204    216    228    485     1  0.0000000  0.6508444  3
    207    203    204    216     1  180.0000771  2.0083200  2
    207    203    204    216     1  0.0000000  1.2552000  3
    207    203    210    213     1  180.0000771  2.0083200  2
    207    203    210    213     1  0.0000000  1.2552000  3
    207    219    225    462     1  0.0000000  0.6508444  3
    210    203    204    216     1  180.0000771  2.0083200  2
    210    203    204    216     1  0.0000000  1.2552000  3
    210    203    207    219     1  180.0000771  2.0083200  2
    210    203    207    219     1  0.0000000  1.2552000  3
    210    213    222    231     1  0.0000000  0.6508444  3
    216    228    485    481     1  180.0000771  0.4184000  2
    216    228    485    481     1  0.0000000  1.6024720  3
    219    225    462    458     1  180.0000771  0.4184000  2
    219    225    462    458     1  0.0000000  1.6024720  3
    225    462    458    457     1  180.0000771  0.4184000  2
    225    462    458    457     1  0.0000000  1.6024720  3
    225    462    458    474     1  180.0000771  5.6484000  1
    225    462    458    474     1  180.0000771  3.5564000  2
    225    462    458    474     1  0.0000000  0.4184000  3
    228    485    481    497     1  180.0000771  5.6484000  1
    228    485    481    497     1  180.0000771  3.5564000  2
    228    485    481    497     1  0.0000000  0.4184000  3
    228    485    481    480     1  180.0000771  0.4184000  2
    228    485    481    480     1  0.0000000  1.6024720  3
    232    233    245    257     1  0.0000000  0.6508444  3
    232    236    248    254     1  0.0000000  0.6508444  3
    232    239    242    251     1  0.0000000  0.6508444  3
    233    232    236    248     1  180.0000771  2.0083200  2
    233    232    236    248     1  0.0000000  1.2552000  3
    233    232    239    242     1  180.0000771  2.0083200  2
    233    232    239    242     1  0.0000000  1.2552000  3
    233    245    257    531     1  0.0000000  0.6508444  3
    236    232    233    245     1  180.0000771  2.0083200  2
    236    232    233    245     1  0.0000000  1.2552000  3
    236    232    239    242     1  180.0000771  2.0083200  2
    236    232    239    242     1  0.0000000  1.2552000  3
    236    248    254    508     1  0.0000000  0.6508444  3
    239    232    233    245     1  180.0000771  2.0083200  2
    239    232    233    245     1  0.0000000  1.2552000  3
    239    232    236    248     1  180.0000771  2.0083200  2
    239    232    236    248     1  0.0000000  1.2552000  3
    239    242    251    260     1  0.0000000  0.6508444  3
    245    257    531    527     1  180.0000771  0.4184000  2
    245    257    531    527     1  0.0000000  1.6024720  3
    248    254    508    504     1  180.0000771  0.4184000  2
    248    254    508    504     1  0.0000000  1.6024720  3
    254    508    504    503     1  180.0000771  0.4184000  2
    254    508    504    503     1  0.0000000  1.6024720  3
    254    508    504    520     1  180.0000771  5.6484000  1
    254    508    504    520     1  180.0000771  3.5564000  2
    254    508    504    520     1  0.0000000  0.4184000  3
    257    531    527    543     1  180.0000771  5.6484000  1
    257    531    527    543     1  180.0000771  3.5564000  2
    257    531    527    543     1  0.0000000  0.4184000  3
    257    531    527    526     1  180.0000771  0.4184000  2
    257    531    527    526     1  0.0000000  1.6024720  3
    261    262    274    286     1  0.0000000  0.6508444  3
    261    265    277    283     1  0.0000000  0.6508444  3
    261    268    271    280     1  0.0000000  0.6508444  3
    262    261    265    277     1  180.0000771  2.0083200  2
    262    261    265    277     1  0.0000000  1.2552000  3
    262    261    268    271     1  180.0000771  2.0083200  2
    262    261    268    271     1  0.0000000  1.2552000  3
    262    274    286    577     1  0.0000000  0.6508444  3
    265    261    262    274     1  180.0000771  2.0083200  2
    265    261    262    274     1  0.0000000  1.2552000  3
    265    261    268    271     1  180.0000771  2.0083200  2
    265    261    268    271     1  0.0000000  1.2552000  3
    265    277    283    554     1  0.0000000  0.6508444  3
    268    261    262    274     1  180.0000771  2.0083200  2
    268    261    262    274     1  0.0000000  1.2552000  3
    268    261    265    277     1  180.0000771  2.0083200  2
    268    261    265    277     1  0.0000000  1.2552000  3
    268    271    280    289     1  0.0000000  0.6508444  3
    274    286    577    573     1  180.0000771  0.4184000  2
    274    286    577    573     1  0.0000000  1.6024720  3
    277    283    554    550     1  180.0000771  0.4184000  2
    277    283    554    550     1  0.0000000  1.6024720  3
    283    554    550    549     1  180.0000771  0.4184000  2
    283    554    550    549     1  0.0000000  1.6024720  3
    283    554    550    566     1  180.0000771  5.6484000  1
    283    554    550    566     1  180.0000771  3.5564000  2
    283    554    550    566     1  0.0000000  0.4184000  3
    286    577    573    589     1  180.0000771  5.6484000  1
    286    577    573    589     1  180.0000771  3.5564000  2
    286    577    573    589     1  0.0000000  0.4184000  3
    286    577    573    572     1  180.0000771  0.4184000  2
    286    577    573    572     1  0.0000000  1.6024720  3
    290    291    303    315     1  0.0000000  0.6508444  3
    290    294    306    312     1  0.0000000  0.6508444  3
    290    297    300    309     1  0.0000000  0.6508444  3
    291    290    294    306     1  180.0000771  2.0083200  2
    291    290    294    306     1  0.0000000  1.2552000  3
    291    290    297    300     1  180.0000771  2.0083200  2
    291    290    297    300     1  0.0000000  1.2552000  3
    291    303    315    623     1  0.0000000  0.6508444  3
    294    290    291    303     1  180.0000771  2.0083200  2
    294    290    291    303     1  0.0000000  1.2552000  3
    294    290    297    300     1  180.0000771  2.0083200  2
    294    290    297    300     1  0.0000000  1.2552000  3
    294    306    312    600     1  0.0000000  0.6508444  3
    297    290    291    303     1  180.0000771  2.0083200  2
    297    290    291    303     1  0.0000000  1.2552000  3
    297    290    294    306     1  180.0000771  2.0083200  2
    297    290    294    306     1  0.0000000  1.2552000  3
    297    300    309    318     1  0.0000000  0.6508444  3
    303    315    623    619     1  180.0000771  0.4184000  2
    303    315    623    619     1  0.0000000  1.6024720  3
    306    312    600    596     1  180.0000771  0.4184000  2
    306    312    600    596     1  0.0000000  1.6024720  3
    312    600    596    595     1  180.0000771  0.4184000  2
    312    600    596    595     1  0.0000000  1.6024720  3
    312    600    596    612     1  180.0000771  5.6484000  1
    312    600    596    612     1  180.0000771  3.5564000  2
    312    600    596    612     1  0.0000000  0.4184000  3
    315    623    619    635     1  180.0000771  5.6484000  1
    315    623    619    635     1  180.0000771  3.5564000  2
    315    623    619    635     1  0.0000000  0.4184000  3
    315    623    619    618     1  180.0000771  0.4184000  2
    315    623    619    618     1  0.0000000  1.6024720  3
    319    320    332    344     1  0.0000000  0.6508444  3
    319    323    335    341     1  0.0000000  0.6508444  3
    319    326    329    338     1  0.0000000  0.6508444  3
    320    319    323    335     1  180.0000771  2.0083200  2
    320    319    323    335     1  0.0000000  1.2552000  3
    320    319    326    329     1  180.0000771  2.0083200  2
    320    319    326    329     1  0.0000000  1.2552000  3
    320    332    344    669     1  0.0000000  0.6508444  3
    323    319    320    332     1  180.0000771  2.0083200  2
    323    319    320    332     1  0.0000000  1.2552000  3
    323    319    326    329     1  180.0000771  2.0083200  2
    323    319    326    329     1  0.0000000  1.2552000  3
    323    335    341    646     1  0.0000000  0.6508444  3
    326    319    320    332     1  180.0000771  2.0083200  2
    326    319    320    332     1  0.0000000  1.2552000  3
    326    319    323    335     1  180.0000771  2.0083200  2
    326    319    323    335     1  0.0000000  1.2552000  3
    326    329    338    347     1  0.0000000  0.6508444  3
    332    344    669    665     1  180.0000771  0.4184000  2
    332    344    669    665     1  0.0000000  1.6024720  3
    335    341    646    642     1  180.0000771  0.4184000  2
    335    341    646    642     1  0.0000000  1.6024720  3
    341    646    642    641     1  180.0000771  0.4184000  2
    341    646    642    641     1  0.0000000  1.6024720  3
    341    646    642    658     1  180.0000771  5.6484000  1
    341    646    642    658     1  180.0000771  3.5564000  2
    341    646    642    658     1  0.0000000  0.4184000  3
    344    669    665    681     1  180.0000771  5.6484000  1
    344    669    665    681     1  180.0000771  3.5564000  2
    344    669    665    681     1  0.0000000  0.4184000  3
    344    669    665    664     1  180.0000771  0.4184000  2
    344    669    665    664     1  0.0000000  1.6024720  3
    348    349    361    373     1  0.0000000  0.6508444  3
    348    352    364    370     1  0.0000000  0.6508444  3
    348    355    358    367     1  0.0000000  0.6508444  3
    349    348    352    364     1  180.0000771  2.0083200  2
    349    348    352    364     1  0.0000000  1.2552000  3
    349    348    355    358     1  180.0000771  2.0083200  2
    349    348    355    358     1  0.0000000  1.2552000  3
    349    361    373    715     1  0.0000000  0.6508444  3
    352    348    349    361     1  180.0000771  2.0083200  2
    352    348    349    361     1  0.0000000  1.2552000  3
    352    348    355    358     1  180.0000771  2.0083200  2
    352    348    355    358     1  0.0000000  1.2552000  3
    352    364    370    692     1  0.0000000  0.6508444  3
    355    348    349    361     1  180.0000771  2.0083200  2
    355    348    349    361     1  0.0000000  1.2552000  3
    355    348    352    364     1  180.0000771  2.0083200  2
    355    348    352    364     1  0.0000000  1.2552000  3
    355    358    367    376     1  0.0000000  0.6508444  3
    361    373    715    711     1  180.0000771  0.4184000  2
    361    373    715    711     1  0.0000000  1.6024720  3
    364    370    692    688     1  180.0000771  0.4184000  2
    364    370    692    688     1  0.0000000  1.6024720  3
    370    692    688    687     1  180.0000771  0.4184000  2
    370    692    688    687     1  0.0000000  1.6024720  3
    370    692    688    704     1  180.0000771  5.6484000  1
    370    692    688    704     1  180.0000771  3.5564000  2
    370    692    688    704     1  0.0000000  0.4184000  3
    373    715    711    727     1  180.0000771  5.6484000  1
    373    715    711    727     1  180.0000771  3.5564000  2
    373    715    711    727     1  0.0000000  0.4184000  3
    373    715    711    710     1  180.0000771  0.4184000  2
    373    715    711    710     1  0.0000000  1.6024720  3
    377    378    390    402     1  0.0000000  0.6508444  3
    377    381    393    399     1  0.0000000  0.6508444  3
    377    384    387    396     1  0.0000000  0.6508444  3
    378    377    381    393     1  180.0000771  2.0083200  2
    378    377    381    393     1  0.0000000  1.2552000  3
    378    377    384    387     1  180.0000771  2.0083200  2
    378    377    384    387     1  0.0000000  1.2552000  3
    378    390    402    761     1  0.0000000  0.6508444  3
    381    377    378    390     1  180.0000771  2.0083200  2
    381    377    378    390     1  0.0000000  1.2552000  3
    381    377    384    387     1  180.0000771  2.0083200  2
    381    377    384    387     1  0.0000000  1.2552000  3
    381    393    399    738     1  0.0000000  0.6508444  3
    384    377    378    390     1  180.0000771  2.0083200  2
    384    377    378    390     1  0.0000000  1.2552000  3
    384    377    381    393     1  180.0000771  2.0083200  2
    384    377    381    393     1  0.0000000  1.2552000  3
    384    387    396    405     1  0.0000000  0.6508444  3
    390    402    761    757     1  180.0000771  0.4184000  2
    390    402    761    757     1  0.0000000  1.6024720  3
    393    399    738    734     1  180.0000771  0.4184000  2
    393    399    738    734     1  0.0000000  1.6024720  3
    399    738    734    733     1  180.0000771  0.4184000  2
    399    738    734    733     1  0.0000000  1.6024720  3
    399    738    734    750     1  180.0000771  5.6484000  1
    399    738    734    750     1  180.0000771  3.5564000  2
    399    738    734    750     1  0.0000000  0.4184000  3
    402    761    757    773     1  180.0000771  5.6484000  1
    402    761    757    773     1  180.0000771  3.5564000  2
    402    761    757    773     1  0.0000000  0.4184000  3
    402    761    757    756     1  180.0000771  0.4184000  2
    402    761    757    756     1  0.0000000  1.6024720  3
    406    407    410    411     1  180.0000771  0.8368000  1
    406    407    410    411     1  180.0000771  1.0460000  2
    406    407    410    411     1  0.0000000  0.7531200  3
    406    407    410    418     1  0.0000000  0.6508444  3
    406    428    412    411     1  180.0000771  0.4184000  2
    406    428    412    411     1  0.0000000  1.6024720  3
    406    428    412    416     1  180.0000771  5.6484000  1
    406    428    412    416     1  180.0000771  3.5564000  2
    406    428    412    416     1  0.0000000  0.4184000  3
    407    406    420    426     1  0.0000000  0.6508444  3
    407    406    428    412     1  180.0000771  0.4184000  2
    407    406    428    412     1  0.0000000  1.6024720  3
    407    410    411    412     1  180.0000771  0.8368000  1
    407    410    411    412     1  180.0000771  1.0460000  2
    407    410    411    412     1  0.0000000  0.7531200  3
    407    410    411    417     1  0.0000000  0.6508444  3
    410    407    406    420     1  180.0000771  0.8368000  1
    410    407    406    420     1  180.0000771  1.0460000  2
    410    407    406    420     1  0.0000000  0.7531200  3
    410    407    406    428     1  0.0000000  0.6508444  3
    410    411    412    416     1  0.0000000  0.6508444  3
    410    411    412    428     1  0.0000000  0.6508444  3
    411    410    407    419     1  0.0000000  0.6508444  3
    412    411    410    418     1  0.0000000  0.6508444  3
    412    428    406    420     1  180.0000771  0.4184000  2
    412    428    406    420     1  0.0000000  1.6024720  3
    416    412    411    417     1  0.0000000  4.9162000  2
    416    412    411    417     1  0.0000000  0.6024960  3
    417    411    410    418     1  0.0000000  4.9162000  2
    417    411    410    418     1  0.0000000  0.6024960  3
    417    411    412    428     1  0.0000000  4.9162000  2
    417    411    412    428     1  0.0000000  0.6024960  3
    418    410    407    419     1  0.0000000  4.9162000  2
    418    410    407    419     1  0.0000000  0.6024960  3
    419    407    406    420     1  0.0000000  0.6508444  3
    419    407    406    428     1  0.0000000  4.9162000  2
    419    407    406    428     1  0.0000000  0.6024960  3
    426    420    406    428     1  0.0000000  4.9162000  2
    426    420    406    428     1  0.0000000  0.6024960  3
    429    430    433    434     1  180.0000771  0.8368000  1
    429    430    433    434     1  180.0000771  1.0460000  2
    429    430    433    434     1  0.0000000  0.7531200  3
    429    430    433    441     1  0.0000000  0.6508444  3
    429    451    435    439     1  180.0000771  5.6484000  1
    429    451    435    439     1  180.0000771  3.5564000  2
    429    451    435    439     1  0.0000000  0.4184000  3
    429    451    435    434     1  180.0000771  0.4184000  2
    429    451    435    434     1  0.0000000  1.6024720  3
    430    433    434    435     1  180.0000771  0.8368000  1
    430    433    434    435     1  180.0000771  1.0460000  2
    430    433    434    435     1  0.0000000  0.7531200  3
    430    433    434    440     1  0.0000000  0.6508444  3
    430    429    443    449     1  0.0000000  0.6508444  3
    430    429    451    435     1  180.0000771  0.4184000  2
    430    429    451    435     1  0.0000000  1.6024720  3
    433    434    435    439     1  0.0000000  0.6508444  3
    433    434    435    451     1  0.0000000  0.6508444  3
    433    430    429    443     1  180.0000771  0.8368000  1
    433    430    429    443     1  180.0000771  1.0460000  2
    433    430    429    443     1  0.0000000  0.7531200  3
    433    430    429    451     1  0.0000000  0.6508444  3
    434    433    430    442     1  0.0000000  0.6508444  3
    435    451    429    443     1  180.0000771  0.4184000  2
    435    451    429    443     1  0.0000000  1.6024720  3
    435    434    433    441     1  0.0000000  0.6508444  3
    439    435    434    440     1  0.0000000  4.9162000  2
    439    435    434    440     1  0.0000000  0.6024960  3
    440    434    435    451     1  0.0000000  4.9162000  2
    440    434    435    451     1  0.0000000  0.6024960  3
    440    434    433    441     1  0.0000000  4.9162000  2
    440    434    433    441     1  0.0000000  0.6024960  3
    441    433    430    442     1  0.0000000  4.9162000  2
    441    433    430    442     1  0.0000000  0.6024960  3
    442    430    429    443     1  0.0000000  0.6508444  3
    442    430    429    451     1  0.0000000  4.9162000  2
    442    430    429    451     1  0.0000000  0.6024960  3
    449    443    429    451     1  0.0000000  4.9162000  2
    449    443    429    451     1  0.0000000  0.6024960  3
    452    453    456    457     1  180.0000771  0.8368000  1
    452    453    456    457     1  180.0000771  1.0460000  2
    452    453    456    457     1  0.0000000  0.7531200  3
    452    453    456    464     1  0.0000000  0.6508444  3
    452    474    458    457     1  180.0000771  0.4184000  2
    452    474    458    457     1  0.0000000  1.6024720  3
    452    474    458    462     1  180.0000771  5.6484000  1
    452    474    458    462     1  180.0000771  3.5564000  2
    452    474    458    462     1  0.0000000  0.4184000  3
    453    452    466    472     1  0.0000000  0.6508444  3
    453    452    474    458     1  180.0000771  0.4184000  2
    453    452    474    458     1  0.0000000  1.6024720  3
    453    456    457    458     1  180.0000771  0.8368000  1
    453    456    457    458     1  180.0000771  1.0460000  2
    453    456    457    458     1  0.0000000  0.7531200  3
    453    456    457    463     1  0.0000000  0.6508444  3
    456    453    452    466     1  180.0000771  0.8368000  1
    456    453    452    466     1  180.0000771  1.0460000  2
    456    453    452    466     1  0.0000000  0.7531200  3
    456    453    452    474     1  0.0000000  0.6508444  3
    456    457    458    462     1  0.0000000  0.6508444  3
    456    457    458    474     1  0.0000000  0.6508444  3
    457    456    453    465     1  0.0000000  0.6508444  3
    458    457    456    464     1  0.0000000  0.6508444  3
    458    474    452    466     1  180.0000771  0.4184000  2
    458    474    452    466     1  0.0000000  1.6024720  3
    462    458    457    463     1  0.0000000  4.9162000  2
    462    458    457    463     1  0.0000000  0.6024960  3
    463    457    456    464     1  0.0000000  4.9162000  2
    463    457    456    464     1  0.0000000  0.6024960  3
    463    457    458    474     1  0.0000000  4.9162000  2
    463    457    458    474     1  0.0000000  0.6024960  3
    464    456    453    465     1  0.0000000  4.9162000  2
    464    456    453    465     1  0.0000000  0.6024960  3
    465    453    452    466     1  0.0000000  0.6508444  3
    465    453    452    474     1  0.0000000  4.9162000  2
    465    453    452    474     1  0.0000000  0.6024960  3
    472    466    452    474     1  0.0000000  4.9162000  2
    472    466    452    474     1  0.0000000  0.6024960  3
    475    476    479    480     1  180.0000771  0.8368000  1
    475    476    479    480     1  180.0000771  1.0460000  2
    475    476    479    480     1  0.0000000  0.7531200  3
    475    476    479    487     1  0.0000000  0.6508444  3
    475    497    481    485     1  180.0000771  5.6484000  1
    475    497    481    485     1  180.0000771  3.5564000  2
    475    497    481    485     1  0.0000000  0.4184000  3
    475    497    481    480     1  180.0000771  0.4184000  2
    475    497    481    480     1  0.0000000  1.6024720  3
    476    479    480    481     1  180.0000771  0.8368000  1
    476    479    480    481     1  180.0000771  1.0460000  2
    476    479    480    481     1  0.0000000  0.7531200  3
    476    479    480    486     1  0.0000000  0.6508444  3
    476    475    489    495     1  0.0000000  0.6508444  3
    476    475    497    481     1  180.0000771  0.4184000  2
    476    475    497    481     1  0.0000000  1.6024720  3
    479    480    481    485     1  0.0000000  0.6508444  3
    479    480    481    497     1  0.0000000  0.6508444  3
    479    476    475    489     1  180.0000771  0.8368000  1
    479    476    475    489     1  180.0000771  1.0460000  2
    479    476    475    489     1  0.0000000  0.7531200  3
    479    476    475    497     1  0.0000000  0.6508444  3
    480    479    476    488     1  0.0000000  0.6508444  3
    481    497    475    489     1  180.0000771  0.4184000  2
    481    497    475    489     1  0.0000000  1.6024720  3
    481    480    479    487     1  0.0000000  0.6508444  3
    485    481    480    486     1  0.0000000  4.9162000  2
    485    481    480    486     1  0.0000000  0.6024960  3
    486    480    481    497     1  0.0000000  4.9162000  2
    486    480    481    497     1  0.0000000  0.6024960  3
    486    480    479    487     1  0.0000000  4.9162000  2
    486    480    479    487     1  0.0000000  0.6024960  3
    487    479    476    488     1  0.0000000  4.9162000  2
    487    479    476    488     1  0.0000000  0.6024960  3
    488    476    475    489     1  0.0000000  0.6508444  3
    488    476    475    497     1  0.0000000  4.9162000  2
    488    476    475    497     1  0.0000000  0.6024960  3
    495    489    475    497     1  0.0000000  4.9162000  2
    495    489    475    497     1  0.0000000  0.6024960  3
    498    499    502    503     1  180.0000771  0.8368000  1
    498    499    502    503     1  180.0000771  1.0460000  2
    498    499    502    503     1  0.0000000  0.7531200  3
    498    499    502    510     1  0.0000000  0.6508444  3
    498    520    504    503     1  180.0000771  0.4184000  2
    498    520    504    503     1  0.0000000  1.6024720  3
    498    520    504    508     1  180.0000771  5.6484000  1
    498    520    504    508     1  180.0000771  3.5564000  2
    498    520    504    508     1  0.0000000  0.4184000  3
    499    498    512    518     1  0.0000000  0.6508444  3
    499    498    520    504     1  180.0000771  0.4184000  2
    499    498    520    504     1  0.0000000  1.6024720  3
    499    502    503    504     1  180.0000771  0.8368000  1
    499    502    503    504     1  180.0000771  1.0460000  2
    499    502    503    504     1  0.0000000  0.7531200  3
    499    502    503    509     1  0.0000000  0.6508444  3
    502    499    498    512     1  180.0000771  0.8368000  1
    502    499    498    512     1  180.0000771  1.0460000  2
    502    499    498    512     1  0.0000000  0.7531200  3
    502    499    498    520     1  0.0000000  0.6508444  3
    502    503    504    508     1  0.0000000  0.6508444  3
    502    503    504    520     1  0.0000000  0.6508444  3
    503    502    499    511     1  0.0000000  0.6508444  3
    504    503    502    510     1  0.0000000  0.6508444  3
    504    520    498    512     1  180.0000771  0.4184000  2
    504    520    498    512     1  0.0000000  1.6024720  3
    508    504    503    509     1  0.0000000  4.9162000  2
    508    504    503    509     1  0.0000000  0.6024960  3
    509    503    502    510     1  0.0000000  4.9162000  2
    509    503    502    510     1  0.0000000  0.6024960  3
    509    503    504    520     1  0.0000000  4.9162000  2
    509    503    504    520     1  0.0000000  0.6024960  3
    510    502    499    511     1  0.0000000  4.9162000  2
    510    502    499    511     1  0.0000000  0.6024960  3
    511    499    498    512     1  0.0000000  0.6508444  3
    511    499    498    520     1  0.0000000  4.9162000  2
    511    499    498    520     1  0.0000000  0.6024960  3
    518    512    498    520     1  0.0000000  4.9162000  2
    518    512    498    520     1  0.0000000  0.6024960  3
    521    522    525    526     1  180.0000771  0.8368000  1
    521    522    525    526     1  180.0000771  1.0460000  2
    521    522    525    526     1  0.0000000  0.7531200  3
    521    522    525    533     1  0.0000000  0.6508444  3
    521    543    527    531     1  180.0000771  5.6484000  1
    521    543    527    531     1  180.0000771  3.5564000  2
    521    543    527    531     1  0.0000000  0.4184000  3
    521    543    527    526     1  180.0000771  0.4184000  2
    521    543    527    526     1  0.0000000  1.6024720  3
    522    525    526    527     1  180.0000771  0.8368000  1
    522    525    526    527     1  180.0000771  1.0460000  2
    522    525    526    527     1  0.0000000  0.7531200  3
    522    525    526    532     1  0.0000000  0.6508444  3
    522    521    535    541     1  0.0000000  0.6508444  3
    522    521    543    527     1  180.0000771  0.4184000  2
    522    521    543    527     1  0.0000000  1.6024720  3
    525    526    527    531     1  0.0000000  0.6508444  3
    525    526    527    543     1  0.0000000  0.6508444  3
    525    522    521    535     1  180.0000771  0.8368000  1
    525    522    521    535     1  180.0000771  1.0460000  2
    525    522    521    535     1  0.0000000  0.7531200  3
    525    522    521    543     1  0.0000000  0.6508444  3
    526    525    522    534     1  0.0000000  0.6508444  3
    527    543    521    535     1  180.0000771  0.4184000  2
    527    543    521    535     1  0.0000000  1.6024720  3
    527    526    525    533     1  0.0000000  0.6508444  3
    531    527    526    532     1  0.0000000  4.9162000  2
    531    527    526    532     1  0.0000000  0.6024960  3
    532    526    527    543     1  0.0000000  4.9162000  2
    532    526    527    543     1  0.0000000  0.6024960  3
    532    526    525    533     1  0.0000000  4.9162000  2
    532    526    525    533     1  0.0000000  0.6024960  3
    533    525    522    534     1  0.0000000  4.9162000  2
    533    525    522    534     1  0.0000000  0.6024960  3
    534    522    521    535     1  0.0000000  0.6508444  3
    534    522    521    543     1  0.0000000  4.9162000  2
    534    522    521    543     1  0.0000000  0.6024960  3
    541    535    521    543     1  0.0000000  4.9162000  2
    541    535    521    543     1  0.0000000  0.6024960  3
    544    545    548    549     1  180.0000771  0.8368000  1
    544    545    548    549     1  180.0000771  1.0460000  2
    544    545    548    549     1  0.0000000  0.7531200  3
    544    545    548    556     1  0.0000000  0.6508444  3
    544    566    550    549     1  180.0000771  0.4184000  2
    544    566    550    549     1  0.0000000  1.6024720  3
    544    566    550    554     1  180.0000771  5.6484000  1
    544    566    550    554     1  180.0000771  3.5564000  2
    544    566    550    554     1  0.0000000  0.4184000  3
    545    544    558    564     1  0.0000000  0.6508444  3
    545    544    566    550     1  180.0000771  0.4184000  2
    545    544    566    550     1  0.0000000  1.6024720  3
    545    548    549    550     1  180.0000771  0.8368000  1
    545    548    549    550     1  180.0000771  1.0460000  2
    545    548    549    550     1  0.0000000  0.7531200  3
    545    548    549    555     1  0.0000000  0.6508444  3
    548    545    544    558     1  180.0000771  0.8368000  1
    548    545    544    558     1  180.0000771  1.0460000  2
    548    545    544    558     1  0.0000000  0.7531200  3
    548    545    544    566     1  0.0000000  0.6508444  3
    548    549    550    554     1  0.0000000  0.6508444  3
    548    549    550    566     1  0.0000000  0.6508444  3
    549    548    545    557     1  0.0000000  0.6508444  3
    550    549    548    556     1  0.0000000  0.6508444  3
    550    566    544    558     1  180.0000771  0.4184000  2
    550    566    544    558     1  0.0000000  1.6024720  3
    554    550    549    555     1  0.0000000  4.9162000  2
    554    550    549    555     1  0.0000000  0.6024960  3
    555    549    548    556     1  0.0000000  4.9162000  2
    555    549    548    556     1  0.0000000  0.6024960  3
    555    549    550    566     1  0.0000000  4.9162000  2
    555    549    550    566     1  0.0000000  0.6024960  3
    556    548    545    557     1  0.0000000  4.9162000  2
    556    548    545    557     1  0.0000000  0.6024960  3
    557    545    544    558     1  0.0000000  0.6508444  3
    557    545    544    566     1  0.0000000  4.9162000  2
    557    545    544    566     1  0.0000000  0.6024960  3
    564    558    544    566     1  0.0000000  4.9162000  2
    564    558    544    566     1  0.0000000  0.6024960  3
    567    568    571    572     1  180.0000771  0.8368000  1
    567    568    571    572     1  180.0000771  1.0460000  2
    567    568    571    572     1  0.0000000  0.7531200  3
    567    568    571    579     1  0.0000000  0.6508444  3
    567    589    573    577     1  180.0000771  5.6484000  1
    567    589    573    577     1  180.0000771  3.5564000  2
    567    589    573    577     1  0.0000000  0.4184000  3
    567    589    573    572     1  180.0000771  0.4184000  2
    567    589    573    572     1  0.0000000  1.6024720  3
    568    571    572    573     1  180.0000771  0.8368000  1
    568    571    572    573     1  180.0000771  1.0460000  2
    568    571    572    573     1  0.0000000  0.7531200  3
    568    571    572    578     1  0.0000000  0.6508444  3
    568    567    581    587     1  0.0000000  0.6508444  3
    568    567    589    573     1  180.0000771  0.4184000  2
    568    567    589    573     1  0.0000000  1.6024720  3
    571    572    573    577     1  0.0000000  0.6508444  3
    571    572    573    589     1  0.0000000  0.6508444  3
    571    568    567    581     1  180.0000771  0.8368000  1
    571    568    567    581     1  180.0000771  1.0460000  2
    571    568    567    581     1  0.0000000  0.7531200  3
    571    568    567    589     1  0.0000000  0.6508444  3
    572    571    568    580     1  0.0000000  0.6508444  3
    573    589    567    581     1  180.0000771  0.4184000  2
    573    589    567    581     1  0.0000000  1.6024720  3
    573    572    571    579     1  0.0000000  0.6508444  3
    577    573    572    578     1  0.0000000  4.9162000  2
    577    573    572    578     1  0.0000000  0.6024960  3
    578    572    573    589     1  0.0000000  4.9162000  2
    578    572    573    589     1  0.0000000  0.6024960  3
    578    572    571    579     1  0.0000000  4.9162000  2
    578    572    571    579     1  0.0000000  0.6024960  3
    579    571    568    580     1  0.0000000  4.9162000  2
    579    571    568    580     1  0.0000000  0.6024960  3
    580    568    567    581     1  0.0000000  0.6508444  3
    580    568    567    589     1  0.0000000  4.9162000  2
    580    568    567    589     1  0.0000000  0.6024960  3
    587    581    567    589     1  0.0000000  4.9162000  2
    587    581    567    589     1  0.0000000  0.6024960  3
    590    591    594    595     1  180.0000771  0.8368000  1
    590    591    594    595     1  180.0000771  1.0460000  2
    590    591    594    595     1  0.0000000  0.7531200  3
    590    591    594    602     1  0.0000000  0.6508444  3
    590    612    596    595     1  180.0000771  0.4184000  2
    590    612    596    595     1  0.0000000  1.6024720  3
    590    612    596    600     1  180.0000771  5.6484000  1
    590    612    596    600     1  180.0000771  3.5564000  2
    590    612    596    600     1  0.0000000  0.4184000  3
    591    590    604    610     1  0.0000000  0.6508444  3
    591    590    612    596     1  180.0000771  0.4184000  2
    591    590    612    596     1  0.0000000  1.6024720  3
    591    594    595    596     1  180.0000771  0.8368000  1
    591    594    595    596     1  180.0000771  1.0460000  2
    591    594    595    596     1  0.0000000  0.7531200  3
    591    594    595    601     1  0.0000000  0.6508444  3
    594    591    590    604     1  180.0000771  0.8368000  1
    594    591    590    604     1  180.0000771  1.0460000  2
    594    591    590    604     1  0.0000000  0.7531200  3
    594    591    590    612     1  0.0000000  0.6508444  3
    594    595    596    600     1  0.0000000  0.6508444  3
    594    595    596    612     1  0.0000000  0.6508444  3
    595    594    591    603     1  0.0000000  0.6508444  3
    596    595    594    602     1  0.0000000  0.6508444  3
    596    612    590    604     1  180.0000771  0.4184000  2
    596    612    590    604     1  0.0000000  1.6024720  3
    600    596    595    601     1  0.0000000  4.9162000  2
    600    596    595    601     1  0.0000000  0.6024960  3
    601    595    594    602     1  0.0000000  4.9162000  2
    601    595    594    602     1  0.0000000  0.6024960  3
    601    595    596    612     1  0.0000000  4.9162000  2
    601    595    596    612     1  0.0000000  0.6024960  3
    602    594    591    603     1  0.0000000  4.9162000  2
    602    594    591    603     1  0.0000000  0.6024960  3
    603    591    590    604     1  0.0000000  0.6508444  3
    603    591    590    612     1  0.0000000  4.9162000  2
    603    591    590    612     1  0.0000000  0.6024960  3
    610    604    590    612     1  0.0000000  4.9162000  2
    610    604    590    612     1  0.0000000  0.6024960  3
    613    614    617    618     1  180.0000771  0.8368000  1
    613    614    617    618     1  180.0000771  1.0460000  2
    613    614    617    618     1  0.0000000  0.7531200  3
    613    614    617    625     1  0.0000000  0.6508444  3
    613    635    619    623     1  180.0000771  5.6484000  1
    613    635    619    623     1  180.0000771  3.5564000  2
    613    635    619    623     1  0.0000000  0.4184000  3
    613    635    619    618     1  180.0000771  0.4184000  2
    613    635    619    618     1  0.0000000  1.6024720  3
    614    617    618    619     1  180.0000771  0.8368000  1
    614    617    618    619     1  180.0000771  1.0460000  2
    614    617    618    619     1  0.0000000  0.7531200  3
    614    617    618    624     1  0.0000000  0.6508444  3
    614    613    627    633     1  0.0000000  0.6508444  3
    614    613    635    619     1  180.0000771  0.4184000  2
    614    613    635    619     1  0.0000000  1.6024720  3
    617    618    619    623     1  0.0000000  0.6508444  3
    617    618    619    635     1  0.0000000  0.6508444  3
    617    614    613    627     1  180.0000771  0.8368000  1
    617    614    613    627     1  180.0000771  1.0460000  2
    617    614    613    627     1  0.0000000  0.7531200  3
    617    614    613    635     1  0.0000000  0.6508444  3
    618    617    614    626     1  0.0000000  0.6508444  3
    619    635    613    627     1  180.0000771  0.4184000  2
    619    635    613    627     1  0.0000000  1.6024720  3
    619    618    617    625     1  0.0000000  0.6508444  3
    623    619    618    624     1  0.0000000  4.9162000  2
    623    619    618    624     1  0.0000000  0.6024960  3
    624    618    619    635     1  0.0000000  4.9162000  2
    624    618    619    635     1  0.0000000  0.6024960  3
    624    618    617    625     1  0.0000000  4.9162000  2
    624    618    617    625     1  0.0000000  0.6024960  3
    625    617    614    626     1  0.0000000  4.9162000  2
    625    617    614    626     1  0.0000000  0.6024960  3
    626    614    613    627     1  0.0000000  0.6508444  3
    626    614    613    635     1  0.0000000  4.9162000  2
    626    614    613    635     1  0.0000000  0.6024960  3
    633    627    613    635     1  0.0000000  4.9162000  2
    633    627    613    635     1  0.0000000  0.6024960  3
    636    637    640    641     1  180.0000771  0.8368000  1
    636    637    640    641     1  180.0000771  1.0460000  2
    636    637    640    641     1  0.0000000  0.7531200  3
    636    637    640    648     1  0.0000000  0.6508444  3
    636    658    642    641     1  180.0000771  0.4184000  2
    636    658    642    641     1  0.0000000  1.6024720  3
    636    658    642    646     1  180.0000771  5.6484000  1
    636    658    642    646     1  180.0000771  3.5564000  2
    636    658    642    646     1  0.0000000  0.4184000  3
    637    636    650    656     1  0.0000000  0.6508444  3
    637    636    658    642     1  180.0000771  0.4184000  2
    637    636    658    642     1  0.0000000  1.6024720  3
    637    640    641    642     1  180.0000771  0.8368000  1
    637    640    641    642     1  180.0000771  1.0460000  2
    637    640    641    642     1  0.0000000  0.7531200  3
    637    640    641    647     1  0.0000000  0.6508444  3
    640    637    636    650     1  180.0000771  0.8368000  1
    640    637    636    650     1  180.0000771  1.0460000  2
    640    637    636    650     1  0.0000000  0.7531200  3
    640    637    636    658     1  0.0000000  0.6508444  3
    640    641    642    646     1  0.0000000  0.6508444  3
    640    641    642    658     1  0.0000000  0.6508444  3
    641    640    637    649     1  0.0000000  0.6508444  3
    642    641    640    648     1  0.0000000  0.6508444  3
    642    658    636    650     1  180.0000771  0.4184000  2
    642    658    636    650     1  0.0000000  1.6024720  3
    646    642    641    647     1  0.0000000  4.9162000  2
    646    642    641    647     1  0.0000000  0.6024960  3
    647    641    640    648     1  0.0000000  4.9162000  2
    647    641    640    648     1  0.0000000  0.6024960  3
    647    641    642    658     1  0.0000000  4.9162000  2
    647    641    642    658     1  0.0000000  0.6024960  3
    648    640    637    649     1  0.0000000  4.9162000  2
    648    640    637    649     1  0.0000000  0.6024960  3
    649    637    636    650     1  0.0000000  0.6508444  3
    649    637    636    658     1  0.0000000  4.9162000  2
    649    637    636    658     1  0.0000000  0.6024960  3
    656    650    636    658     1  0.0000000  4.9162000  2
    656    650    636    658     1  0.0000000  0.6024960  3
    659    660    663    664     1  180.0000771  0.8368000  1
    659    660    663    664     1  180.0000771  1.0460000  2
    659    660    663    664     1  0.0000000  0.7531200  3
    659    660    663    671     1  0.0000000  0.6508444  3
    659    681    665    669     1  180.0000771  5.6484000  1
    659    681    665    669     1  180.0000771  3.5564000  2
    659    681    665    669     1  0.0000000  0.4184000  3
    659    681    665    664     1  180.0000771  0.4184000  2
    659    681    665    664     1  0.0000000  1.6024720  3
    660    663    664    665     1  180.0000771  0.8368000  1
    660    663    664    665     1  180.0000771  1.0460000  2
    660    663    664    665     1  0.0000000  0.7531200  3
    660    663    664    670     1  0.0000000  0.6508444  3
    660    659    673    679     1  0.0000000  0.6508444  3
    660    659    681    665     1  180.0000771  0.4184000  2
    660    659    681    665     1  0.0000000  1.6024720  3
    663    664    665    669     1  0.0000000  0.6508444  3
    663    664    665    681     1  0.0000000  0.6508444  3
    663    660    659    673     1  180.0000771  0.8368000  1
    663    660    659    673     1  180.0000771  1.0460000  2
    663    660    659    673     1  0.0000000  0.7531200  3
    663    660    659    681     1  0.0000000  0.6508444  3
    664    663    660    672     1  0.0000000  0.6508444  3
    665    681    659    673     1  180.0000771  0.4184000  2
    665    681    659    673     1  0.0000000  1.6024720  3
    665    664    663    671     1  0.0000000  0.6508444  3
    669    665    664    670     1  0.0000000  4.9162000  2
    669    665    664    670     1  0.0000000  0.6024960  3
    670    664    665    681     1  0.0000000  4.9162000  2
    670    664    665    681     1  0.0000000  0.6024960  3
    670    664    663    671     1  0.0000000  4.9162000  2
    670    664    663    671     1  0.0000000  0.6024960  3
    671    663    660    672     1  0.0000000  4.9162000  2
    671    663    660    672     1  0.0000000  0.6024960  3
    672    660    659    673     1  0.0000000  0.6508444  3
    672    660    659    681     1  0.0000000  4.9162000  2
    672    660    659    681     1  0.0000000  0.6024960  3
    679    673    659    681     1  0.0000000  4.9162000  2
    679    673    659    681     1  0.0000000  0.6024960  3
    682    683    686    687     1  180.0000771  0.8368000  1
    682    683    686    687     1  180.0000771  1.0460000  2
    682    683    686    687     1  0.0000000  0.7531200  3
    682    683    686    694     1  0.0000000  0.6508444  3
    682    704    688    687     1  180.0000771  0.4184000  2
    682    704    688    687     1  0.0000000  1.6024720  3
    682    704    688    692     1  180.0000771  5.6484000  1
    682    704    688    692     1  180.0000771  3.5564000  2
    682    704    688    692     1  0.0000000  0.4184000  3
    683    682    696    702     1  0.0000000  0.6508444  3
    683    682    704    688     1  180.0000771  0.4184000  2
    683    682    704    688     1  0.0000000  1.6024720  3
    683    686    687    688     1  180.0000771  0.8368000  1
    683    686    687    688     1  180.0000771  1.0460000  2
    683    686    687    688     1  0.0000000  0.7531200  3
    683    686    687    693     1  0.0000000  0.6508444  3
    686    683    682    696     1  180.0000771  0.8368000  1
    686    683    682    696     1  180.0000771  1.0460000  2
    686    683    682    696     1  0.0000000  0.7531200  3
    686    683    682    704     1  0.0000000  0.6508444  3
    686    687    688    692     1  0.0000000  0.6508444  3
    686    687    688    704     1  0.0000000  0.6508444  3
    687    686    683    695     1  0.0000000  0.6508444  3
    688    687    686    694     1  0.0000000  0.6508444  3
    688    704    682    696     1  180.0000771  0.4184000  2
    688    704    682    696     1  0.0000000  1.6024720  3
    692    688    687    693     1  0.0000000  4.9162000  2
    692    688    687    693     1  0.0000000  0.6024960  3
    693    687    686    694     1  0.0000000  4.9162000  2
    693    687    686    694     1  0.0000000  0.6024960  3
    693    687    688    704     1  0.0000000  4.9162000  2
    693    687    688    704     1  0.0000000  0.6024960  3
    694    686    683    695     1  0.0000000  4.9162000  2
    694    686    683    695     1  0.0000000  0.6024960  3
    695    683    682    696     1  0.0000000  0.6508444  3
    695    683    682    704     1  0.0000000  4.9162000  2
    695    683    682    704     1  0.0000000  0.6024960  3
    702    696    682    704     1  0.0000000  4.9162000  2
    702    696    682    704     1  0.0000000  0.6024960  3
    705    706    709    710     1  180.0000771  0.8368000  1
    705    706    709    710     1  180.0000771  1.0460000  2
    705    706    709    710     1  0.0000000  0.7531200  3
    705    706    709    717     1  0.0000000  0.6508444  3
    705    727    711    715     1  180.0000771  5.6484000  1
    705    727    711    715     1  180.0000771  3.5564000  2
    705    727    711    715     1  0.0000000  0.4184000  3
    705    727    711    710     1  180.0000771  0.4184000  2
    705    727    711    710     1  0.0000000  1.6024720  3
    706    709    710    711     1  180.0000771  0.8368000  1
    706    709    710    711     1  180.0000771  1.0460000  2
    706    709    710    711     1  0.0000000  0.7531200  3
    706    709    710    716     1  0.0000000  0.6508444  3
    706    705    719    725     1  0.0000000  0.6508444  3
    706    705    727    711     1  180.0000771  0.4184000  2
    706    705    727    711     1  0.0000000  1.6024720  3
    709    710    711    715     1  0.0000000  0.6508444  3
    709    710    711    727     1  0.0000000  0.6508444  3
    709    706    705    719     1  180.0000771  0.8368000  1
    709    706    705    719     1  180.0000771  1.0460000  2
    709    706    705    719     1  0.0000000  0.7531200  3
    709    706    705    727     1  0.0000000  0.6508444  3
    710    709    706    718     1  0.0000000  0.6508444  3
    711    727    705    719     1  180.0000771  0.4184000  2
    711    727    705    719     1  0.0000000  1.6024720  3
    711    710    709    717     1  0.0000000  0.6508444  3
    715    711    710    716     1  0.0000000  4.9162000  2
    715    711    710    716     1  0.0000000  0.6024960  3
    716    710    711    727     1  0.0000000  4.9162000  2
    716    710    711    727     1  0.0000000  0.6024960  3
    716    710    709    717     1  0.0000000  4.9162000  2
    716    710    709    717     1  0.0000000  0.6024960  3
    717    709    706    718     1  0.0000000  4.9162000  2
    717    709    706    718     1  0.0000000  0.6024960  3
    718    706    705    719     1  0.0000000  0.6508444  3
    718    706    705    727     1  0.0000000  4.9162000  2
    718    706    705    727     1  0.0000000  0.6024960  3
    725    719    705    727     1  0.0000000  4.9162000  2
    725    719    705    727     1  0.0000000  0.6024960  3
    728    729    732    733     1  180.0000771  0.8368000  1
    728    729    732    733     1  180.0000771  1.0460000  2
    728    729    732    733     1  0.0000000  0.7531200  3
    728    729    732    740     1  0.0000000  0.6508444  3
    728    750    734    733     1  180.0000771  0.4184000  2
    728    750    734    733     1  0.0000000  1.6024720  3
    728    750    734    738     1  180.0000771  5.6484000  1
    728    750    734    738     1  180.0000771  3.5564000  2
    728    750    734    738     1  0.0000000  0.4184000  3
    729    728    742    748     1  0.0000000  0.6508444  3
    729    728    750    734     1  180.0000771  0.4184000  2
    729    728    750    734     1  0.0000000  1.6024720  3
    729    732    733    734     1  180.0000771  0.8368000  1
    729    732    733    734     1  180.0000771  1.0460000  2
    729    732    733    734     1  0.0000000  0.7531200  3
    729    732    733    739     1  0.0000000  0.6508444  3
    732    729    728    742     1  180.0000771  0.8368000  1
    732    729    728    742     1  180.0000771  1.0460000  2
    732    729    728    742     1  0.0000000  0.7531200  3
    732    729    728    750     1  0.0000000  0.6508444  3
    732    733    734    738     1  0.0000000  0.6508444  3
    732    733    734    750     1  0.0000000  0.6508444  3
    733    732    729    741     1  0.0000000  0.6508444  3
    734    733    732    740     1  0.0000000  0.6508444  3
    734    750    728    742     1  180.0000771  0.4184000  2
    734    750    728    742     1  0.0000000  1.6024720  3
    738    734    733    739     1  0.0000000  4.9162000  2
    738    734    733    739     1  0.0000000  0.6024960  3
    739    733    732    740     1  0.0000000  4.9162000  2
    739    733    732    740     1  0.0000000  0.6024960  3
    739    733    734    750     1  0.0000000  4.9162000  2
    739    733    734    750     1  0.0000000  0.6024960  3
    740    732    729    741     1  0.0000000  4.9162000  2
    740    732    729    741     1  0.0000000  0.6024960  3
    741    729    728    742     1  0.0000000  0.6508444  3
    741    729    728    750     1  0.0000000  4.9162000  2
    741    729    728    750     1  0.0000000  0.6024960  3
    748    742    728    750     1  0.0000000  4.9162000  2
    748    742    728    750     1  0.0000000  0.6024960  3
    751    752    755    756     1  180.0000771  0.8368000  1
    751    752    755    756     1  180.0000771  1.0460000  2
    751    752    755    756     1  0.0000000  0.7531200  3
    751    752    755    763     1  0.0000000  0.6508444  3
    751    773    757    761     1  180.0000771  5.6484000  1
    751    773    757    761     1  180.0000771  3.5564000  2
    751    773    757    761     1  0.0000000  0.4184000  3
    751    773    757    756     1  180.0000771  0.4184000  2
    751    773    757    756     1  0.0000000  1.6024720  3
    752    755    756    757     1  180.0000771  0.8368000  1
    752    755    756    757     1  180.0000771  1.0460000  2
    752    755    756    757     1  0.0000000  0.7531200  3
    752    755    756    762     1  0.0000000  0.6508444  3
    752    751    765    771     1  0.0000000  0.6508444  3
    752    751    773    757     1  180.0000771  0.4184000  2
    752    751    773    757     1  0.0000000  1.6024720  3
    755    756    757    761     1  0.0000000  0.6508444  3
    755    756    757    773     1  0.0000000  0.6508444  3
    755    752    751    765     1  180.0000771  0.8368000  1
    755    752    751    765     1  180.0000771  1.0460000  2
    755    752    751    765     1  0.0000000  0.7531200  3
    755    752    751    773     1  0.0000000  0.6508444  3
    756    755    752    764     1  0.0000000  0.6508444  3
    757    773    751    765     1  180.0000771  0.4184000  2
    757    773    751    765     1  0.0000000  1.6024720  3
    757    756    755    763     1  0.0000000  0.6508444  3
    761    757    756    762     1  0.0000000  4.9162000  2
    761    757    756    762     1  0.0000000  0.6024960  3
    762    756    757    773     1  0.0000000  4.9162000  2
    762    756    757    773     1  0.0000000  0.6024960  3
    762    756    755    763     1  0.0000000  4.9162000  2
    762    756    755    763     1  0.0000000  0.6024960  3
    763    755    752    764     1  0.0000000  4.9162000  2
    763    755    752    764     1  0.0000000  0.6024960  3
    764    752    751    765     1  0.0000000  0.6508444  3
    764    752    751    773     1  0.0000000  4.9162000  2
    764    752    751    773     1  0.0000000  0.6024960  3
    771    765    751    773     1  0.0000000  4.9162000  2
    771    765    751    773     1  0.0000000  0.6024960  3
      1      2      8      9     1  0.0000000  1.0460000  1
      1      2      8      9     1  0.0000000  0.0000000  3
      1      2      8     10     1  0.0000000  1.0460000  1
      1      2      8     10     1  0.0000000  0.0000000  3
      1      5     11     12     1  0.0000000  1.0460000  1
      1      5     11     12     1  0.0000000  0.0000000  3
      1      5     11     13     1  0.0000000  1.0460000  1
      1      5     11     13     1  0.0000000  0.0000000  3
      2      1      5      6     1  0.0000000  1.6038667  3
      2      1      5      7     1  0.0000000  1.6038667  3
      2      8     14     15     1  0.0000000  0.6508444  3
      2      8     14     16     1  0.0000000  0.6508444  3
      5      1      2      3     1  0.0000000  1.6038667  3
      3      2      8     14     1  0.0000000  0.6508444  3
      3      2      8      9     1  0.0000000  0.6508444  3
      3      2      8     10     1  0.0000000  0.6508444  3
      5      1      2      4     1  0.0000000  1.6038667  3
      4      2      8     14     1  0.0000000  0.6508444  3
      4      2      8      9     1  0.0000000  0.6508444  3
      4      2      8     10     1  0.0000000  0.6508444  3
      5     11     17     18     1  0.0000000  0.6508444  3
      5     11     17     19     1  0.0000000  0.6508444  3
      6      5     11     17     1  0.0000000  0.6508444  3
      6      5     11     12     1  0.0000000  0.6508444  3
      6      5     11     13     1  0.0000000  0.6508444  3
      7      5     11     17     1  0.0000000  0.6508444  3
      7      5     11     12     1  0.0000000  0.6508444  3
      7      5     11     13     1  0.0000000  0.6508444  3
      9      8     14     20     1  0.0000000  0.6508444  3
      9      8     14     15     1  0.0000000  0.6508444  3
      9      8     14     16     1  0.0000000  0.6508444  3
     10      8     14     20     1  0.0000000  0.6508444  3
     10      8     14     15     1  0.0000000  0.6508444  3
     10      8     14     16     1  0.0000000  0.6508444  3
     12     11     17     21     1  0.0000000  0.6508444  3
     12     11     17     18     1  0.0000000  0.6508444  3
     12     11     17     19     1  0.0000000  0.6508444  3
     13     11     17     21     1  0.0000000  0.6508444  3
     13     11     17     18     1  0.0000000  0.6508444  3
     13     11     17     19     1  0.0000000  0.6508444  3
     14     20     28     29     1  0.0000000  1.2552000  3
     14     20     28     30     1  0.0000000  1.2552000  3
     14     20     31     32     1  0.0000000  1.2552000  3
     14     20     31     33     1  0.0000000  1.2552000  3
     15     14     20     28     1  0.0000000  1.2552000  3
     15     14     20     31     1  0.0000000  1.2552000  3
     16     14     20     28     1  0.0000000  1.2552000  3
     16     14     20     31     1  0.0000000  1.2552000  3
     17     21     22     23     1  0.0000000  1.2552000  3
     17     21     22     24     1  0.0000000  1.2552000  3
     17     21     25     26     1  0.0000000  1.2552000  3
     17     21     25     27     1  0.0000000  1.2552000  3
     18     17     21     22     1  0.0000000  1.2552000  3
     18     17     21     25     1  0.0000000  1.2552000  3
     19     17     21     22     1  0.0000000  1.2552000  3
     19     17     21     25     1  0.0000000  1.2552000  3
     20     28     40     41     1  0.0000000  0.6508444  3
     20     28     40     42     1  0.0000000  0.6508444  3
     20     31     43     44     1  0.0000000  0.6508444  3
     20     31     43     45     1  0.0000000  0.6508444  3
     21     22     34     35     1  0.0000000  0.6508444  3
     21     22     34     36     1  0.0000000  0.6508444  3
     21     25     37     38     1  0.0000000  0.6508444  3
     21     25     37     39     1  0.0000000  0.6508444  3
     22     21     25     26     1  0.0000000  1.2552000  3
     22     21     25     27     1  0.0000000  1.2552000  3
     22     34     55     56     1  0.0000000  0.6508444  3
     22     34     55     57     1  0.0000000  0.6508444  3
     23     22     21     25     1  0.0000000  1.2552000  3
     23     22     34     55     1  0.0000000  0.6508444  3
     23     22     34     35     1  0.0000000  0.6508444  3
     23     22     34     36     1  0.0000000  0.6508444  3
     24     22     21     25     1  0.0000000  1.2552000  3
     24     22     34     55     1  0.0000000  0.6508444  3
     24     22     34     35     1  0.0000000  0.6508444  3
     24     22     34     36     1  0.0000000  0.6508444  3
     25     37     52     53     1  0.0000000  0.6508444  3
     25     37     52     54     1  0.0000000  0.6508444  3
     26     25     37     52     1  0.0000000  0.6508444  3
     26     25     37     38     1  0.0000000  0.6508444  3
     26     25     37     39     1  0.0000000  0.6508444  3
     27     25     37     52     1  0.0000000  0.6508444  3
     27     25     37     38     1  0.0000000  0.6508444  3
     27     25     37     39     1  0.0000000  0.6508444  3
     28     20     31     32     1  0.0000000  1.2552000  3
     28     20     31     33     1  0.0000000  1.2552000  3
     28     40     49     50     1  0.0000000  0.6508444  3
     28     40     49     51     1  0.0000000  0.6508444  3
     29     28     20     31     1  0.0000000  1.2552000  3
     29     28     40     49     1  0.0000000  0.6508444  3
     29     28     40     41     1  0.0000000  0.6508444  3
     29     28     40     42     1  0.0000000  0.6508444  3
     30     28     20     31     1  0.0000000  1.2552000  3
     30     28     40     49     1  0.0000000  0.6508444  3
     30     28     40     41     1  0.0000000  0.6508444  3
     30     28     40     42     1  0.0000000  0.6508444  3
     31     43     46     47     1  0.0000000  0.6508444  3
     31     43     46     48     1  0.0000000  0.6508444  3
     32     31     43     46     1  0.0000000  0.6508444  3
     32     31     43     44     1  0.0000000  0.6508444  3
     32     31     43     45     1  0.0000000  0.6508444  3
     33     31     43     46     1  0.0000000  0.6508444  3
     33     31     43     44     1  0.0000000  0.6508444  3
     33     31     43     45     1  0.0000000  0.6508444  3
     35     34     55    173     1  0.0000000  1.0460000  1
     35     34     55    173     1  0.0000000  0.0000000  3
     35     34     55     56     1  0.0000000  0.6508444  3
     35     34     55     57     1  0.0000000  0.6508444  3
     36     34     55    173     1  0.0000000  1.0460000  1
     36     34     55    173     1  0.0000000  0.0000000  3
     36     34     55     56     1  0.0000000  0.6508444  3
     36     34     55     57     1  0.0000000  0.6508444  3
     38     37     52    144     1  0.0000000  1.0460000  1
     38     37     52    144     1  0.0000000  0.0000000  3
     38     37     52     53     1  0.0000000  0.6508444  3
     38     37     52     54     1  0.0000000  0.6508444  3
     39     37     52    144     1  0.0000000  1.0460000  1
     39     37     52    144     1  0.0000000  0.0000000  3
     39     37     52     53     1  0.0000000  0.6508444  3
     39     37     52     54     1  0.0000000  0.6508444  3
     41     40     49    115     1  0.0000000  1.0460000  1
     41     40     49    115     1  0.0000000  0.0000000  3
     41     40     49     50     1  0.0000000  0.6508444  3
     41     40     49     51     1  0.0000000  0.6508444  3
     42     40     49    115     1  0.0000000  1.0460000  1
     42     40     49    115     1  0.0000000  0.0000000  3
     42     40     49     50     1  0.0000000  0.6508444  3
     42     40     49     51     1  0.0000000  0.6508444  3
     44     43     46     86     1  0.0000000  1.0460000  1
     44     43     46     86     1  0.0000000  0.0000000  3
     44     43     46     47     1  0.0000000  0.6508444  3
     44     43     46     48     1  0.0000000  0.6508444  3
     45     43     46     86     1  0.0000000  1.0460000  1
     45     43     46     86     1  0.0000000  0.0000000  3
     45     43     46     47     1  0.0000000  0.6508444  3
     45     43     46     48     1  0.0000000  0.6508444  3
     46     86     77     78     1  0.0000000  1.6038667  3
     46     86     77     79     1  0.0000000  1.6038667  3
     47     46     86     77     1  0.0000000  1.6038667  3
     48     46     86     77     1  0.0000000  1.6038667  3
     49    115    106    107     1  0.0000000  1.6038667  3
     49    115    106    108     1  0.0000000  1.6038667  3
     50     49    115    106     1  0.0000000  1.6038667  3
     51     49    115    106     1  0.0000000  1.6038667  3
     52    144    135    136     1  0.0000000  1.6038667  3
     52    144    135    137     1  0.0000000  1.6038667  3
     53     52    144    135     1  0.0000000  1.6038667  3
     54     52    144    135     1  0.0000000  1.6038667  3
     55    173    164    165     1  0.0000000  1.6038667  3
     55    173    164    166     1  0.0000000  1.6038667  3
     56     55    173    164     1  0.0000000  1.6038667  3
     57     55    173    164     1  0.0000000  1.6038667  3
     58     59     71     72     1  0.0000000  0.6508444  3
     58     59     71     73     1  0.0000000  0.6508444  3
     58     62     74     75     1  0.0000000  0.6508444  3
     58     62     74     76     1  0.0000000  0.6508444  3
     58     65     68     69     1  0.0000000  0.6508444  3
     58     65     68     70     1  0.0000000  0.6508444  3
     59     58     62     63     1  0.0000000  1.2552000  3
     59     58     62     64     1  0.0000000  1.2552000  3
     59     58     65     66     1  0.0000000  1.2552000  3
     59     58     65     67     1  0.0000000  1.2552000  3
     59     71     83     84     1  0.0000000  0.6508444  3
     59     71     83     85     1  0.0000000  0.6508444  3
     60     59     58     62     1  0.0000000  1.2552000  3
     60     59     58     65     1  0.0000000  1.2552000  3
     60     59     71     83     1  0.0000000  0.6508444  3
     60     59     71     72     1  0.0000000  0.6508444  3
     60     59     71     73     1  0.0000000  0.6508444  3
     61     59     58     62     1  0.0000000  1.2552000  3
     61     59     58     65     1  0.0000000  1.2552000  3
     61     59     71     83     1  0.0000000  0.6508444  3
     61     59     71     72     1  0.0000000  0.6508444  3
     61     59     71     73     1  0.0000000  0.6508444  3
     62     58     65     66     1  0.0000000  1.2552000  3
     62     58     65     67     1  0.0000000  1.2552000  3
     62     74     80     81     1  0.0000000  0.6508444  3
     62     74     80     82     1  0.0000000  0.6508444  3
     63     62     58     65     1  0.0000000  1.2552000  3
     63     62     74     80     1  0.0000000  0.6508444  3
     63     62     74     75     1  0.0000000  0.6508444  3
     63     62     74     76     1  0.0000000  0.6508444  3
     64     62     58     65     1  0.0000000  1.2552000  3
     64     62     74     80     1  0.0000000  0.6508444  3
     64     62     74     75     1  0.0000000  0.6508444  3
     64     62     74     76     1  0.0000000  0.6508444  3
     65     68     77     78     1  0.0000000  0.6508444  3
     65     68     77     79     1  0.0000000  0.6508444  3
     66     65     68     77     1  0.0000000  0.6508444  3
     66     65     68     69     1  0.0000000  0.6508444  3
     66     65     68     70     1  0.0000000  0.6508444  3
     67     65     68     77     1  0.0000000  0.6508444  3
     67     65     68     69     1  0.0000000  0.6508444  3
     67     65     68     70     1  0.0000000  0.6508444  3
     69     68     77     86     1  0.0000000  1.0460000  1
     69     68     77     86     1  0.0000000  0.0000000  3
     69     68     77     78     1  0.0000000  0.6508444  3
     69     68     77     79     1  0.0000000  0.6508444  3
     70     68     77     86     1  0.0000000  1.0460000  1
     70     68     77     86     1  0.0000000  0.0000000  3
     70     68     77     78     1  0.0000000  0.6508444  3
     70     68     77     79     1  0.0000000  0.6508444  3
     72     71     83    231     1  0.0000000  1.0460000  1
     72     71     83    231     1  0.0000000  0.0000000  3
     72     71     83     84     1  0.0000000  0.6508444  3
     72     71     83     85     1  0.0000000  0.6508444  3
     73     71     83    231     1  0.0000000  1.0460000  1
     73     71     83    231     1  0.0000000  0.0000000  3
     73     71     83     84     1  0.0000000  0.6508444  3
     73     71     83     85     1  0.0000000  0.6508444  3
     75     74     80    202     1  0.0000000  1.0460000  1
     75     74     80    202     1  0.0000000  0.0000000  3
     75     74     80     81     1  0.0000000  0.6508444  3
     75     74     80     82     1  0.0000000  0.6508444  3
     76     74     80    202     1  0.0000000  1.0460000  1
     76     74     80    202     1  0.0000000  0.0000000  3
     76     74     80     81     1  0.0000000  0.6508444  3
     76     74     80     82     1  0.0000000  0.6508444  3
     80    202    193    194     1  0.0000000  1.6038667  3
     80    202    193    195     1  0.0000000  1.6038667  3
     81     80    202    193     1  0.0000000  1.6038667  3
     82     80    202    193     1  0.0000000  1.6038667  3
     83    231    222    223     1  0.0000000  1.6038667  3
     83    231    222    224     1  0.0000000  1.6038667  3
     84     83    231    222     1  0.0000000  1.6038667  3
     85     83    231    222     1  0.0000000  1.6038667  3
     87     88    100    101     1  0.0000000  0.6508444  3
     87     88    100    102     1  0.0000000  0.6508444  3
     87     91    103    104     1  0.0000000  0.6508444  3
     87     91    103    105     1  0.0000000  0.6508444  3
     87     94     97     98     1  0.0000000  0.6508444  3
     87     94     97     99     1  0.0000000  0.6508444  3
     88     87     91     92     1  0.0000000  1.2552000  3
     88     87     91     93     1  0.0000000  1.2552000  3
     88     87     94     95     1  0.0000000  1.2552000  3
     88     87     94     96     1  0.0000000  1.2552000  3
     88    100    112    113     1  0.0000000  0.6508444  3
     88    100    112    114     1  0.0000000  0.6508444  3
     89     88     87     91     1  0.0000000  1.2552000  3
     89     88     87     94     1  0.0000000  1.2552000  3
     89     88    100    112     1  0.0000000  0.6508444  3
     89     88    100    101     1  0.0000000  0.6508444  3
     89     88    100    102     1  0.0000000  0.6508444  3
     90     88     87     91     1  0.0000000  1.2552000  3
     90     88     87     94     1  0.0000000  1.2552000  3
     90     88    100    112     1  0.0000000  0.6508444  3
     90     88    100    101     1  0.0000000  0.6508444  3
     90     88    100    102     1  0.0000000  0.6508444  3
     91     87     94     95     1  0.0000000  1.2552000  3
     91     87     94     96     1  0.0000000  1.2552000  3
     91    103    109    110     1  0.0000000  0.6508444  3
     91    103    109    111     1  0.0000000  0.6508444  3
     92     91     87     94     1  0.0000000  1.2552000  3
     92     91    103    109     1  0.0000000  0.6508444  3
     92     91    103    104     1  0.0000000  0.6508444  3
     92     91    103    105     1  0.0000000  0.6508444  3
     93     91     87     94     1  0.0000000  1.2552000  3
     93     91    103    109     1  0.0000000  0.6508444  3
     93     91    103    104     1  0.0000000  0.6508444  3
     93     91    103    105     1  0.0000000  0.6508444  3
     94     97    106    107     1  0.0000000  0.6508444  3
     94     97    106    108     1  0.0000000  0.6508444  3
     95     94     97    106     1  0.0000000  0.6508444  3
     95     94     97     98     1  0.0000000  0.6508444  3
     95     94     97     99     1  0.0000000  0.6508444  3
     96     94     97    106     1  0.0000000  0.6508444  3
     96     94     97     98     1  0.0000000  0.6508444  3
     96     94     97     99     1  0.0000000  0.6508444  3
     98     97    106    115     1  0.0000000  1.0460000  1
     98     97    106    115     1  0.0000000  0.0000000  3
     98     97    106    107     1  0.0000000  0.6508444  3
     98     97    106    108     1  0.0000000  0.6508444  3
     99     97    106    115     1  0.0000000  1.0460000  1
     99     97    106    115     1  0.0000000  0.0000000  3
     99     97    106    107     1  0.0000000  0.6508444  3
     99     97    106    108     1  0.0000000  0.6508444  3
    101    100    112    289     1  0.0000000  1.0460000  1
    101    100    112    289     1  0.0000000  0.0000000  3
    101    100    112    113     1  0.0000000  0.6508444  3
    101    100    112    114     1  0.0000000  0.6508444  3
    102    100    112    289     1  0.0000000  1.0460000  1
    102    100    112    289     1  0.0000000  0.0000000  3
    102    100    112    113     1  0.0000000  0.6508444  3
    102    100    112    114     1  0.0000000  0.6508444  3
    104    103    109    260     1  0.0000000  1.0460000  1
    104    103    109    260     1  0.0000000  0.0000000  3
    104    103    109    110     1  0.0000000  0.6508444  3
    104    103    109    111     1  0.0000000  0.6508444  3
    105    103    109    260     1  0.0000000  1.0460000  1
    105    103    109    260     1  0.0000000  0.0000000  3
    105    103    109    110     1  0.0000000  0.6508444  3
    105    103    109    111     1  0.0000000  0.6508444  3
    109    260    251    252     1  0.0000000  1.6038667  3
    109    260    251    253     1  0.0000000  1.6038667  3
    110    109    260    251     1  0.0000000  1.6038667  3
    111    109    260    251     1  0.0000000  1.6038667  3
    112    289    280    281     1  0.0000000  1.6038667  3
    112    289    280    282     1  0.0000000  1.6038667  3
    113    112    289    280     1  0.0000000  1.6038667  3
    114    112    289    280     1  0.0000000  1.6038667  3
    116    117    129    130     1  0.0000000  0.6508444  3
    116    117    129    131     1  0.0000000  0.6508444  3
    116    120    132    133     1  0.0000000  0.6508444  3
    116    120    132    134     1  0.0000000  0.6508444  3
    116    123    126    127     1  0.0000000  0.6508444  3
    116    123    126    128     1  0.0000000  0.6508444  3
    117    116    120    121     1  0.0000000  1.2552000  3
    117    116    120    122     1  0.0000000  1.2552000  3
    117    116    123    124     1  0.0000000  1.2552000  3
    117    116    123    125     1  0.0000000  1.2552000  3
    117    129    141    142     1  0.0000000  0.6508444  3
    117    129    141    143     1  0.0000000  0.6508444  3
    118    117    116    120     1  0.0000000  1.2552000  3
    118    117    116    123     1  0.0000000  1.2552000  3
    118    117    129    141     1  0.0000000  0.6508444  3
    118    117    129    130     1  0.0000000  0.6508444  3
    118    117    129    131     1  0.0000000  0.6508444  3
    119    117    116    120     1  0.0000000  1.2552000  3
    119    117    116    123     1  0.0000000  1.2552000  3
    119    117    129    141     1  0.0000000  0.6508444  3
    119    117    129    130     1  0.0000000  0.6508444  3
    119    117    129    131     1  0.0000000  0.6508444  3
    120    116    123    124     1  0.0000000  1.2552000  3
    120    116    123    125     1  0.0000000  1.2552000  3
    120    132    138    139     1  0.0000000  0.6508444  3
    120    132    138    140     1  0.0000000  0.6508444  3
    121    120    116    123     1  0.0000000  1.2552000  3
    121    120    132    138     1  0.0000000  0.6508444  3
    121    120    132    133     1  0.0000000  0.6508444  3
    121    120    132    134     1  0.0000000  0.6508444  3
    122    120    116    123     1  0.0000000  1.2552000  3
    122    120    132    138     1  0.0000000  0.6508444  3
    122    120    132    133     1  0.0000000  0.6508444  3
    122    120    132    134     1  0.0000000  0.6508444  3
    123    126    135    136     1  0.0000000  0.6508444  3
    123    126    135    137     1  0.0000000  0.6508444  3
    124    123    126    135     1  0.0000000  0.6508444  3
    124    123    126    127     1  0.0000000  0.6508444  3
    124    123    126    128     1  0.0000000  0.6508444  3
    125    123    126    135     1  0.0000000  0.6508444  3
    125    123    126    127     1  0.0000000  0.6508444  3
    125    123    126    128     1  0.0000000  0.6508444  3
    127    126    135    144     1  0.0000000  1.0460000  1
    127    126    135    144     1  0.0000000  0.0000000  3
    127    126    135    136     1  0.0000000  0.6508444  3
    127    126    135    137     1  0.0000000  0.6508444  3
    128    126    135    144     1  0.0000000  1.0460000  1
    128    126    135    144     1  0.0000000  0.0000000  3
    128    126    135    136     1  0.0000000  0.6508444  3
    128    126    135    137     1  0.0000000  0.6508444  3
    130    129    141    347     1  0.0000000  1.0460000  1
    130    129    141    347     1  0.0000000  0.0000000  3
    130    129    141    142     1  0.0000000  0.6508444  3
    130    129    141    143     1  0.0000000  0.6508444  3
    131    129    141    347     1  0.0000000  1.0460000  1
    131    129    141    347     1  0.0000000  0.0000000  3
    131    129    141    142     1  0.0000000  0.6508444  3
    131    129    141    143     1  0.0000000  0.6508444  3
    133    132    138    318     1  0.0000000  1.0460000  1
    133    132    138    318     1  0.0000000  0.0000000  3
    133    132    138    139     1  0.0000000  0.6508444  3
    133    132    138    140     1  0.0000000  0.6508444  3
    134    132    138    318     1  0.0000000  1.0460000  1
    134    132    138    318     1  0.0000000  0.0000000  3
    134    132    138    139     1  0.0000000  0.6508444  3
    134    132    138    140     1  0.0000000  0.6508444  3
    138    318    309    310     1  0.0000000  1.6038667  3
    138    318    309    311     1  0.0000000  1.6038667  3
    139    138    318    309     1  0.0000000  1.6038667  3
    140    138    318    309     1  0.0000000  1.6038667  3
    141    347    338    339     1  0.0000000  1.6038667  3
    141    347    338    340     1  0.0000000  1.6038667  3
    142    141    347    338     1  0.0000000  1.6038667  3
    143    141    347    338     1  0.0000000  1.6038667  3
    145    146    158    159     1  0.0000000  0.6508444  3
    145    146    158    160     1  0.0000000  0.6508444  3
    145    149    161    162     1  0.0000000  0.6508444  3
    145    149    161    163     1  0.0000000  0.6508444  3
    145    152    155    156     1  0.0000000  0.6508444  3
    145    152    155    157     1  0.0000000  0.6508444  3
    146    145    149    150     1  0.0000000  1.2552000  3
    146    145    149    151     1  0.0000000  1.2552000  3
    146    145    152    153     1  0.0000000  1.2552000  3
    146    145    152    154     1  0.0000000  1.2552000  3
    146    158    170    171     1  0.0000000  0.6508444  3
    146    158    170    172     1  0.0000000  0.6508444  3
    147    146    145    149     1  0.0000000  1.2552000  3
    147    146    145    152     1  0.0000000  1.2552000  3
    147    146    158    170     1  0.0000000  0.6508444  3
    147    146    158    159     1  0.0000000  0.6508444  3
    147    146    158    160     1  0.0000000  0.6508444  3
    148    146    145    149     1  0.0000000  1.2552000  3
    148    146    145    152     1  0.0000000  1.2552000  3
    148    146    158    170     1  0.0000000  0.6508444  3
    148    146    158    159     1  0.0000000  0.6508444  3
    148    146    158    160     1  0.0000000  0.6508444  3
    149    145    152    153     1  0.0000000  1.2552000  3
    149    145    152    154     1  0.0000000  1.2552000  3
    149    161    167    168     1  0.0000000  0.6508444  3
    149    161    167    169     1  0.0000000  0.6508444  3
    150    149    145    152     1  0.0000000  1.2552000  3
    150    149    161    167     1  0.0000000  0.6508444  3
    150    149    161    162     1  0.0000000  0.6508444  3
    150    149    161    163     1  0.0000000  0.6508444  3
    151    149    145    152     1  0.0000000  1.2552000  3
    151    149    161    167     1  0.0000000  0.6508444  3
    151    149    161    162     1  0.0000000  0.6508444  3
    151    149    161    163     1  0.0000000  0.6508444  3
    152    155    164    165     1  0.0000000  0.6508444  3
    152    155    164    166     1  0.0000000  0.6508444  3
    153    152    155    164     1  0.0000000  0.6508444  3
    153    152    155    156     1  0.0000000  0.6508444  3
    153    152    155    157     1  0.0000000  0.6508444  3
    154    152    155    164     1  0.0000000  0.6508444  3
    154    152    155    156     1  0.0000000  0.6508444  3
    154    152    155    157     1  0.0000000  0.6508444  3
    156    155    164    173     1  0.0000000  1.0460000  1
    156    155    164    173     1  0.0000000  0.0000000  3
    156    155    164    165     1  0.0000000  0.6508444  3
    156    155    164    166     1  0.0000000  0.6508444  3
    157    155    164    173     1  0.0000000  1.0460000  1
    157    155    164    173     1  0.0000000  0.0000000  3
    157    155    164    165     1  0.0000000  0.6508444  3
    157    155    164    166     1  0.0000000  0.6508444  3
    159    158    170    405     1  0.0000000  1.0460000  1
    159    158    170    405     1  0.0000000  0.0000000  3
    159    158    170    171     1  0.0000000  0.6508444  3
    159    158    170    172     1  0.0000000  0.6508444  3
    160    158    170    405     1  0.0000000  1.0460000  1
    160    158    170    405     1  0.0000000  0.0000000  3
    160    158    170    171     1  0.0000000  0.6508444  3
    160    158    170    172     1  0.0000000  0.6508444  3
    162    161    167    376     1  0.0000000  1.0460000  1
    162    161    167    376     1  0.0000000  0.0000000  3
    162    161    167    168     1  0.0000000  0.6508444  3
    162    161    167    169     1  0.0000000  0.6508444  3
    163    161    167    376     1  0.0000000  1.0460000  1
    163    161    167    376     1  0.0000000  0.0000000  3
    163    161    167    168     1  0.0000000  0.6508444  3
    163    161    167    169     1  0.0000000  0.6508444  3
    167    376    367    368     1  0.0000000  1.6038667  3
    167    376    367    369     1  0.0000000  1.6038667  3
    168    167    376    367     1  0.0000000  1.6038667  3
    169    167    376    367     1  0.0000000  1.6038667  3
    170    405    396    397     1  0.0000000  1.6038667  3
    170    405    396    398     1  0.0000000  1.6038667  3
    171    170    405    396     1  0.0000000  1.6038667  3
    172    170    405    396     1  0.0000000  1.6038667  3
    174    175    187    188     1  0.0000000  0.6508444  3
    174    175    187    189     1  0.0000000  0.6508444  3
    174    178    190    191     1  0.0000000  0.6508444  3
    174    178    190    192     1  0.0000000  0.6508444  3
    174    181    184    185     1  0.0000000  0.6508444  3
    174    181    184    186     1  0.0000000  0.6508444  3
    175    174    178    179     1  0.0000000  1.2552000  3
    175    174    178    180     1  0.0000000  1.2552000  3
    175    174    181    182     1  0.0000000  1.2552000  3
    175    174    181    183     1  0.0000000  1.2552000  3
    175    187    199    200     1  0.0000000  0.6508444  3
    175    187    199    201     1  0.0000000  0.6508444  3
    176    175    174    178     1  0.0000000  1.2552000  3
    176    175    174    181     1  0.0000000  1.2552000  3
    176    175    187    199     1  0.0000000  0.6508444  3
    176    175    187    188     1  0.0000000  0.6508444  3
    176    175    187    189     1  0.0000000  0.6508444  3
    177    175    174    178     1  0.0000000  1.2552000  3
    177    175    174    181     1  0.0000000  1.2552000  3
    177    175    187    199     1  0.0000000  0.6508444  3
    177    175    187    188     1  0.0000000  0.6508444  3
    177    175    187    189     1  0.0000000  0.6508444  3
    178    174    181    182     1  0.0000000  1.2552000  3
    178    174    181    183     1  0.0000000  1.2552000  3
    178    190    196    197     1  0.0000000  0.6508444  3
    178    190    196    198     1  0.0000000  0.6508444  3
    179    178    174    181     1  0.0000000  1.2552000  3
    179    178    190    196     1  0.0000000  0.6508444  3
    179    178    190    191     1  0.0000000  0.6508444  3
    179    178    190    192     1  0.0000000  0.6508444  3
    180    178    174    181     1  0.0000000  1.2552000  3
    180    178    190    196     1  0.0000000  0.6508444  3
    180    178    190    191     1  0.0000000  0.6508444  3
    180    178    190    192     1  0.0000000  0.6508444  3
    181    184    193    194     1  0.0000000  0.6508444  3
    181    184    193    195     1  0.0000000  0.6508444  3
    182    181    184    193     1  0.0000000  0.6508444  3
    182    181    184    185     1  0.0000000  0.6508444  3
    182    181    184    186     1  0.0000000  0.6508444  3
    183    181    184    193     1  0.0000000  0.6508444  3
    183    181    184    185     1  0.0000000  0.6508444  3
    183    181    184    186     1  0.0000000  0.6508444  3
    185    184    193    202     1  0.0000000  1.0460000  1
    185    184    193    202     1  0.0000000  0.0000000  3
    185    184    193    194     1  0.0000000  0.6508444  3
    185    184    193    195     1  0.0000000  0.6508444  3
    186    184    193    202     1  0.0000000  1.0460000  1
    186    184    193    202     1  0.0000000  0.0000000  3
    186    184    193    194     1  0.0000000  0.6508444  3
    186    184    193    195     1  0.0000000  0.6508444  3
    188    187    199    439     1  0.0000000  1.0460000  1
    188    187    199    439     1  0.0000000  0.0000000  3
    188    187    199    200     1  0.0000000  0.6508444  3
    188    187    199    201     1  0.0000000  0.6508444  3
    189    187    199    439     1  0.0000000  1.0460000  1
    189    187    199    439     1  0.0000000  0.0000000  3
    189    187    199    200     1  0.0000000  0.6508444  3
    189    187    199    201     1  0.0000000  0.6508444  3
    191    190    196    416     1  0.0000000  1.0460000  1
    191    190    196    416     1  0.0000000  0.0000000  3
    191    190    196    197     1  0.0000000  0.6508444  3
    191    190    196    198     1  0.0000000  0.6508444  3
    192    190    196    416     1  0.0000000  1.0460000  1
    192    190    196    416     1  0.0000000  0.0000000  3
    192    190    196    197     1  0.0000000  0.6508444  3
    192    190    196    198     1  0.0000000  0.6508444  3
    196    416    412    415     1  0.0000000  1.6038667  3
    197    196    416    412     1  0.0000000  1.6038667  3
    198    196    416    412     1  0.0000000  1.6038667  3
    199    439    435    438     1  0.0000000  1.6038667  3
    200    199    439    435     1  0.0000000  1.6038667  3
    201    199    439    435     1  0.0000000  1.6038667  3
    203    204    216    217     1  0.0000000  0.6508444  3
    203    204    216    218     1  0.0000000  0.6508444  3
    203    207    219    220     1  0.0000000  0.6508444  3
    203    207    219    221     1  0.0000000  0.6508444  3
    203    210    213    214     1  0.0000000  0.6508444  3
    203    210    213    215     1  0.0000000  0.6508444  3
    204    203    207    208     1  0.0000000  1.2552000  3
    204    203    207    209     1  0.0000000  1.2552000  3
    204    203    210    211     1  0.0000000  1.2552000  3
    204    203    210    212     1  0.0000000  1.2552000  3
    204    216    228    229     1  0.0000000  0.6508444  3
    204    216    228    230     1  0.0000000  0.6508444  3
    205    204    203    207     1  0.0000000  1.2552000  3
    205    204    203    210     1  0.0000000  1.2552000  3
    205    204    216    228     1  0.0000000  0.6508444  3
    205    204    216    217     1  0.0000000  0.6508444  3
    205    204    216    218     1  0.0000000  0.6508444  3
    206    204    203    207     1  0.0000000  1.2552000  3
    206    204    203    210     1  0.0000000  1.2552000  3
    206    204    216    228     1  0.0000000  0.6508444  3
    206    204    216    217     1  0.0000000  0.6508444  3
    206    204    216    218     1  0.0000000  0.6508444  3
    207    203    210    211     1  0.0000000  1.2552000  3
    207    203    210    212     1  0.0000000  1.2552000  3
    207    219    225    226     1  0.0000000  0.6508444  3
    207    219    225    227     1  0.0000000  0.6508444  3
    208    207    203    210     1  0.0000000  1.2552000  3
    208    207    219    225     1  0.0000000  0.6508444  3
    208    207    219    220     1  0.0000000  0.6508444  3
    208    207    219    221     1  0.0000000  0.6508444  3
    209    207    203    210     1  0.0000000  1.2552000  3
    209    207    219    225     1  0.0000000  0.6508444  3
    209    207    219    220     1  0.0000000  0.6508444  3
    209    207    219    221     1  0.0000000  0.6508444  3
    210    213    222    223     1  0.0000000  0.6508444  3
    210    213    222    224     1  0.0000000  0.6508444  3
    211    210    213    222     1  0.0000000  0.6508444  3
    211    210    213    214     1  0.0000000  0.6508444  3
    211    210    213    215     1  0.0000000  0.6508444  3
    212    210    213    222     1  0.0000000  0.6508444  3
    212    210    213    214     1  0.0000000  0.6508444  3
    212    210    213    215     1  0.0000000  0.6508444  3
    214    213    222    231     1  0.0000000  1.0460000  1
    214    213    222    231     1  0.0000000  0.0000000  3
    214    213    222    223     1  0.0000000  0.6508444  3
    214    213    222    224     1  0.0000000  0.6508444  3
    215    213    222    231     1  0.0000000  1.0460000  1
    215    213    222    231     1  0.0000000  0.0000000  3
    215    213    222    223     1  0.0000000  0.6508444  3
    215    213    222    224     1  0.0000000  0.6508444  3
    217    216    228    485     1  0.0000000  1.0460000  1
    217    216    228    485     1  0.0000000  0.0000000  3
    217    216    228    229     1  0.0000000  0.6508444  3
    217    216    228    230     1  0.0000000  0.6508444  3
    218    216    228    485     1  0.0000000  1.0460000  1
    218    216    228    485     1  0.0000000  0.0000000  3
    218    216    228    229     1  0.0000000  0.6508444  3
    218    216    228    230     1  0.0000000  0.6508444  3
    220    219    225    462     1  0.0000000  1.0460000  1
    220    219    225    462     1  0.0000000  0.0000000  3
    220    219    225    226     1  0.0000000  0.6508444  3
    220    219    225    227     1  0.0000000  0.6508444  3
    221    219    225    462     1  0.0000000  1.0460000  1
    221    219    225    462     1  0.0000000  0.0000000  3
    221    219    225    226     1  0.0000000  0.6508444  3
    221    219    225    227     1  0.0000000  0.6508444  3
    225    462    458    461     1  0.0000000  1.6038667  3
    226    225    462    458     1  0.0000000  1.6038667  3
    227    225    462    458     1  0.0000000  1.6038667  3
    228    485    481    484     1  0.0000000  1.6038667  3
    229    228    485    481     1  0.0000000  1.6038667  3
    230    228    485    481     1  0.0000000  1.6038667  3
    232    233    245    246     1  0.0000000  0.6508444  3
    232    233    245    247     1  0.0000000  0.6508444  3
    232    236    248    249     1  0.0000000  0.6508444  3
    232    236    248    250     1  0.0000000  0.6508444  3
    232    239    242    243     1  0.0000000  0.6508444  3
    232    239    242    244     1  0.0000000  0.6508444  3
    233    232    236    237     1  0.0000000  1.2552000  3
    233    232    236    238     1  0.0000000  1.2552000  3
    233    232    239    240     1  0.0000000  1.2552000  3
    233    232    239    241     1  0.0000000  1.2552000  3
    233    245    257    258     1  0.0000000  0.6508444  3
    233    245    257    259     1  0.0000000  0.6508444  3
    234    233    232    236     1  0.0000000  1.2552000  3
    234    233    232    239     1  0.0000000  1.2552000  3
    234    233    245    257     1  0.0000000  0.6508444  3
    234    233    245    246     1  0.0000000  0.6508444  3
    234    233    245    247     1  0.0000000  0.6508444  3
    235    233    232    236     1  0.0000000  1.2552000  3
    235    233    232    239     1  0.0000000  1.2552000  3
    235    233    245    257     1  0.0000000  0.6508444  3
    235    233    245    246     1  0.0000000  0.6508444  3
    235    233    245    247     1  0.0000000  0.6508444  3
    236    232    239    240     1  0.0000000  1.2552000  3
    236    232    239    241     1  0.0000000  1.2552000  3
    236    248    254    255     1  0.0000000  0.6508444  3
    236    248    254    256     1  0.0000000  0.6508444  3
    237    236    232    239     1  0.0000000  1.2552000  3
    237    236    248    254     1  0.0000000  0.6508444  3
    237    236    248    249     1  0.0000000  0.6508444  3
    237    236    248    250     1  0.0000000  0.6508444  3
    238    236    232    239     1  0.0000000  1.2552000  3
    238    236    248    254     1  0.0000000  0.6508444  3
    238    236    248    249     1  0.0000000  0.6508444  3
    238    236    248    250     1  0.0000000  0.6508444  3
    239    242    251    252     1  0.0000000  0.6508444  3
    239    242    251    253     1  0.0000000  0.6508444  3
    240    239    242    251     1  0.0000000  0.6508444  3
    240    239    242    243     1  0.0000000  0.6508444  3
    240    239    242    244     1  0.0000000  0.6508444  3
    241    239    242    251     1  0.0000000  0.6508444  3
    241    239    242    243     1  0.0000000  0.6508444  3
    241    239    242    244     1  0.0000000  0.6508444  3
    243    242    251    260     1  0.0000000  1.0460000  1
    243    242    251    260     1  0.0000000  0.0000000  3
    243    242    251    252     1  0.0000000  0.6508444  3
    243    242    251    253     1  0.0000000  0.6508444  3
    244    242    251    260     1  0.0000000  1.0460000  1
    244    242    251    260     1  0.0000000  0.0000000  3
    244    242    251    252     1  0.0000000  0.6508444  3
    244    242    251    253     1  0.0000000  0.6508444  3
    246    245    257    531     1  0.0000000  1.0460000  1
    246    245    257    531     1  0.0000000  0.0000000  3
    246    245    257    258     1  0.0000000  0.6508444  3
    246    245    257    259     1  0.0000000  0.6508444  3
    247    245    257    531     1  0.0000000  1.0460000  1
    247    245    257    531     1  0.0000000  0.0000000  3
    247    245    257    258     1  0.0000000  0.6508444  3
    247    245    257    259     1  0.0000000  0.6508444  3
    249    248    254    508     1  0.0000000  1.0460000  1
    249    248    254    508     1  0.0000000  0.0000000  3
    249    248    254    255     1  0.0000000  0.6508444  3
    249    248    254    256     1  0.0000000  0.6508444  3
    250    248    254    508     1  0.0000000  1.0460000  1
    250    248    254    508     1  0.0000000  0.0000000  3
    250    248    254    255     1  0.0000000  0.6508444  3
    250    248    254    256     1  0.0000000  0.6508444  3
    254    508    504    507     1  0.0000000  1.6038667  3
    255    254    508    504     1  0.0000000  1.6038667  3
    256    254    508    504     1  0.0000000  1.6038667  3
    257    531    527    530     1  0.0000000  1.6038667  3
    258    257    531    527     1  0.0000000  1.6038667  3
    259    257    531    527     1  0.0000000  1.6038667  3
    261    262    274    275     1  0.0000000  0.6508444  3
    261    262    274    276     1  0.0000000  0.6508444  3
    261    265    277    278     1  0.0000000  0.6508444  3
    261    265    277    279     1  0.0000000  0.6508444  3
    261    268    271    272     1  0.0000000  0.6508444  3
    261    268    271    273     1  0.0000000  0.6508444  3
    262    261    265    266     1  0.0000000  1.2552000  3
    262    261    265    267     1  0.0000000  1.2552000  3
    262    261    268    269     1  0.0000000  1.2552000  3
    262    261    268    270     1  0.0000000  1.2552000  3
    262    274    286    287     1  0.0000000  0.6508444  3
    262    274    286    288     1  0.0000000  0.6508444  3
    263    262    261    265     1  0.0000000  1.2552000  3
    263    262    261    268     1  0.0000000  1.2552000  3
    263    262    274    286     1  0.0000000  0.6508444  3
    263    262    274    275     1  0.0000000  0.6508444  3
    263    262    274    276     1  0.0000000  0.6508444  3
    264    262    261    265     1  0.0000000  1.2552000  3
    264    262    261    268     1  0.0000000  1.2552000  3
    264    262    274    286     1  0.0000000  0.6508444  3
    264    262    274    275     1  0.0000000  0.6508444  3
    264    262    274    276     1  0.0000000  0.6508444  3
    265    261    268    269     1  0.0000000  1.2552000  3
    265    261    268    270     1  0.0000000  1.2552000  3
    265    277    283    284     1  0.0000000  0.6508444  3
    265    277    283    285     1  0.0000000  0.6508444  3
    266    265    261    268     1  0.0000000  1.2552000  3
    266    265    277    283     1  0.0000000  0.6508444  3
    266    265    277    278     1  0.0000000  0.6508444  3
    266    265    277    279     1  0.0000000  0.6508444  3
    267    265    261    268     1  0.0000000  1.2552000  3
    267    265    277    283     1  0.0000000  0.6508444  3
    267    265    277    278     1  0.0000000  0.6508444  3
    267    265    277    279     1  0.0000000  0.6508444  3
    268    271    280    281     1  0.0000000  0.6508444  3
    268    271    280    282     1  0.0000000  0.6508444  3
    269    268    271    280     1  0.0000000  0.6508444  3
    269    268    271    272     1  0.0000000  0.6508444  3
    269    268    271    273     1  0.0000000  0.6508444  3
    270    268    271    280     1  0.0000000  0.6508444  3
    270    268    271    272     1  0.0000000  0.6508444  3
    270    268    271    273     1  0.0000000  0.6508444  3
    272    271    280    289     1  0.0000000  1.0460000  1
    272    271    280    289     1  0.0000000  0.0000000  3
    272    271    280    281     1  0.0000000  0.6508444  3
    272    271    280    282     1  0.0000000  0.6508444  3
    273    271    280    289     1  0.0000000  1.0460000  1
    273    271    280    289     1  0.0000000  0.0000000  3
    273    271    280    281     1  0.0000000  0.6508444  3
    273    271    280    282     1  0.0000000  0.6508444  3
    275    274    286    577     1  0.0000000  1.0460000  1
    275    274    286    577     1  0.0000000  0.0000000  3
    275    274    286    287     1  0.0000000  0.6508444  3
    275    274    286    288     1  0.0000000  0.6508444  3
    276    274    286    577     1  0.0000000  1.0460000  1
    276    274    286    577     1  0.0000000  0.0000000  3
    276    274    286    287     1  0.0000000  0.6508444  3
    276    274    286    288     1  0.0000000  0.6508444  3
    278    277    283    554     1  0.0000000  1.0460000  1
    278    277    283    554     1  0.0000000  0.0000000  3
    278    277    283    284     1  0.0000000  0.6508444  3
    278    277    283    285     1  0.0000000  0.6508444  3
    279    277    283    554     1  0.0000000  1.0460000  1
    279    277    283    554     1  0.0000000  0.0000000  3
    279    277    283    284     1  0.0000000  0.6508444  3
    279    277    283    285     1  0.0000000  0.6508444  3
    283    554    550    553     1  0.0000000  1.6038667  3
    284    283    554    550     1  0.0000000  1.6038667  3
    285    283    554    550     1  0.0000000  1.6038667  3
    286    577    573    576     1  0.0000000  1.6038667  3
    287    286    577    573     1  0.0000000  1.6038667  3
    288    286    577    573     1  0.0000000  1.6038667  3
    290    291    303    304     1  0.0000000  0.6508444  3
    290    291    303    305     1  0.0000000  0.6508444  3
    290    294    306    307     1  0.0000000  0.6508444  3
    290    294    306    308     1  0.0000000  0.6508444  3
    290    297    300    301     1  0.0000000  0.6508444  3
    290    297    300    302     1  0.0000000  0.6508444  3
    291    290    294    295     1  0.0000000  1.2552000  3
    291    290    294    296     1  0.0000000  1.2552000  3
    291    290    297    298     1  0.0000000  1.2552000  3
    291    290    297    299     1  0.0000000  1.2552000  3
    291    303    315    316     1  0.0000000  0.6508444  3
    291    303    315    317     1  0.0000000  0.6508444  3
    292    291    290    294     1  0.0000000  1.2552000  3
    292    291    290    297     1  0.0000000  1.2552000  3
    292    291    303    315     1  0.0000000  0.6508444  3
    292    291    303    304     1  0.0000000  0.6508444  3
    292    291    303    305     1  0.0000000  0.6508444  3
    293    291    290    294     1  0.0000000  1.2552000  3
    293    291    290    297     1  0.0000000  1.2552000  3
    293    291    303    315     1  0.0000000  0.6508444  3
    293    291    303    304     1  0.0000000  0.6508444  3
    293    291    303    305     1  0.0000000  0.6508444  3
    294    290    297    298     1  0.0000000  1.2552000  3
    294    290    297    299     1  0.0000000  1.2552000  3
    294    306    312    313     1  0.0000000  0.6508444  3
    294    306    312    314     1  0.0000000  0.6508444  3
    295    294    290    297     1  0.0000000  1.2552000  3
    295    294    306    312     1  0.0000000  0.6508444  3
    295    294    306    307     1  0.0000000  0.6508444  3
    295    294    306    308     1  0.0000000  0.6508444  3
    296    294    290    297     1  0.0000000  1.2552000  3
    296    294    306    312     1  0.0000000  0.6508444  3
    296    294    306    307     1  0.0000000  0.6508444  3
    296    294    306    308     1  0.0000000  0.6508444  3
    297    300    309    310     1  0.0000000  0.6508444  3
    297    300    309    311     1  0.0000000  0.6508444  3
    298    297    300    309     1  0.0000000  0.6508444  3
    298    297    300    301     1  0.0000000  0.6508444  3
    298    297    300    302     1  0.0000000  0.6508444  3
    299    297    300    309     1  0.0000000  0.6508444  3
    299    297    300    301     1  0.0000000  0.6508444  3
    299    297    300    302     1  0.0000000  0.6508444  3
    301    300    309    318     1  0.0000000  1.0460000  1
    301    300    309    318     1  0.0000000  0.0000000  3
    301    300    309    310     1  0.0000000  0.6508444  3
    301    300    309    311     1  0.0000000  0.6508444  3
    302    300    309    318     1  0.0000000  1.0460000  1
    302    300    309    318     1  0.0000000  0.0000000  3
    302    300    309    310     1  0.0000000  0.6508444  3
    302    300    309    311     1  0.0000000  0.6508444  3
    304    303    315    623     1  0.0000000  1.0460000  1
    304    303    315    623     1  0.0000000  0.0000000  3
    304    303    315    316     1  0.0000000  0.6508444  3
    304    303    315    317     1  0.0000000  0.6508444  3
    305    303    315    623     1  0.0000000  1.0460000  1
    305    303    315    623     1  0.0000000  0.0000000  3
    305    303    315    316     1  0.0000000  0.6508444  3
    305    303    315    317     1  0.0000000  0.6508444  3
    307    306    312    600     1  0.0000000  1.0460000  1
    307    306    312    600     1  0.0000000  0.0000000  3
    307    306    312    313     1  0.0000000  0.6508444  3
    307    306    312    314     1  0.0000000  0.6508444  3
    308    306    312    600     1  0.0000000  1.0460000  1
    308    306    312    600     1  0.0000000  0.0000000  3
    308    306    312    313     1  0.0000000  0.6508444  3
    308    306    312    314     1  0.0000000  0.6508444  3
    312    600    596    599     1  0.0000000  1.6038667  3
    313    312    600    596     1  0.0000000  1.6038667  3
    314    312    600    596     1  0.0000000  1.6038667  3
    315    623    619    622     1  0.0000000  1.6038667  3
    316    315    623    619     1  0.0000000  1.6038667  3
    317    315    623    619     1  0.0000000  1.6038667  3
    319    320    332    333     1  0.0000000  0.6508444  3
    319    320    332    334     1  0.0000000  0.6508444  3
    319    323    335    336     1  0.0000000  0.6508444  3
    319    323    335    337     1  0.0000000  0.6508444  3
    319    326    329    330     1  0.0000000  0.6508444  3
    319    326    329    331     1  0.0000000  0.6508444  3
    320    319    323    324     1  0.0000000  1.2552000  3
    320    319    323    325     1  0.0000000  1.2552000  3
    320    319    326    327     1  0.0000000  1.2552000  3
    320    319    326    328     1  0.0000000  1.2552000  3
    320    332    344    345     1  0.0000000  0.6508444  3
    320    332    344    346     1  0.0000000  0.6508444  3
    321    320    319    323     1  0.0000000  1.2552000  3
    321    320    319    326     1  0.0000000  1.2552000  3
    321    320    332    344     1  0.0000000  0.6508444  3
    321    320    332    333     1  0.0000000  0.6508444  3
    321    320    332    334     1  0.0000000  0.6508444  3
    322    320    319    323     1  0.0000000  1.2552000  3
    322    320    319    326     1  0.0000000  1.2552000  3
    322    320    332    344     1  0.0000000  0.6508444  3
    322    320    332    333     1  0.0000000  0.6508444  3
    322    320    332    334     1  0.0000000  0.6508444  3
    323    319    326    327     1  0.0000000  1.2552000  3
    323    319    326    328     1  0.0000000  1.2552000  3
    323    335    341    342     1  0.0000000  0.6508444  3
    323    335    341    343     1  0.0000000  0.6508444  3
    324    323    319    326     1  0.0000000  1.2552000  3
    324    323    335    341     1  0.0000000  0.6508444  3
    324    323    335    336     1  0.0000000  0.6508444  3
    324    323    335    337     1  0.0000000  0.6508444  3
    325    323    319    326     1  0.0000000  1.2552000  3
    325    323    335    341     1  0.0000000  0.6508444  3
    325    323    335    336     1  0.0000000  0.6508444  3
    325    323    335    337     1  0.0000000  0.6508444  3
    326    329    338    339     1  0.0000000  0.6508444  3
    326    329    338    340     1  0.0000000  0.6508444  3
    327    326    329    338     1  0.0000000  0.6508444  3
    327    326    329    330     1  0.0000000  0.6508444  3
    327    326    329    331     1  0.0000000  0.6508444  3
    328    326    329    338     1  0.0000000  0.6508444  3
    328    326    329    330     1  0.0000000  0.6508444  3
    328    326    329    331     1  0.0000000  0.6508444  3
    330    329    338    347     1  0.0000000  1.0460000  1
    330    329    338    347     1  0.0000000  0.0000000  3
    330    329    338    339     1  0.0000000  0.6508444  3
    330    329    338    340     1  0.0000000  0.6508444  3
    331    329    338    347     1  0.0000000  1.0460000  1
    331    329    338    347     1  0.0000000  0.0000000  3
    331    329    338    339     1  0.0000000  0.6508444  3
    331    329    338    340     1  0.0000000  0.6508444  3
    333    332    344    669     1  0.0000000  1.0460000  1
    333    332    344    669     1  0.0000000  0.0000000  3
    333    332    344    345     1  0.0000000  0.6508444  3
    333    332    344    346     1  0.0000000  0.6508444  3
    334    332    344    669     1  0.0000000  1.0460000  1
    334    332    344    669     1  0.0000000  0.0000000  3
    334    332    344    345     1  0.0000000  0.6508444  3
    334    332    344    346     1  0.0000000  0.6508444  3
    336    335    341    646     1  0.0000000  1.0460000  1
    336    335    341    646     1  0.0000000  0.0000000  3
    336    335    341    342     1  0.0000000  0.6508444  3
    336    335    341    343     1  0.0000000  0.6508444  3
    337    335    341    646     1  0.0000000  1.0460000  1
    337    335    341    646     1  0.0000000  0.0000000  3
    337    335    341    342     1  0.0000000  0.6508444  3
    337    335    341    343     1  0.0000000  0.6508444  3
    341    646    642    645     1  0.0000000  1.6038667  3
    342    341    646    642     1  0.0000000  1.6038667  3
    343    341    646    642     1  0.0000000  1.6038667  3
    344    669    665    668     1  0.0000000  1.6038667  3
    345    344    669    665     1  0.0000000  1.6038667  3
    346    344    669    665     1  0.0000000  1.6038667  3
    348    349    361    362     1  0.0000000  0.6508444  3
    348    349    361    363     1  0.0000000  0.6508444  3
    348    352    364    365     1  0.0000000  0.6508444  3
    348    352    364    366     1  0.0000000  0.6508444  3
    348    355    358    359     1  0.0000000  0.6508444  3
    348    355    358    360     1  0.0000000  0.6508444  3
    349    348    352    353     1  0.0000000  1.2552000  3
    349    348    352    354     1  0.0000000  1.2552000  3
    349    348    355    356     1  0.0000000  1.2552000  3
    349    348    355    357     1  0.0000000  1.2552000  3
    349    361    373    374     1  0.0000000  0.6508444  3
    349    361    373    375     1  0.0000000  0.6508444  3
    350    349    348    352     1  0.0000000  1.2552000  3
    350    349    348    355     1  0.0000000  1.2552000  3
    350    349    361    373     1  0.0000000  0.6508444  3
    350    349    361    362     1  0.0000000  0.6508444  3
    350    349    361    363     1  0.0000000  0.6508444  3
    351    349    348    352     1  0.0000000  1.2552000  3
    351    349    348    355     1  0.0000000  1.2552000  3
    351    349    361    373     1  0.0000000  0.6508444  3
    351    349    361    362     1  0.0000000  0.6508444  3
    351    349    361    363     1  0.0000000  0.6508444  3
    352    348    355    356     1  0.0000000  1.2552000  3
    352    348    355    357     1  0.0000000  1.2552000  3
    352    364    370    371     1  0.0000000  0.6508444  3
    352    364    370    372     1  0.0000000  0.6508444  3
    353    352    348    355     1  0.0000000  1.2552000  3
    353    352    364    370     1  0.0000000  0.6508444  3
    353    352    364    365     1  0.0000000  0.6508444  3
    353    352    364    366     1  0.0000000  0.6508444  3
    354    352    348    355     1  0.0000000  1.2552000  3
    354    352    364    370     1  0.0000000  0.6508444  3
    354    352    364    365     1  0.0000000  0.6508444  3
    354    352    364    366     1  0.0000000  0.6508444  3
    355    358    367    368     1  0.0000000  0.6508444  3
    355    358    367    369     1  0.0000000  0.6508444  3
    356    355    358    367     1  0.0000000  0.6508444  3
    356    355    358    359     1  0.0000000  0.6508444  3
    356    355    358    360     1  0.0000000  0.6508444  3
    357    355    358    367     1  0.0000000  0.6508444  3
    357    355    358    359     1  0.0000000  0.6508444  3
    357    355    358    360     1  0.0000000  0.6508444  3
    359    358    367    376     1  0.0000000  1.0460000  1
    359    358    367    376     1  0.0000000  0.0000000  3
    359    358    367    368     1  0.0000000  0.6508444  3
    359    358    367    369     1  0.0000000  0.6508444  3
    360    358    367    376     1  0.0000000  1.0460000  1
    360    358    367    376     1  0.0000000  0.0000000  3
    360    358    367    368     1  0.0000000  0.6508444  3
    360    358    367    369     1  0.0000000  0.6508444  3
    362    361    373    715     1  0.0000000  1.0460000  1
    362    361    373    715     1  0.0000000  0.0000000  3
    362    361    373    374     1  0.0000000  0.6508444  3
    362    361    373    375     1  0.0000000  0.6508444  3
    363    361    373    715     1  0.0000000  1.0460000  1
    363    361    373    715     1  0.0000000  0.0000000  3
    363    361    373    374     1  0.0000000  0.6508444  3
    363    361    373    375     1  0.0000000  0.6508444  3
    365    364    370    692     1  0.0000000  1.0460000  1
    365    364    370    692     1  0.0000000  0.0000000  3
    365    364    370    371     1  0.0000000  0.6508444  3
    365    364    370    372     1  0.0000000  0.6508444  3
    366    364    370    692     1  0.0000000  1.0460000  1
    366    364    370    692     1  0.0000000  0.0000000  3
    366    364    370    371     1  0.0000000  0.6508444  3
    366    364    370    372     1  0.0000000  0.6508444  3
    370    692    688    691     1  0.0000000  1.6038667  3
    371    370    692    688     1  0.0000000  1.6038667  3
    372    370    692    688     1  0.0000000  1.6038667  3
    373    715    711    714     1  0.0000000  1.6038667  3
    374    373    715    711     1  0.0000000  1.6038667  3
    375    373    715    711     1  0.0000000  1.6038667  3
    377    378    390    391     1  0.0000000  0.6508444  3
    377    378    390    392     1  0.0000000  0.6508444  3
    377    381    393    394     1  0.0000000  0.6508444  3
    377    381    393    395     1  0.0000000  0.6508444  3
    377    384    387    388     1  0.0000000  0.6508444  3
    377    384    387    389     1  0.0000000  0.6508444  3
    378    377    381    382     1  0.0000000  1.2552000  3
    378    377    381    383     1  0.0000000  1.2552000  3
    378    377    384    385     1  0.0000000  1.2552000  3
    378    377    384    386     1  0.0000000  1.2552000  3
    378    390    402    403     1  0.0000000  0.6508444  3
    378    390    402    404     1  0.0000000  0.6508444  3
    379    378    377    381     1  0.0000000  1.2552000  3
    379    378    377    384     1  0.0000000  1.2552000  3
    379    378    390    402     1  0.0000000  0.6508444  3
    379    378    390    391     1  0.0000000  0.6508444  3
    379    378    390    392     1  0.0000000  0.6508444  3
    380    378    377    381     1  0.0000000  1.2552000  3
    380    378    377    384     1  0.0000000  1.2552000  3
    380    378    390    402     1  0.0000000  0.6508444  3
    380    378    390    391     1  0.0000000  0.6508444  3
    380    378    390    392     1  0.0000000  0.6508444  3
    381    377    384    385     1  0.0000000  1.2552000  3
    381    377    384    386     1  0.0000000  1.2552000  3
    381    393    399    400     1  0.0000000  0.6508444  3
    381    393    399    401     1  0.0000000  0.6508444  3
    382    381    377    384     1  0.0000000  1.2552000  3
    382    381    393    399     1  0.0000000  0.6508444  3
    382    381    393    394     1  0.0000000  0.6508444  3
    382    381    393    395     1  0.0000000  0.6508444  3
    383    381    377    384     1  0.0000000  1.2552000  3
    383    381    393    399     1  0.0000000  0.6508444  3
    383    381    393    394     1  0.0000000  0.6508444  3
    383    381    393    395     1  0.0000000  0.6508444  3
    384    387    396    397     1  0.0000000  0.6508444  3
    384    387    396    398     1  0.0000000  0.6508444  3
    385    384    387    396     1  0.0000000  0.6508444  3
    385    384    387    388     1  0.0000000  0.6508444  3
    385    384    387    389     1  0.0000000  0.6508444  3
    386    384    387    396     1  0.0000000  0.6508444  3
    386    384    387    388     1  0.0000000  0.6508444  3
    386    384    387    389     1  0.0000000  0.6508444  3
    388    387    396    405     1  0.0000000  1.0460000  1
    388    387    396    405     1  0.0000000  0.0000000  3
    388    387    396    397     1  0.0000000  0.6508444  3
    388    387    396    398     1  0.0000000  0.6508444  3
    389    387    396    405     1  0.0000000  1.0460000  1
    389    387    396    405     1  0.0000000  0.0000000  3
    389    387    396    397     1  0.0000000  0.6508444  3
    389    387    396    398     1  0.0000000  0.6508444  3
    391    390    402    761     1  0.0000000  1.0460000  1
    391    390    402    761     1  0.0000000  0.0000000  3
    391    390    402    403     1  0.0000000  0.6508444  3
    391    390    402    404     1  0.0000000  0.6508444  3
    392    390    402    761     1  0.0000000  1.0460000  1
    392    390    402    761     1  0.0000000  0.0000000  3
    392    390    402    403     1  0.0000000  0.6508444  3
    392    390    402    404     1  0.0000000  0.6508444  3
    394    393    399    738     1  0.0000000  1.0460000  1
    394    393    399    738     1  0.0000000  0.0000000  3
    394    393    399    400     1  0.0000000  0.6508444  3
    394    393    399    401     1  0.0000000  0.6508444  3
    395    393    399    738     1  0.0000000  1.0460000  1
    395    393    399    738     1  0.0000000  0.0000000  3
    395    393    399    400     1  0.0000000  0.6508444  3
    395    393    399    401     1  0.0000000  0.6508444  3
    399    738    734    737     1  0.0000000  1.6038667  3
    400    399    738    734     1  0.0000000  1.6038667  3
    401    399    738    734     1  0.0000000  1.6038667  3
    402    761    757    760     1  0.0000000  1.6038667  3
    403    402    761    757     1  0.0000000  1.6038667  3
    404    402    761    757     1  0.0000000  1.6038667  3
    406    407    410    414     1  0.0000000  0.6508444  3
    406    407    419    422     1  0.0000000  1.0460000  1
    406    407    419    422     1  0.0000000  0.6694400  3
    406    420    426    427     1  0.0000000  1.0460000  1
    406    420    426    427     1  0.0000000  0.6694400  3
    406    428    412    415     1  0.0000000  1.6038667  3
    407    406    420    424     1  0.0000000  0.6508444  3
    407    406    420    425     1  0.0000000  0.6508444  3
    407    410    411    413     1  0.0000000  0.6508444  3
    407    410    418    421     1  0.0000000  1.0460000  1
    407    410    418    421     1  0.0000000  0.6694400  3
    408    406    407    410     1  0.0000000  0.6508444  3
    408    406    407    419     1  0.0000000  1.0460000  1
    408    406    407    419     1  0.0000000  0.0000000  3
    408    406    407    409     1  0.0000000  0.6508444  3
    408    406    420    426     1  0.0000000  1.0460000  1
    408    406    420    426     1  0.0000000  0.0000000  3
    408    406    420    424     1  0.0000000  0.6508444  3
    408    406    420    425     1  0.0000000  0.6508444  3
    408    406    428    412     1  0.0000000  1.6038667  3
    409    407    406    420     1  0.0000000  0.6508444  3
    409    407    406    428     1  0.0000000  1.0460000  1
    409    407    406    428     1  0.0000000  0.0000000  3
    409    407    410    411     1  0.0000000  0.6508444  3
    409    407    410    418     1  0.0000000  1.0460000  1
    409    407    410    418     1  0.0000000  0.0000000  3
    409    407    410    414     1  0.0000000  0.6508444  3
    409    407    419    422     1  0.0000000  0.6973333  3
    410    407    419    422     1  0.0000000  1.0460000  1
    410    407    419    422     1  0.0000000  0.6694400  3
    410    411    412    415     1  0.0000000  0.6508444  3
    410    411    417    423     1  0.0000000  1.0460000  1
    410    411    417    423     1  0.0000000  0.6694400  3
    411    410    418    421     1  0.0000000  1.0460000  1
    411    410    418    421     1  0.0000000  0.6694400  3
    412    411    410    414     1  0.0000000  0.6508444  3
    412    411    417    423     1  0.0000000  1.0460000  1
    412    411    417    423     1  0.0000000  0.6694400  3
    413    411    410    418     1  0.0000000  1.0460000  1
    413    411    410    418     1  0.0000000  0.0000000  3
    413    411    410    414     1  0.0000000  0.6508444  3
    413    411    412    416     1  0.0000000  1.0460000  1
    413    411    412    416     1  0.0000000  0.0000000  3
    413    411    412    428     1  0.0000000  1.0460000  1
    413    411    412    428     1  0.0000000  0.0000000  3
    413    411    412    415     1  0.0000000  0.6508444  3
    413    411    417    423     1  0.0000000  0.6973333  3
    414    410    407    419     1  0.0000000  1.0460000  1
    414    410    407    419     1  0.0000000  0.0000000  3
    414    410    411    417     1  0.0000000  1.0460000  1
    414    410    411    417     1  0.0000000  0.0000000  3
    414    410    418    421     1  0.0000000  0.6973333  3
    415    412    411    417     1  0.0000000  0.6508444  3
    424    420    406    428     1  0.0000000  1.0460000  1
    424    420    406    428     1  0.0000000  0.0000000  3
    424    420    426    427     1  0.0000000  0.6973333  3
    425    420    406    428     1  0.0000000  1.0460000  1
    425    420    406    428     1  0.0000000  0.0000000  3
    425    420    426    427     1  0.0000000  0.6973333  3
    429    430    433    437     1  0.0000000  0.6508444  3
    429    430    442    445     1  0.0000000  1.0460000  1
    429    430    442    445     1  0.0000000  0.6694400  3
    429    443    449    450     1  0.0000000  1.0460000  1
    429    443    449    450     1  0.0000000  0.6694400  3
    429    451    435    438     1  0.0000000  1.6038667  3
    430    433    434    436     1  0.0000000  0.6508444  3
    430    433    441    444     1  0.0000000  1.0460000  1
    430    433    441    444     1  0.0000000  0.6694400  3
    430    429    443    447     1  0.0000000  0.6508444  3
    430    429    443    448     1  0.0000000  0.6508444  3
    431    429    430    433     1  0.0000000  0.6508444  3
    431    429    430    442     1  0.0000000  1.0460000  1
    431    429    430    442     1  0.0000000  0.0000000  3
    431    429    430    432     1  0.0000000  0.6508444  3
    431    429    443    449     1  0.0000000  1.0460000  1
    431    429    443    449     1  0.0000000  0.0000000  3
    431    429    443    447     1  0.0000000  0.6508444  3
    431    429    443    448     1  0.0000000  0.6508444  3
    431    429    451    435     1  0.0000000  1.6038667  3
    432    430    433    434     1  0.0000000  0.6508444  3
    432    430    433    441     1  0.0000000  1.0460000  1
    432    430    433    441     1  0.0000000  0.0000000  3
    432    430    433    437     1  0.0000000  0.6508444  3
    432    430    442    445     1  0.0000000  0.6973333  3
    432    430    429    443     1  0.0000000  0.6508444  3
    432    430    429    451     1  0.0000000  1.0460000  1
    432    430    429    451     1  0.0000000  0.0000000  3
    433    434    435    438     1  0.0000000  0.6508444  3
    433    434    440    446     1  0.0000000  1.0460000  1
    433    434    440    446     1  0.0000000  0.6694400  3
    433    430    442    445     1  0.0000000  1.0460000  1
    433    430    442    445     1  0.0000000  0.6694400  3
    434    433    441    444     1  0.0000000  1.0460000  1
    434    433    441    444     1  0.0000000  0.6694400  3
    435    434    440    446     1  0.0000000  1.0460000  1
    435    434    440    446     1  0.0000000  0.6694400  3
    435    434    433    437     1  0.0000000  0.6508444  3
    436    434    435    439     1  0.0000000  1.0460000  1
    436    434    435    439     1  0.0000000  0.0000000  3
    436    434    435    451     1  0.0000000  1.0460000  1
    436    434    435    451     1  0.0000000  0.0000000  3
    436    434    435    438     1  0.0000000  0.6508444  3
    436    434    440    446     1  0.0000000  0.6973333  3
    436    434    433    441     1  0.0000000  1.0460000  1
    436    434    433    441     1  0.0000000  0.0000000  3
    436    434    433    437     1  0.0000000  0.6508444  3
    437    433    434    440     1  0.0000000  1.0460000  1
    437    433    434    440     1  0.0000000  0.0000000  3
    437    433    441    444     1  0.0000000  0.6973333  3
    437    433    430    442     1  0.0000000  1.0460000  1
    437    433    430    442     1  0.0000000  0.0000000  3
    438    435    434    440     1  0.0000000  0.6508444  3
    447    443    449    450     1  0.0000000  0.6973333  3
    447    443    429    451     1  0.0000000  1.0460000  1
    447    443    429    451     1  0.0000000  0.0000000  3
    448    443    449    450     1  0.0000000  0.6973333  3
    448    443    429    451     1  0.0000000  1.0460000  1
    448    443    429    451     1  0.0000000  0.0000000  3
    452    453    456    460     1  0.0000000  0.6508444  3
    452    453    465    468     1  0.0000000  1.0460000  1
    452    453    465    468     1  0.0000000  0.6694400  3
    452    466    472    473     1  0.0000000  1.0460000  1
    452    466    472    473     1  0.0000000  0.6694400  3
    452    474    458    461     1  0.0000000  1.6038667  3
    453    452    466    470     1  0.0000000  0.6508444  3
    453    452    466    471     1  0.0000000  0.6508444  3
    453    456    457    459     1  0.0000000  0.6508444  3
    453    456    464    467     1  0.0000000  1.0460000  1
    453    456    464    467     1  0.0000000  0.6694400  3
    454    452    453    456     1  0.0000000  0.6508444  3
    454    452    453    465     1  0.0000000  1.0460000  1
    454    452    453    465     1  0.0000000  0.0000000  3
    454    452    453    455     1  0.0000000  0.6508444  3
    454    452    466    472     1  0.0000000  1.0460000  1
    454    452    466    472     1  0.0000000  0.0000000  3
    454    452    466    470     1  0.0000000  0.6508444  3
    454    452    466    471     1  0.0000000  0.6508444  3
    454    452    474    458     1  0.0000000  1.6038667  3
    455    453    452    466     1  0.0000000  0.6508444  3
    455    453    452    474     1  0.0000000  1.0460000  1
    455    453    452    474     1  0.0000000  0.0000000  3
    455    453    456    457     1  0.0000000  0.6508444  3
    455    453    456    464     1  0.0000000  1.0460000  1
    455    453    456    464     1  0.0000000  0.0000000  3
    455    453    456    460     1  0.0000000  0.6508444  3
    455    453    465    468     1  0.0000000  0.6973333  3
    456    453    465    468     1  0.0000000  1.0460000  1
    456    453    465    468     1  0.0000000  0.6694400  3
    456    457    458    461     1  0.0000000  0.6508444  3
    456    457    463    469     1  0.0000000  1.0460000  1
    456    457    463    469     1  0.0000000  0.6694400  3
    457    456    464    467     1  0.0000000  1.0460000  1
    457    456    464    467     1  0.0000000  0.6694400  3
    458    457    456    460     1  0.0000000  0.6508444  3
    458    457    463    469     1  0.0000000  1.0460000  1
    458    457    463    469     1  0.0000000  0.6694400  3
    459    457    456    464     1  0.0000000  1.0460000  1
    459    457    456    464     1  0.0000000  0.0000000  3
    459    457    456    460     1  0.0000000  0.6508444  3
    459    457    458    462     1  0.0000000  1.0460000  1
    459    457    458    462     1  0.0000000  0.0000000  3
    459    457    458    474     1  0.0000000  1.0460000  1
    459    457    458    474     1  0.0000000  0.0000000  3
    459    457    458    461     1  0.0000000  0.6508444  3
    459    457    463    469     1  0.0000000  0.6973333  3
    460    456    453    465     1  0.0000000  1.0460000  1
    460    456    453    465     1  0.0000000  0.0000000  3
    460    456    457    463     1  0.0000000  1.0460000  1
    460    456    457    463     1  0.0000000  0.0000000  3
    460    456    464    467     1  0.0000000  0.6973333  3
    461    458    457    463     1  0.0000000  0.6508444  3
    470    466    452    474     1  0.0000000  1.0460000  1
    470    466    452    474     1  0.0000000  0.0000000  3
    470    466    472    473     1  0.0000000  0.6973333  3
    471    466    452    474     1  0.0000000  1.0460000  1
    471    466    452    474     1  0.0000000  0.0000000  3
    471    466    472    473     1  0.0000000  0.6973333  3
    475    476    479    483     1  0.0000000  0.6508444  3
    475    476    488    491     1  0.0000000  1.0460000  1
    475    476    488    491     1  0.0000000  0.6694400  3
    475    489    495    496     1  0.0000000  1.0460000  1
    475    489    495    496     1  0.0000000  0.6694400  3
    475    497    481    484     1  0.0000000  1.6038667  3
    476    479    480    482     1  0.0000000  0.6508444  3
    476    479    487    490     1  0.0000000  1.0460000  1
    476    479    487    490     1  0.0000000  0.6694400  3
    476    475    489    493     1  0.0000000  0.6508444  3
    476    475    489    494     1  0.0000000  0.6508444  3
    477    475    476    479     1  0.0000000  0.6508444  3
    477    475    476    488     1  0.0000000  1.0460000  1
    477    475    476    488     1  0.0000000  0.0000000  3
    477    475    476    478     1  0.0000000  0.6508444  3
    477    475    489    495     1  0.0000000  1.0460000  1
    477    475    489    495     1  0.0000000  0.0000000  3
    477    475    489    493     1  0.0000000  0.6508444  3
    477    475    489    494     1  0.0000000  0.6508444  3
    477    475    497    481     1  0.0000000  1.6038667  3
    478    476    479    480     1  0.0000000  0.6508444  3
    478    476    479    487     1  0.0000000  1.0460000  1
    478    476    479    487     1  0.0000000  0.0000000  3
    478    476    479    483     1  0.0000000  0.6508444  3
    478    476    488    491     1  0.0000000  0.6973333  3
    478    476    475    489     1  0.0000000  0.6508444  3
    478    476    475    497     1  0.0000000  1.0460000  1
    478    476    475    497     1  0.0000000  0.0000000  3
    479    480    481    484     1  0.0000000  0.6508444  3
    479    480    486    492     1  0.0000000  1.0460000  1
    479    480    486    492     1  0.0000000  0.6694400  3
    479    476    488    491     1  0.0000000  1.0460000  1
    479    476    488    491     1  0.0000000  0.6694400  3
    480    479    487    490     1  0.0000000  1.0460000  1
    480    479    487    490     1  0.0000000  0.6694400  3
    481    480    486    492     1  0.0000000  1.0460000  1
    481    480    486    492     1  0.0000000  0.6694400  3
    481    480    479    483     1  0.0000000  0.6508444  3
    482    480    481    485     1  0.0000000  1.0460000  1
    482    480    481    485     1  0.0000000  0.0000000  3
    482    480    481    497     1  0.0000000  1.0460000  1
    482    480    481    497     1  0.0000000  0.0000000  3
    482    480    481    484     1  0.0000000  0.6508444  3
    482    480    486    492     1  0.0000000  0.6973333  3
    482    480    479    487     1  0.0000000  1.0460000  1
    482    480    479    487     1  0.0000000  0.0000000  3
    482    480    479    483     1  0.0000000  0.6508444  3
    483    479    480    486     1  0.0000000  1.0460000  1
    483    479    480    486     1  0.0000000  0.0000000  3
    483    479    487    490     1  0.0000000  0.6973333  3
    483    479    476    488     1  0.0000000  1.0460000  1
    483    479    476    488     1  0.0000000  0.0000000  3
    484    481    480    486     1  0.0000000  0.6508444  3
    493    489    495    496     1  0.0000000  0.6973333  3
    493    489    475    497     1  0.0000000  1.0460000  1
    493    489    475    497     1  0.0000000  0.0000000  3
    494    489    495    496     1  0.0000000  0.6973333  3
    494    489    475    497     1  0.0000000  1.0460000  1
    494    489    475    497     1  0.0000000  0.0000000  3
    498    499    502    506     1  0.0000000  0.6508444  3
    498    499    511    514     1  0.0000000  1.0460000  1
    498    499    511    514     1  0.0000000  0.6694400  3
    498    512    518    519     1  0.0000000  1.0460000  1
    498    512    518    519     1  0.0000000  0.6694400  3
    498    520    504    507     1  0.0000000  1.6038667  3
    499    498    512    516     1  0.0000000  0.6508444  3
    499    498    512    517     1  0.0000000  0.6508444  3
    499    502    503    505     1  0.0000000  0.6508444  3
    499    502    510    513     1  0.0000000  1.0460000  1
    499    502    510    513     1  0.0000000  0.6694400  3
    500    498    499    502     1  0.0000000  0.6508444  3
    500    498    499    511     1  0.0000000  1.0460000  1
    500    498    499    511     1  0.0000000  0.0000000  3
    500    498    499    501     1  0.0000000  0.6508444  3
    500    498    512    518     1  0.0000000  1.0460000  1
    500    498    512    518     1  0.0000000  0.0000000  3
    500    498    512    516     1  0.0000000  0.6508444  3
    500    498    512    517     1  0.0000000  0.6508444  3
    500    498    520    504     1  0.0000000  1.6038667  3
    501    499    498    512     1  0.0000000  0.6508444  3
    501    499    498    520     1  0.0000000  1.0460000  1
    501    499    498    520     1  0.0000000  0.0000000  3
    501    499    502    503     1  0.0000000  0.6508444  3
    501    499    502    510     1  0.0000000  1.0460000  1
    501    499    502    510     1  0.0000000  0.0000000  3
    501    499    502    506     1  0.0000000  0.6508444  3
    501    499    511    514     1  0.0000000  0.6973333  3
    502    499    511    514     1  0.0000000  1.0460000  1
    502    499    511    514     1  0.0000000  0.6694400  3
    502    503    504    507     1  0.0000000  0.6508444  3
    502    503    509    515     1  0.0000000  1.0460000  1
    502    503    509    515     1  0.0000000  0.6694400  3
    503    502    510    513     1  0.0000000  1.0460000  1
    503    502    510    513     1  0.0000000  0.6694400  3
    504    503    502    506     1  0.0000000  0.6508444  3
    504    503    509    515     1  0.0000000  1.0460000  1
    504    503    509    515     1  0.0000000  0.6694400  3
    505    503    502    510     1  0.0000000  1.0460000  1
    505    503    502    510     1  0.0000000  0.0000000  3
    505    503    502    506     1  0.0000000  0.6508444  3
    505    503    504    508     1  0.0000000  1.0460000  1
    505    503    504    508     1  0.0000000  0.0000000  3
    505    503    504    520     1  0.0000000  1.0460000  1
    505    503    504    520     1  0.0000000  0.0000000  3
    505    503    504    507     1  0.0000000  0.6508444  3
    505    503    509    515     1  0.0000000  0.6973333  3
    506    502    499    511     1  0.0000000  1.0460000  1
    506    502    499    511     1  0.0000000  0.0000000  3
    506    502    503    509     1  0.0000000  1.0460000  1
    506    502    503    509     1  0.0000000  0.0000000  3
    506    502    510    513     1  0.0000000  0.6973333  3
    507    504    503    509     1  0.0000000  0.6508444  3
    516    512    498    520     1  0.0000000  1.0460000  1
    516    512    498    520     1  0.0000000  0.0000000  3
    516    512    518    519     1  0.0000000  0.6973333  3
    517    512    498    520     1  0.0000000  1.0460000  1
    517    512    498    520     1  0.0000000  0.0000000  3
    517    512    518    519     1  0.0000000  0.6973333  3
    521    522    525    529     1  0.0000000  0.6508444  3
    521    522    534    537     1  0.0000000  1.0460000  1
    521    522    534    537     1  0.0000000  0.6694400  3
    521    535    541    542     1  0.0000000  1.0460000  1
    521    535    541    542     1  0.0000000  0.6694400  3
    521    543    527    530     1  0.0000000  1.6038667  3
    522    525    526    528     1  0.0000000  0.6508444  3
    522    525    533    536     1  0.0000000  1.0460000  1
    522    525    533    536     1  0.0000000  0.6694400  3
    522    521    535    539     1  0.0000000  0.6508444  3
    522    521    535    540     1  0.0000000  0.6508444  3
    523    521    522    525     1  0.0000000  0.6508444  3
    523    521    522    534     1  0.0000000  1.0460000  1
    523    521    522    534     1  0.0000000  0.0000000  3
    523    521    522    524     1  0.0000000  0.6508444  3
    523    521    535    541     1  0.0000000  1.0460000  1
    523    521    535    541     1  0.0000000  0.0000000  3
    523    521    535    539     1  0.0000000  0.6508444  3
    523    521    535    540     1  0.0000000  0.6508444  3
    523    521    543    527     1  0.0000000  1.6038667  3
    524    522    525    526     1  0.0000000  0.6508444  3
    524    522    525    533     1  0.0000000  1.0460000  1
    524    522    525    533     1  0.0000000  0.0000000  3
    524    522    525    529     1  0.0000000  0.6508444  3
    524    522    534    537     1  0.0000000  0.6973333  3
    524    522    521    535     1  0.0000000  0.6508444  3
    524    522    521    543     1  0.0000000  1.0460000  1
    524    522    521    543     1  0.0000000  0.0000000  3
    525    526    527    530     1  0.0000000  0.6508444  3
    525    526    532    538     1  0.0000000  1.0460000  1
    525    526    532    538     1  0.0000000  0.6694400  3
    525    522    534    537     1  0.0000000  1.0460000  1
    525    522    534    537     1  0.0000000  0.6694400  3
    526    525    533    536     1  0.0000000  1.0460000  1
    526    525    533    536     1  0.0000000  0.6694400  3
    527    526    532    538     1  0.0000000  1.0460000  1
    527    526    532    538     1  0.0000000  0.6694400  3
    527    526    525    529     1  0.0000000  0.6508444  3
    528    526    527    531     1  0.0000000  1.0460000  1
    528    526    527    531     1  0.0000000  0.0000000  3
    528    526    527    543     1  0.0000000  1.0460000  1
    528    526    527    543     1  0.0000000  0.0000000  3
    528    526    527    530     1  0.0000000  0.6508444  3
    528    526    532    538     1  0.0000000  0.6973333  3
    528    526    525    533     1  0.0000000  1.0460000  1
    528    526    525    533     1  0.0000000  0.0000000  3
    528    526    525    529     1  0.0000000  0.6508444  3
    529    525    526    532     1  0.0000000  1.0460000  1
    529    525    526    532     1  0.0000000  0.0000000  3
    529    525    533    536     1  0.0000000  0.6973333  3
    529    525    522    534     1  0.0000000  1.0460000  1
    529    525    522    534     1  0.0000000  0.0000000  3
    530    527    526    532     1  0.0000000  0.6508444  3
    539    535    541    542     1  0.0000000  0.6973333  3
    539    535    521    543     1  0.0000000  1.0460000  1
    539    535    521    543     1  0.0000000  0.0000000  3
    540    535    541    542     1  0.0000000  0.6973333  3
    540    535    521    543     1  0.0000000  1.0460000  1
    540    535    521    543     1  0.0000000  0.0000000  3
    544    545    548    552     1  0.0000000  0.6508444  3
    544    545    557    560     1  0.0000000  1.0460000  1
    544    545    557    560     1  0.0000000  0.6694400  3
    544    558    564    565     1  0.0000000  1.0460000  1
    544    558    564    565     1  0.0000000  0.6694400  3
    544    566    550    553     1  0.0000000  1.6038667  3
    545    544    558    562     1  0.0000000  0.6508444  3
    545    544    558    563     1  0.0000000  0.6508444  3
    545    548    549    551     1  0.0000000  0.6508444  3
    545    548    556    559     1  0.0000000  1.0460000  1
    545    548    556    559     1  0.0000000  0.6694400  3
    546    544    545    548     1  0.0000000  0.6508444  3
    546    544    545    557     1  0.0000000  1.0460000  1
    546    544    545    557     1  0.0000000  0.0000000  3
    546    544    545    547     1  0.0000000  0.6508444  3
    546    544    558    564     1  0.0000000  1.0460000  1
    546    544    558    564     1  0.0000000  0.0000000  3
    546    544    558    562     1  0.0000000  0.6508444  3
    546    544    558    563     1  0.0000000  0.6508444  3
    546    544    566    550     1  0.0000000  1.6038667  3
    547    545    544    558     1  0.0000000  0.6508444  3
    547    545    544    566     1  0.0000000  1.0460000  1
    547    545    544    566     1  0.0000000  0.0000000  3
    547    545    548    549     1  0.0000000  0.6508444  3
    547    545    548    556     1  0.0000000  1.0460000  1
    547    545    548    556     1  0.0000000  0.0000000  3
    547    545    548    552     1  0.0000000  0.6508444  3
    547    545    557    560     1  0.0000000  0.6973333  3
    548    545    557    560     1  0.0000000  1.0460000  1
    548    545    557    560     1  0.0000000  0.6694400  3
    548    549    550    553     1  0.0000000  0.6508444  3
    548    549    555    561     1  0.0000000  1.0460000  1
    548    549    555    561     1  0.0000000  0.6694400  3
    549    548    556    559     1  0.0000000  1.0460000  1
    549    548    556    559     1  0.0000000  0.6694400  3
    550    549    548    552     1  0.0000000  0.6508444  3
    550    549    555    561     1  0.0000000  1.0460000  1
    550    549    555    561     1  0.0000000  0.6694400  3
    551    549    548    556     1  0.0000000  1.0460000  1
    551    549    548    556     1  0.0000000  0.0000000  3
    551    549    548    552     1  0.0000000  0.6508444  3
    551    549    550    554     1  0.0000000  1.0460000  1
    551    549    550    554     1  0.0000000  0.0000000  3
    551    549    550    566     1  0.0000000  1.0460000  1
    551    549    550    566     1  0.0000000  0.0000000  3
    551    549    550    553     1  0.0000000  0.6508444  3
    551    549    555    561     1  0.0000000  0.6973333  3
    552    548    545    557     1  0.0000000  1.0460000  1
    552    548    545    557     1  0.0000000  0.0000000  3
    552    548    549    555     1  0.0000000  1.0460000  1
    552    548    549    555     1  0.0000000  0.0000000  3
    552    548    556    559     1  0.0000000  0.6973333  3
    553    550    549    555     1  0.0000000  0.6508444  3
    562    558    544    566     1  0.0000000  1.0460000  1
    562    558    544    566     1  0.0000000  0.0000000  3
    562    558    564    565     1  0.0000000  0.6973333  3
    563    558    544    566     1  0.0000000  1.0460000  1
    563    558    544    566     1  0.0000000  0.0000000  3
    563    558    564    565     1  0.0000000  0.6973333  3
    567    568    571    575     1  0.0000000  0.6508444  3
    567    568    580    583     1  0.0000000  1.0460000  1
    567    568    580    583     1  0.0000000  0.6694400  3
    567    581    587    588     1  0.0000000  1.0460000  1
    567    581    587    588     1  0.0000000  0.6694400  3
    567    589    573    576     1  0.0000000  1.6038667  3
    568    571    572    574     1  0.0000000  0.6508444  3
    568    571    579    582     1  0.0000000  1.0460000  1
    568    571    579    582     1  0.0000000  0.6694400  3
    568    567    581    585     1  0.0000000  0.6508444  3
    568    567    581    586     1  0.0000000  0.6508444  3
    569    567    568    571     1  0.0000000  0.6508444  3
    569    567    568    580     1  0.0000000  1.0460000  1
    569    567    568    580     1  0.0000000  0.0000000  3
    569    567    568    570     1  0.0000000  0.6508444  3
    569    567    581    587     1  0.0000000  1.0460000  1
    569    567    581    587     1  0.0000000  0.0000000  3
    569    567    581    585     1  0.0000000  0.6508444  3
    569    567    581    586     1  0.0000000  0.6508444  3
    569    567    589    573     1  0.0000000  1.6038667  3
    570    568    571    572     1  0.0000000  0.6508444  3
    570    568    571    579     1  0.0000000  1.0460000  1
    570    568    571    579     1  0.0000000  0.0000000  3
    570    568    571    575     1  0.0000000  0.6508444  3
    570    568    580    583     1  0.0000000  0.6973333  3
    570    568    567    581     1  0.0000000  0.6508444  3
    570    568    567    589     1  0.0000000  1.0460000  1
    570    568    567    589     1  0.0000000  0.0000000  3
    571    572    573    576     1  0.0000000  0.6508444  3
    571    572    578    584     1  0.0000000  1.0460000  1
    571    572    578    584     1  0.0000000  0.6694400  3
    571    568    580    583     1  0.0000000  1.0460000  1
    571    568    580    583     1  0.0000000  0.6694400  3
    572    571    579    582     1  0.0000000  1.0460000  1
    572    571    579    582     1  0.0000000  0.6694400  3
    573    572    578    584     1  0.0000000  1.0460000  1
    573    572    578    584     1  0.0000000  0.6694400  3
    573    572    571    575     1  0.0000000  0.6508444  3
    574    572    573    577     1  0.0000000  1.0460000  1
    574    572    573    577     1  0.0000000  0.0000000  3
    574    572    573    589     1  0.0000000  1.0460000  1
    574    572    573    589     1  0.0000000  0.0000000  3
    574    572    573    576     1  0.0000000  0.6508444  3
    574    572    578    584     1  0.0000000  0.6973333  3
    574    572    571    579     1  0.0000000  1.0460000  1
    574    572    571    579     1  0.0000000  0.0000000  3
    574    572    571    575     1  0.0000000  0.6508444  3
    575    571    572    578     1  0.0000000  1.0460000  1
    575    571    572    578     1  0.0000000  0.0000000  3
    575    571    579    582     1  0.0000000  0.6973333  3
    575    571    568    580     1  0.0000000  1.0460000  1
    575    571    568    580     1  0.0000000  0.0000000  3
    576    573    572    578     1  0.0000000  0.6508444  3
    585    581    587    588     1  0.0000000  0.6973333  3
    585    581    567    589     1  0.0000000  1.0460000  1
    585    581    567    589     1  0.0000000  0.0000000  3
    586    581    587    588     1  0.0000000  0.6973333  3
    586    581    567    589     1  0.0000000  1.0460000  1
    586    581    567    589     1  0.0000000  0.0000000  3
    590    591    594    598     1  0.0000000  0.6508444  3
    590    591    603    606     1  0.0000000  1.0460000  1
    590    591    603    606     1  0.0000000  0.6694400  3
    590    604    610    611     1  0.0000000  1.0460000  1
    590    604    610    611     1  0.0000000  0.6694400  3
    590    612    596    599     1  0.0000000  1.6038667  3
    591    590    604    608     1  0.0000000  0.6508444  3
    591    590    604    609     1  0.0000000  0.6508444  3
    591    594    595    597     1  0.0000000  0.6508444  3
    591    594    602    605     1  0.0000000  1.0460000  1
    591    594    602    605     1  0.0000000  0.6694400  3
    592    590    591    594     1  0.0000000  0.6508444  3
    592    590    591    603     1  0.0000000  1.0460000  1
    592    590    591    603     1  0.0000000  0.0000000  3
    592    590    591    593     1  0.0000000  0.6508444  3
    592    590    604    610     1  0.0000000  1.0460000  1
    592    590    604    610     1  0.0000000  0.0000000  3
    592    590    604    608     1  0.0000000  0.6508444  3
    592    590    604    609     1  0.0000000  0.6508444  3
    592    590    612    596     1  0.0000000  1.6038667  3
    593    591    590    604     1  0.0000000  0.6508444  3
    593    591    590    612     1  0.0000000  1.0460000  1
    593    591    590    612     1  0.0000000  0.0000000  3
    593    591    594    595     1  0.0000000  0.6508444  3
    593    591    594    602     1  0.0000000  1.0460000  1
    593    591    594    602     1  0.0000000  0.0000000  3
    593    591    594    598     1  0.0000000  0.6508444  3
    593    591    603    606     1  0.0000000  0.6973333  3
    594    591    603    606     1  0.0000000  1.0460000  1
    594    591    603    606     1  0.0000000  0.6694400  3
    594    595    596    599     1  0.0000000  0.6508444  3
    594    595    601    607     1  0.0000000  1.0460000  1
    594    595    601    607     1  0.0000000  0.6694400  3
    595    594    602    605     1  0.0000000  1.0460000  1
    595    594    602    605     1  0.0000000  0.6694400  3
    596    595    594    598     1  0.0000000  0.6508444  3
    596    595    601    607     1  0.0000000  1.0460000  1
    596    595    601    607     1  0.0000000  0.6694400  3
    597    595    594    602     1  0.0000000  1.0460000  1
    597    595    594    602     1  0.0000000  0.0000000  3
    597    595    594    598     1  0.0000000  0.6508444  3
    597    595    596    600     1  0.0000000  1.0460000  1
    597    595    596    600     1  0.0000000  0.0000000  3
    597    595    596    612     1  0.0000000  1.0460000  1
    597    595    596    612     1  0.0000000  0.0000000  3
    597    595    596    599     1  0.0000000  0.6508444  3
    597    595    601    607     1  0.0000000  0.6973333  3
    598    594    591    603     1  0.0000000  1.0460000  1
    598    594    591    603     1  0.0000000  0.0000000  3
    598    594    595    601     1  0.0000000  1.0460000  1
    598    594    595    601     1  0.0000000  0.0000000  3
    598    594    602    605     1  0.0000000  0.6973333  3
    599    596    595    601     1  0.0000000  0.6508444  3
    608    604    590    612     1  0.0000000  1.0460000  1
    608    604    590    612     1  0.0000000  0.0000000  3
    608    604    610    611     1  0.0000000  0.6973333  3
    609    604    590    612     1  0.0000000  1.0460000  1
    609    604    590    612     1  0.0000000  0.0000000  3
    609    604    610    611     1  0.0000000  0.6973333  3
    613    614    617    621     1  0.0000000  0.6508444  3
    613    614    626    629     1  0.0000000  1.0460000  1
    613    614    626    629     1  0.0000000  0.6694400  3
    613    627    633    634     1  0.0000000  1.0460000  1
    613    627    633    634     1  0.0000000  0.6694400  3
    613    635    619    622     1  0.0000000  1.6038667  3
    614    617    618    620     1  0.0000000  0.6508444  3
    614    617    625    628     1  0.0000000  1.0460000  1
    614    617    625    628     1  0.0000000  0.6694400  3
    614    613    627    631     1  0.0000000  0.6508444  3
    614    613    627    632     1  0.0000000  0.6508444  3
    615    613    614    617     1  0.0000000  0.6508444  3
    615    613    614    626     1  0.0000000  1.0460000  1
    615    613    614    626     1  0.0000000  0.0000000  3
    615    613    614    616     1  0.0000000  0.6508444  3
    615    613    627    633     1  0.0000000  1.0460000  1
    615    613    627    633     1  0.0000000  0.0000000  3
    615    613    627    631     1  0.0000000  0.6508444  3
    615    613    627    632     1  0.0000000  0.6508444  3
    615    613    635    619     1  0.0000000  1.6038667  3
    616    614    617    618     1  0.0000000  0.6508444  3
    616    614    617    625     1  0.0000000  1.0460000  1
    616    614    617    625     1  0.0000000  0.0000000  3
    616    614    617    621     1  0.0000000  0.6508444  3
    616    614    626    629     1  0.0000000  0.6973333  3
    616    614    613    627     1  0.0000000  0.6508444  3
    616    614    613    635     1  0.0000000  1.0460000  1
    616    614    613    635     1  0.0000000  0.0000000  3
    617    618    619    622     1  0.0000000  0.6508444  3
    617    618    624    630     1  0.0000000  1.0460000  1
    617    618    624    630     1  0.0000000  0.6694400  3
    617    614    626    629     1  0.0000000  1.0460000  1
    617    614    626    629     1  0.0000000  0.6694400  3
    618    617    625    628     1  0.0000000  1.0460000  1
    618    617    625    628     1  0.0000000  0.6694400  3
    619    618    624    630     1  0.0000000  1.0460000  1
    619    618    624    630     1  0.0000000  0.6694400  3
    619    618    617    621     1  0.0000000  0.6508444  3
    620    618    619    623     1  0.0000000  1.0460000  1
    620    618    619    623     1  0.0000000  0.0000000  3
    620    618    619    635     1  0.0000000  1.0460000  1
    620    618    619    635     1  0.0000000  0.0000000  3
    620    618    619    622     1  0.0000000  0.6508444  3
    620    618    624    630     1  0.0000000  0.6973333  3
    620    618    617    625     1  0.0000000  1.0460000  1
    620    618    617    625     1  0.0000000  0.0000000  3
    620    618    617    621     1  0.0000000  0.6508444  3
    621    617    618    624     1  0.0000000  1.0460000  1
    621    617    618    624     1  0.0000000  0.0000000  3
    621    617    625    628     1  0.0000000  0.6973333  3
    621    617    614    626     1  0.0000000  1.0460000  1
    621    617    614    626     1  0.0000000  0.0000000  3
    622    619    618    624     1  0.0000000  0.6508444  3
    631    627    633    634     1  0.0000000  0.6973333  3
    631    627    613    635     1  0.0000000  1.0460000  1
    631    627    613    635     1  0.0000000  0.0000000  3
    632    627    633    634     1  0.0000000  0.6973333  3
    632    627    613    635     1  0.0000000  1.0460000  1
    632    627    613    635     1  0.0000000  0.0000000  3
    636    637    640    644     1  0.0000000  0.6508444  3
    636    637    649    652     1  0.0000000  1.0460000  1
    636    637    649    652     1  0.0000000  0.6694400  3
    636    650    656    657     1  0.0000000  1.0460000  1
    636    650    656    657     1  0.0000000  0.6694400  3
    636    658    642    645     1  0.0000000  1.6038667  3
    637    636    650    654     1  0.0000000  0.6508444  3
    637    636    650    655     1  0.0000000  0.6508444  3
    637    640    641    643     1  0.0000000  0.6508444  3
    637    640    648    651     1  0.0000000  1.0460000  1
    637    640    648    651     1  0.0000000  0.6694400  3
    638    636    637    640     1  0.0000000  0.6508444  3
    638    636    637    649     1  0.0000000  1.0460000  1
    638    636    637    649     1  0.0000000  0.0000000  3
    638    636    637    639     1  0.0000000  0.6508444  3
    638    636    650    656     1  0.0000000  1.0460000  1
    638    636    650    656     1  0.0000000  0.0000000  3
    638    636    650    654     1  0.0000000  0.6508444  3
    638    636    650    655     1  0.0000000  0.6508444  3
    638    636    658    642     1  0.0000000  1.6038667  3
    639    637    636    650     1  0.0000000  0.6508444  3
    639    637    636    658     1  0.0000000  1.0460000  1
    639    637    636    658     1  0.0000000  0.0000000  3
    639    637    640    641     1  0.0000000  0.6508444  3
    639    637    640    648     1  0.0000000  1.0460000  1
    639    637    640    648     1  0.0000000  0.0000000  3
    639    637    640    644     1  0.0000000  0.6508444  3
    639    637    649    652     1  0.0000000  0.6973333  3
    640    637    649    652     1  0.0000000  1.0460000  1
    640    637    649    652     1  0.0000000  0.6694400  3
    640    641    642    645     1  0.0000000  0.6508444  3
    640    641    647    653     1  0.0000000  1.0460000  1
    640    641    647    653     1  0.0000000  0.6694400  3
    641    640    648    651     1  0.0000000  1.0460000  1
    641    640    648    651     1  0.0000000  0.6694400  3
    642    641    640    644     1  0.0000000  0.6508444  3
    642    641    647    653     1  0.0000000  1.0460000  1
    642    641    647    653     1  0.0000000  0.6694400  3
    643    641    640    648     1  0.0000000  1.0460000  1
    643    641    640    648     1  0.0000000  0.0000000  3
    643    641    640    644     1  0.0000000  0.6508444  3
    643    641    642    646     1  0.0000000  1.0460000  1
    643    641    642    646     1  0.0000000  0.0000000  3
    643    641    642    658     1  0.0000000  1.0460000  1
    643    641    642    658     1  0.0000000  0.0000000  3
    643    641    642    645     1  0.0000000  0.6508444  3
    643    641    647    653     1  0.0000000  0.6973333  3
    644    640    637    649     1  0.0000000  1.0460000  1
    644    640    637    649     1  0.0000000  0.0000000  3
    644    640    641    647     1  0.0000000  1.0460000  1
    644    640    641    647     1  0.0000000  0.0000000  3
    644    640    648    651     1  0.0000000  0.6973333  3
    645    642    641    647     1  0.0000000  0.6508444  3
    654    650    636    658     1  0.0000000  1.0460000  1
    654    650    636    658     1  0.0000000  0.0000000  3
    654    650    656    657     1  0.0000000  0.6973333  3
    655    650    636    658     1  0.0000000  1.0460000  1
    655    650    636    658     1  0.0000000  0.0000000  3
    655    650    656    657     1  0.0000000  0.6973333  3
    659    660    663    667     1  0.0000000  0.6508444  3
    659    660    672    675     1  0.0000000  1.0460000  1
    659    660    672    675     1  0.0000000  0.6694400  3
    659    673    679    680     1  0.0000000  1.0460000  1
    659    673    679    680     1  0.0000000  0.6694400  3
    659    681    665    668     1  0.0000000  1.6038667  3
    660    663    664    666     1  0.0000000  0.6508444  3
    660    663    671    674     1  0.0000000  1.0460000  1
    660    663    671    674     1  0.0000000  0.6694400  3
    660    659    673    677     1  0.0000000  0.6508444  3
    660    659    673    678     1  0.0000000  0.6508444  3
    661    659    660    663     1  0.0000000  0.6508444  3
    661    659    660    672     1  0.0000000  1.0460000  1
    661    659    660    672     1  0.0000000  0.0000000  3
    661    659    660    662     1  0.0000000  0.6508444  3
    661    659    673    679     1  0.0000000  1.0460000  1
    661    659    673    679     1  0.0000000  0.0000000  3
    661    659    673    677     1  0.0000000  0.6508444  3
    661    659    673    678     1  0.0000000  0.6508444  3
    661    659    681    665     1  0.0000000  1.6038667  3
    662    660    663    664     1  0.0000000  0.6508444  3
    662    660    663    671     1  0.0000000  1.0460000  1
    662    660    663    671     1  0.0000000  0.0000000  3
    662    660    663    667     1  0.0000000  0.6508444  3
    662    660    672    675     1  0.0000000  0.6973333  3
    662    660    659    673     1  0.0000000  0.6508444  3
    662    660    659    681     1  0.0000000  1.0460000  1
    662    660    659    681     1  0.0000000  0.0000000  3
    663    664    665    668     1  0.0000000  0.6508444  3
    663    664    670    676     1  0.0000000  1.0460000  1
    663    664    670    676     1  0.0000000  0.6694400  3
    663    660    672    675     1  0.0000000  1.0460000  1
    663    660    672    675     1  0.0000000  0.6694400  3
    664    663    671    674     1  0.0000000  1.0460000  1
    664    663    671    674     1  0.0000000  0.6694400  3
    665    664    670    676     1  0.0000000  1.0460000  1
    665    664    670    676     1  0.0000000  0.6694400  3
    665    664    663    667     1  0.0000000  0.6508444  3
    666    664    665    669     1  0.0000000  1.0460000  1
    666    664    665    669     1  0.0000000  0.0000000  3
    666    664    665    681     1  0.0000000  1.0460000  1
    666    664    665    681     1  0.0000000  0.0000000  3
    666    664    665    668     1  0.0000000  0.6508444  3
    666    664    670    676     1  0.0000000  0.6973333  3
    666    664    663    671     1  0.0000000  1.0460000  1
    666    664    663    671     1  0.0000000  0.0000000  3
    666    664    663    667     1  0.0000000  0.6508444  3
    667    663    664    670     1  0.0000000  1.0460000  1
    667    663    664    670     1  0.0000000  0.0000000  3
    667    663    671    674     1  0.0000000  0.6973333  3
    667    663    660    672     1  0.0000000  1.0460000  1
    667    663    660    672     1  0.0000000  0.0000000  3
    668    665    664    670     1  0.0000000  0.6508444  3
    677    673    679    680     1  0.0000000  0.6973333  3
    677    673    659    681     1  0.0000000  1.0460000  1
    677    673    659    681     1  0.0000000  0.0000000  3
    678    673    679    680     1  0.0000000  0.6973333  3
    678    673    659    681     1  0.0000000  1.0460000  1
    678    673    659    681     1  0.0000000  0.0000000  3
    682    683    686    690     1  0.0000000  0.6508444  3
    682    683    695    698     1  0.0000000  1.0460000  1
    682    683    695    698     1  0.0000000  0.6694400  3
    682    696    702    703     1  0.0000000  1.0460000  1
    682    696    702    703     1  0.0000000  0.6694400  3
    682    704    688    691     1  0.0000000  1.6038667  3
    683    682    696    700     1  0.0000000  0.6508444  3
    683    682    696    701     1  0.0000000  0.6508444  3
    683    686    687    689     1  0.0000000  0.6508444  3
    683    686    694    697     1  0.0000000  1.0460000  1
    683    686    694    697     1  0.0000000  0.6694400  3
    684    682    683    686     1  0.0000000  0.6508444  3
    684    682    683    695     1  0.0000000  1.0460000  1
    684    682    683    695     1  0.0000000  0.0000000  3
    684    682    683    685     1  0.0000000  0.6508444  3
    684    682    696    702     1  0.0000000  1.0460000  1
    684    682    696    702     1  0.0000000  0.0000000  3
    684    682    696    700     1  0.0000000  0.6508444  3
    684    682    696    701     1  0.0000000  0.6508444  3
    684    682    704    688     1  0.0000000  1.6038667  3
    685    683    682    696     1  0.0000000  0.6508444  3
    685    683    682    704     1  0.0000000  1.0460000  1
    685    683    682    704     1  0.0000000  0.0000000  3
    685    683    686    687     1  0.0000000  0.6508444  3
    685    683    686    694     1  0.0000000  1.0460000  1
    685    683    686    694     1  0.0000000  0.0000000  3
    685    683    686    690     1  0.0000000  0.6508444  3
    685    683    695    698     1  0.0000000  0.6973333  3
    686    683    695    698     1  0.0000000  1.0460000  1
    686    683    695    698     1  0.0000000  0.6694400  3
    686    687    688    691     1  0.0000000  0.6508444  3
    686    687    693    699     1  0.0000000  1.0460000  1
    686    687    693    699     1  0.0000000  0.6694400  3
    687    686    694    697     1  0.0000000  1.0460000  1
    687    686    694    697     1  0.0000000  0.6694400  3
    688    687    686    690     1  0.0000000  0.6508444  3
    688    687    693    699     1  0.0000000  1.0460000  1
    688    687    693    699     1  0.0000000  0.6694400  3
    689    687    686    694     1  0.0000000  1.0460000  1
    689    687    686    694     1  0.0000000  0.0000000  3
    689    687    686    690     1  0.0000000  0.6508444  3
    689    687    688    692     1  0.0000000  1.0460000  1
    689    687    688    692     1  0.0000000  0.0000000  3
    689    687    688    704     1  0.0000000  1.0460000  1
    689    687    688    704     1  0.0000000  0.0000000  3
    689    687    688    691     1  0.0000000  0.6508444  3
    689    687    693    699     1  0.0000000  0.6973333  3
    690    686    683    695     1  0.0000000  1.0460000  1
    690    686    683    695     1  0.0000000  0.0000000  3
    690    686    687    693     1  0.0000000  1.0460000  1
    690    686    687    693     1  0.0000000  0.0000000  3
    690    686    694    697     1  0.0000000  0.6973333  3
    691    688    687    693     1  0.0000000  0.6508444  3
    700    696    682    704     1  0.0000000  1.0460000  1
    700    696    682    704     1  0.0000000  0.0000000  3
    700    696    702    703     1  0.0000000  0.6973333  3
    701    696    682    704     1  0.0000000  1.0460000  1
    701    696    682    704     1  0.0000000  0.0000000  3
    701    696    702    703     1  0.0000000  0.6973333  3
    705    706    709    713     1  0.0000000  0.6508444  3
    705    706    718    721     1  0.0000000  1.0460000  1
    705    706    718    721     1  0.0000000  0.6694400  3
    705    719    725    726     1  0.0000000  1.0460000  1
    705    719    725    726     1  0.0000000  0.6694400  3
    705    727    711    714     1  0.0000000  1.6038667  3
    706    709    710    712     1  0.0000000  0.6508444  3
    706    709    717    720     1  0.0000000  1.0460000  1
    706    709    717    720     1  0.0000000  0.6694400  3
    706    705    719    723     1  0.0000000  0.6508444  3
    706    705    719    724     1  0.0000000  0.6508444  3
    707    705    706    709     1  0.0000000  0.6508444  3
    707    705    706    718     1  0.0000000  1.0460000  1
    707    705    706    718     1  0.0000000  0.0000000  3
    707    705    706    708     1  0.0000000  0.6508444  3
    707    705    719    725     1  0.0000000  1.0460000  1
    707    705    719    725     1  0.0000000  0.0000000  3
    707    705    719    723     1  0.0000000  0.6508444  3
    707    705    719    724     1  0.0000000  0.6508444  3
    707    705    727    711     1  0.0000000  1.6038667  3
    708    706    709    710     1  0.0000000  0.6508444  3
    708    706    709    717     1  0.0000000  1.0460000  1
    708    706    709    717     1  0.0000000  0.0000000  3
    708    706    709    713     1  0.0000000  0.6508444  3
    708    706    718    721     1  0.0000000  0.6973333  3
    708    706    705    719     1  0.0000000  0.6508444  3
    708    706    705    727     1  0.0000000  1.0460000  1
    708    706    705    727     1  0.0000000  0.0000000  3
    709    710    711    714     1  0.0000000  0.6508444  3
    709    710    716    722     1  0.0000000  1.0460000  1
    709    710    716    722     1  0.0000000  0.6694400  3
    709    706    718    721     1  0.0000000  1.0460000  1
    709    706    718    721     1  0.0000000  0.6694400  3
    710    709    717    720     1  0.0000000  1.0460000  1
    710    709    717    720     1  0.0000000  0.6694400  3
    711    710    716    722     1  0.0000000  1.0460000  1
    711    710    716    722     1  0.0000000  0.6694400  3
    711    710    709    713     1  0.0000000  0.6508444  3
    712    710    711    715     1  0.0000000  1.0460000  1
    712    710    711    715     1  0.0000000  0.0000000  3
    712    710    711    727     1  0.0000000  1.0460000  1
    712    710    711    727     1  0.0000000  0.0000000  3
    712    710    711    714     1  0.0000000  0.6508444  3
    712    710    716    722     1  0.0000000  0.6973333  3
    712    710    709    717     1  0.0000000  1.0460000  1
    712    710    709    717     1  0.0000000  0.0000000  3
    712    710    709    713     1  0.0000000  0.6508444  3
    713    709    710    716     1  0.0000000  1.0460000  1
    713    709    710    716     1  0.0000000  0.0000000  3
    713    709    717    720     1  0.0000000  0.6973333  3
    713    709    706    718     1  0.0000000  1.0460000  1
    713    709    706    718     1  0.0000000  0.0000000  3
    714    711    710    716     1  0.0000000  0.6508444  3
    723    719    725    726     1  0.0000000  0.6973333  3
    723    719    705    727     1  0.0000000  1.0460000  1
    723    719    705    727     1  0.0000000  0.0000000  3
    724    719    725    726     1  0.0000000  0.6973333  3
    724    719    705    727     1  0.0000000  1.0460000  1
    724    719    705    727     1  0.0000000  0.0000000  3
    728    729    732    736     1  0.0000000  0.6508444  3
    728    729    741    744     1  0.0000000  1.0460000  1
    728    729    741    744     1  0.0000000  0.6694400  3
    728    742    748    749     1  0.0000000  1.0460000  1
    728    742    748    749     1  0.0000000  0.6694400  3
    728    750    734    737     1  0.0000000  1.6038667  3
    729    728    742    746     1  0.0000000  0.6508444  3
    729    728    742    747     1  0.0000000  0.6508444  3
    729    732    733    735     1  0.0000000  0.6508444  3
    729    732    740    743     1  0.0000000  1.0460000  1
    729    732    740    743     1  0.0000000  0.6694400  3
    730    728    729    732     1  0.0000000  0.6508444  3
    730    728    729    741     1  0.0000000  1.0460000  1
    730    728    729    741     1  0.0000000  0.0000000  3
    730    728    729    731     1  0.0000000  0.6508444  3
    730    728    742    748     1  0.0000000  1.0460000  1
    730    728    742    748     1  0.0000000  0.0000000  3
    730    728    742    746     1  0.0000000  0.6508444  3
    730    728    742    747     1  0.0000000  0.6508444  3
    730    728    750    734     1  0.0000000  1.6038667  3
    731    729    728    742     1  0.0000000  0.6508444  3
    731    729    728    750     1  0.0000000  1.0460000  1
    731    729    728    750     1  0.0000000  0.0000000  3
    731    729    732    733     1  0.0000000  0.6508444  3
    731    729    732    740     1  0.0000000  1.0460000  1
    731    729    732    740     1  0.0000000  0.0000000  3
    731    729    732    736     1  0.0000000  0.6508444  3
    731    729    741    744     1  0.0000000  0.6973333  3
    732    729    741    744     1  0.0000000  1.0460000  1
    732    729    741    744     1  0.0000000  0.6694400  3
    732    733    734    737     1  0.0000000  0.6508444  3
    732    733    739    745     1  0.0000000  1.0460000  1
    732    733    739    745     1  0.0000000  0.6694400  3
    733    732    740    743     1  0.0000000  1.0460000  1
    733    732    740    743     1  0.0000000  0.6694400  3
    734    733    732    736     1  0.0000000  0.6508444  3
    734    733    739    745     1  0.0000000  1.0460000  1
    734    733    739    745     1  0.0000000  0.6694400  3
    735    733    732    740     1  0.0000000  1.0460000  1
    735    733    732    740     1  0.0000000  0.0000000  3
    735    733    732    736     1  0.0000000  0.6508444  3
    735    733    734    738     1  0.0000000  1.0460000  1
    735    733    734    738     1  0.0000000  0.0000000  3
    735    733    734    750     1  0.0000000  1.0460000  1
    735    733    734    750     1  0.0000000  0.0000000  3
    735    733    734    737     1  0.0000000  0.6508444  3
    735    733    739    745     1  0.0000000  0.6973333  3
    736    732    729    741     1  0.0000000  1.0460000  1
    736    732    729    741     1  0.0000000  0.0000000  3
    736    732    733    739     1  0.0000000  1.0460000  1
    736    732    733    739     1  0.0000000  0.0000000  3
    736    732    740    743     1  0.0000000  0.6973333  3
    737    734    733    739     1  0.0000000  0.6508444  3
    746    742    728    750     1  0.0000000  1.0460000  1
    746    742    728    750     1  0.0000000  0.0000000  3
    746    742    748    749     1  0.0000000  0.6973333  3
    747    742    728    750     1  0.0000000  1.0460000  1
    747    742    728    750     1  0.0000000  0.0000000  3
    747    742    748    749     1  0.0000000  0.6973333  3
    751    752    755    759     1  0.0000000  0.6508444  3
    751    752    764    767     1  0.0000000  1.0460000  1
    751    752    764    767     1  0.0000000  0.6694400  3
    751    765    771    772     1  0.0000000  1.0460000  1
    751    765    771    772     1  0.0000000  0.6694400  3
    751    773    757    760     1  0.0000000  1.6038667  3
    752    755    756    758     1  0.0000000  0.6508444  3
    752    755    763    766     1  0.0000000  1.0460000  1
    752    755    763    766     1  0.0000000  0.6694400  3
    752    751    765    769     1  0.0000000  0.6508444  3
    752    751    765    770     1  0.0000000  0.6508444  3
    753    751    752    755     1  0.0000000  0.6508444  3
    753    751    752    764     1  0.0000000  1.0460000  1
    753    751    752    764     1  0.0000000  0.0000000  3
    753    751    752    754     1  0.0000000  0.6508444  3
    753    751    765    771     1  0.0000000  1.0460000  1
    753    751    765    771     1  0.0000000  0.0000000  3
    753    751    765    769     1  0.0000000  0.6508444  3
    753    751    765    770     1  0.0000000  0.6508444  3
    753    751    773    757     1  0.0000000  1.6038667  3
    754    752    755    756     1  0.0000000  0.6508444  3
    754    752    755    763     1  0.0000000  1.0460000  1
    754    752    755    763     1  0.0000000  0.0000000  3
    754    752    755    759     1  0.0000000  0.6508444  3
    754    752    764    767     1  0.0000000  0.6973333  3
    754    752    751    765     1  0.0000000  0.6508444  3
    754    752    751    773     1  0.0000000  1.0460000  1
    754    752    751    773     1  0.0000000  0.0000000  3
    755    756    757    760     1  0.0000000  0.6508444  3
    755    756    762    768     1  0.0000000  1.0460000  1
    755    756    762    768     1  0.0000000  0.6694400  3
    755    752    764    767     1  0.0000000  1.0460000  1
    755    752    764    767     1  0.0000000  0.6694400  3
    756    755    763    766     1  0.0000000  1.0460000  1
    756    755    763    766     1  0.0000000  0.6694400  3
    757    756    762    768     1  0.0000000  1.0460000  1
    757    756    762    768     1  0.0000000  0.6694400  3
    757    756    755    759     1  0.0000000  0.6508444  3
    758    756    757    761     1  0.0000000  1.0460000  1
    758    756    757    761     1  0.0000000  0.0000000  3
    758    756    757    773     1  0.0000000  1.0460000  1
    758    756    757    773     1  0.0000000  0.0000000  3
    758    756    757    760     1  0.0000000  0.6508444  3
    758    756    762    768     1  0.0000000  0.6973333  3
    758    756    755    763     1  0.0000000  1.0460000  1
    758    756    755    763     1  0.0000000  0.0000000  3
    758    756    755    759     1  0.0000000  0.6508444  3
    759    755    756    762     1  0.0000000  1.0460000  1
    759    755    756    762     1  0.0000000  0.0000000  3
    759    755    763    766     1  0.0000000  0.6973333  3
    759    755    752    764     1  0.0000000  1.0460000  1
    759    755    752    764     1  0.0000000  0.0000000  3
    760    757    756    762     1  0.0000000  0.6508444  3
    769    765    771    772     1  0.0000000  0.6973333  3
    769    765    751    773     1  0.0000000  1.0460000  1
    769    765    751    773     1  0.0000000  0.0000000  3
    770    765    771    772     1  0.0000000  0.6973333  3
    770    765    751    773     1  0.0000000  1.0460000  1
    770    765    751    773     1  0.0000000  0.0000000  3

;[ system ]
;; Name
;Generic title
;
;[ molecules ]
;; Compound       #mols
;g2npocore_petim_betagalactose       1
